# vtk DataFile Version 2.0

ASCII

DATASET UNSTRUCTURED_GRID

POINTS 281 double 

0.00000000000000000e+00  6.00000000000000012e-03  8.68039800000000063e-03
0.00000000000000000e+00  6.00000000000000012e-03  2.15013699999999988e-02
0.00000000000000000e+00  5.99999699999999997e-03  3.38432499999999983e-02
0.00000000000000000e+00  6.00000000000000012e-03  4.61511800000000000e-02
0.00000000000000000e+00  5.99999399999999981e-03  5.84285100000000029e-02
0.00000000000000000e+00  5.99999899999999978e-03  7.03572799999999943e-02
0.00000000000000000e+00  6.00000000000000012e-03  7.56573400000000035e-02
0.00000000000000000e+00  6.00000000000000012e-03  1.52458600000000000e-02
0.00000000000000000e+00  5.99999899999999978e-03  2.76822099999999988e-02
0.00000000000000000e+00  5.99999899999999978e-03  3.99985900000000005e-02
0.00000000000000000e+00  5.99999800000000031e-03  5.22986000000000006e-02
0.00000000000000000e+00  5.99999800000000031e-03  6.44963600000000026e-02
0.00000000000000000e+00  3.00000000000000006e-03  3.07692300000000007e-03
0.00000000000000000e+00  3.00000000000000006e-03  1.04940499999999996e-02
0.00000000000000000e+00  3.00000000000000006e-03  7.41712199999999995e-03
0.00000000000000000e+00  3.00000000000000006e-03  2.30583799999999998e-02
0.00000000000000000e+00  3.00000000000000006e-03  1.99814599999999995e-02
0.00000000000000000e+00  2.99999900000000016e-03  3.53831699999999985e-02
0.00000000000000000e+00  2.99999900000000016e-03  3.23062400000000000e-02
0.00000000000000000e+00  3.00000000000000006e-03  4.76909699999999992e-02
0.00000000000000000e+00  3.00000000000000006e-03  4.46140500000000023e-02
0.00000000000000000e+00  2.99999699999999991e-03  5.99834799999999987e-02
0.00000000000000000e+00  2.99999699999999991e-03  5.69065600000000019e-02
0.00000000000000000e+00  2.99999900000000016e-03  7.21017199999999941e-02
0.00000000000000000e+00  2.99999900000000016e-03  6.90247900000000025e-02
0.00000000000000000e+00  3.00000000000000006e-03  7.78286700000000026e-02
0.00000000000000000e+00  3.00000000000000006e-03  7.47517500000000057e-02
0.00000000000000000e+00  5.99999899999999978e-03  7.30073100000000058e-02
0.00000000000000000e+00  6.00000000000000012e-03  7.78286700000000026e-02
0.00000000000000000e+00  8.99999999999999932e-03  7.47517500000000057e-02
0.00000000000000000e+00  8.99999999999999932e-03  7.78286700000000026e-02
0.00000000000000000e+00  8.99999999999999932e-03  3.07692300000000007e-03
0.00000000000000000e+00  8.99999999999999932e-03  7.41712199999999995e-03
0.00000000000000000e+00  8.99999999999999932e-03  1.04940499999999996e-02
0.00000000000000000e+00  8.99999999999999932e-03  1.99814599999999995e-02
0.00000000000000000e+00  8.99999999999999932e-03  2.30583799999999998e-02
0.00000000000000000e+00  8.99999899999999985e-03  3.23062400000000000e-02
0.00000000000000000e+00  8.99999899999999985e-03  3.53831699999999985e-02
0.00000000000000000e+00  8.99999999999999932e-03  4.46140500000000023e-02
0.00000000000000000e+00  8.99999999999999932e-03  4.76909699999999992e-02
0.00000000000000000e+00  8.99999699999999916e-03  5.69065600000000019e-02
0.00000000000000000e+00  8.99999699999999916e-03  5.99834799999999987e-02
0.00000000000000000e+00  8.99999899999999985e-03  6.90247900000000025e-02
0.00000000000000000e+00  8.99999899999999985e-03  7.21017199999999941e-02
0.00000000000000000e+00  6.00000000000000012e-03  4.34019900000000031e-03
0.00000000000000000e+00  3.00000000000000006e-03  1.37767800000000006e-02
0.00000000000000000e+00  6.00000000000000012e-03  1.19631300000000006e-02
0.00000000000000000e+00  3.00000000000000006e-03  1.68536999999999992e-02
0.00000000000000000e+00  6.00000000000000012e-03  1.83736200000000002e-02
0.00000000000000000e+00  5.99999800000000031e-03  3.07627299999999985e-02
0.00000000000000000e+00  3.00000000000000006e-03  2.92257200000000002e-02
0.00000000000000000e+00  3.00000000000000006e-03  2.61487999999999998e-02
0.00000000000000000e+00  8.99999999999999932e-03  2.92257200000000002e-02
0.00000000000000000e+00  6.00000000000000012e-03  4.30748800000000029e-02
0.00000000000000000e+00  2.99999900000000016e-03  4.15377600000000000e-02
0.00000000000000000e+00  2.99999900000000016e-03  3.84608300000000014e-02
0.00000000000000000e+00  8.99999899999999985e-03  4.15377600000000000e-02
0.00000000000000000e+00  5.99999599999999963e-03  5.53635499999999975e-02
0.00000000000000000e+00  2.99999900000000016e-03  5.38416099999999981e-02
0.00000000000000000e+00  2.99999900000000016e-03  5.07646799999999995e-02
0.00000000000000000e+00  8.99999899999999985e-03  5.38416099999999981e-02
0.00000000000000000e+00  5.99999800000000031e-03  6.74268199999999984e-02
0.00000000000000000e+00  2.99999900000000016e-03  6.60943300000000067e-02
0.00000000000000000e+00  2.99999900000000016e-03  6.30174099999999959e-02
0.00000000000000000e+00  8.99999899999999985e-03  6.60943300000000067e-02
0.00000000000000000e+00  5.99999899999999978e-03  4.92248900000000003e-02
0.00000000000000000e+00  8.99999999999999932e-03  1.68536999999999992e-02
0.00000000000000000e+00  5.99999899999999978e-03  2.45917899999999988e-02
0.00000000000000000e+00  8.99999999999999932e-03  2.61487999999999998e-02
0.00000000000000000e+00  8.99999999999999932e-03  1.37767800000000006e-02
0.00000000000000000e+00  5.99999800000000031e-03  3.69209200000000029e-02
0.00000000000000000e+00  8.99999899999999985e-03  3.84608300000000014e-02
0.00000000000000000e+00  8.99999899999999985e-03  5.07646799999999995e-02
0.00000000000000000e+00  5.99999599999999963e-03  6.14624299999999985e-02
0.00000000000000000e+00  8.99999899999999985e-03  6.30174099999999959e-02
1.20000000000000002e-02  1.20000000000000002e-02  8.00000000000000017e-02
0.00000000000000000e+00  0.00000000000000000e+00  8.00000000000000017e-02
1.20000000000000002e-02  6.00000000000000012e-03  0.00000000000000000e+00
1.20000000000000002e-02  3.00000000000000006e-03  0.00000000000000000e+00
1.20000000000000002e-02  8.99999999999999932e-03  0.00000000000000000e+00
1.20000000000000002e-02  0.00000000000000000e+00  8.00000000000000017e-02
1.20000000000000002e-02  0.00000000000000000e+00  0.00000000000000000e+00
0.00000000000000000e+00  1.20000000000000002e-02  0.00000000000000000e+00
1.20000000000000002e-02  5.99999899999999978e-03  8.68039699999999942e-03
1.20000000000000002e-02  5.99999899999999978e-03  1.52458600000000000e-02
1.20000000000000002e-02  5.99999899999999978e-03  2.15013699999999988e-02
1.20000000000000002e-02  6.00000000000000012e-03  2.76822099999999988e-02
1.20000000000000002e-02  5.99999899999999978e-03  3.38432399999999967e-02
1.20000000000000002e-02  5.99999800000000031e-03  3.99985900000000005e-02
1.20000000000000002e-02  5.99999699999999997e-03  4.61511800000000000e-02
1.20000000000000002e-02  5.99999300000000034e-03  5.22986100000000023e-02
1.20000000000000002e-02  5.99998599999999969e-03  5.84285400000000010e-02
1.20000000000000002e-02  5.99997800000000043e-03  6.44963800000000059e-02
1.20000000000000002e-02  5.99997500000000027e-03  7.03572999999999976e-02
1.20000000000000002e-02  5.99997500000000027e-03  7.56573600000000068e-02
1.20000000000000002e-02  3.00000000000000006e-03  3.07692300000000007e-03
1.20000000000000002e-02  3.00000000000000006e-03  7.41712099999999961e-03
1.20000000000000002e-02  3.00000000000000006e-03  1.04940399999999996e-02
1.20000000000000002e-02  2.99999900000000016e-03  1.37767800000000006e-02
1.20000000000000002e-02  2.99999900000000016e-03  1.68536999999999992e-02
1.20000000000000002e-02  5.99999899999999978e-03  1.19631300000000006e-02
1.20000000000000002e-02  3.00000000000000006e-03  1.99814500000000013e-02
1.20000000000000002e-02  3.00000000000000006e-03  2.30583799999999998e-02
1.20000000000000002e-02  5.99999899999999978e-03  1.83736099999999986e-02
1.20000000000000002e-02  3.00000000000000006e-03  2.61487999999999998e-02
1.20000000000000002e-02  3.00000000000000006e-03  2.92257200000000002e-02
1.20000000000000002e-02  5.99999899999999978e-03  2.45917899999999988e-02
1.20000000000000002e-02  3.00000000000000006e-03  3.23062299999999983e-02
1.20000000000000002e-02  3.00000000000000006e-03  3.53831599999999968e-02
1.20000000000000002e-02  5.99999899999999978e-03  3.07627200000000003e-02
1.20000000000000002e-02  2.99999900000000016e-03  3.84608300000000014e-02
1.20000000000000002e-02  2.99999900000000016e-03  4.15377499999999983e-02
1.20000000000000002e-02  5.99999899999999978e-03  3.69209100000000012e-02
1.20000000000000002e-02  2.99999799999999981e-03  4.46140500000000023e-02
1.20000000000000002e-02  2.99999799999999981e-03  4.76909800000000009e-02
1.20000000000000002e-02  5.99999800000000031e-03  4.30748800000000029e-02
1.20000000000000002e-02  2.99999699999999991e-03  5.07646900000000012e-02
1.20000000000000002e-02  2.99999699999999991e-03  5.38416099999999981e-02
1.20000000000000002e-02  5.99999500000000015e-03  4.92249000000000020e-02
1.20000000000000002e-02  2.99999299999999984e-03  5.69065799999999983e-02
1.20000000000000002e-02  2.99999299999999984e-03  5.99835000000000021e-02
1.20000000000000002e-02  5.99999000000000018e-03  5.53635800000000025e-02
1.20000000000000002e-02  2.99998900000000021e-03  6.30174200000000045e-02
1.20000000000000002e-02  2.99998900000000021e-03  6.60943499999999962e-02
1.20000000000000002e-02  5.99998200000000006e-03  6.14624599999999965e-02
1.20000000000000002e-02  2.99998799999999987e-03  6.90248100000000059e-02
1.20000000000000002e-02  2.99998799999999987e-03  7.21017300000000028e-02
1.20000000000000002e-02  5.99997700000000009e-03  6.74268400000000018e-02
1.20000000000000002e-02  2.99998699999999997e-03  7.47517600000000004e-02
1.20000000000000002e-02  2.99998699999999997e-03  7.78286799999999973e-02
1.20000000000000002e-02  5.99998700000000003e-03  7.78286799999999973e-02
1.20000000000000002e-02  5.99997500000000027e-03  7.30073299999999953e-02
1.20000000000000002e-02  8.99998699999999922e-03  7.78286799999999973e-02
1.20000000000000002e-02  8.99999999999999932e-03  3.07692300000000007e-03
[...]
POINT_DATA 281

SCALARS Rank unsigned_int
LOOKUP_TABLE default
0 0 0 0 0 0 0 0 0 0 0 0 0 0 0 0 0 0 0 0 0 0 0 0 0 0 0 0 0 0 0 0 0 0 0 0 0 0 0 0 0 0 0 0 0 0 0 0 0 0 0 0 0 0 0 0 0 0 0 0 0 0 0 0 0 0 0 0 0 0 0 0 0 0 0 0 0 0 0 0 0 0 0 0 0 0 0 0 0 0 0 0 0 0 0 0 0 0 0 0 0 0 0 0 0 0 0 0 0 0 0 0 0 0 0 0 0 0 0 0 0 0 0 0 0 0 0 0 0 0 0 0 0 0 0 0 0 0 0 0 0 0 0 0 0 0 0 0 0 0 0 0 0 0 0 0 0 0 0 0 0 0 0 0 0 0 0 0 0 0 0 0 0 0 0 0 0 0 0 0 0 0 0 0 0 0 0 0 0 0 0 0 0 0 0 0 0 0 0 0 0 0 0 0 0 0 0 0 0 0 0 0 0 0 0 0 0 0 0 0 0 0 0 0 0 0 0 0 0 0 0 0 0 0 0 0 0 0 0 0 0 0 0 0 0 0 0 0 0 0 0 0 0 0 0 0 0 0 0 0 0 0 0 0 0 0 0 0 0 0 0 0 0 0 0 0 0 0 0 0 0 

VECTORS Forces0 double
2.85277604384149925e-05 0.00000000000000000e+00 3.55181346871026632e-07 
2.64882064469163090e-05 0.00000000000000000e+00 -2.52585120948590074e-07 
1.98364206527167011e-05 0.00000000000000000e+00 1.85686264821314794e-07 
1.28380886037941029e-05 0.00000000000000000e+00 -1.32242709062850167e-07 
6.94664589091570184e-06 0.00000000000000000e+00 1.78621973473924944e-07 
2.20245315969154195e-06 0.00000000000000000e+00 -3.92570094972614844e-07 
5.55573880106621474e-07 0.00000000000000000e+00 -1.07268168418534305e-06 
2.83113682931570735e-05 0.00000000000000000e+00 8.13827260811207890e-08 
2.35271919542905264e-05 0.00000000000000000e+00 -2.05586498343787782e-07 
1.61833268120676906e-05 0.00000000000000000e+00 3.35221046054934311e-07 
9.80408791643629531e-06 0.00000000000000000e+00 -4.97563331586225656e-07 
4.38454926672720817e-06 0.00000000000000000e+00 8.21950495400998970e-07 
2.70736637755355197e-05 0.00000000000000000e+00 2.98516475202542585e-08 
2.88389683086934889e-05 0.00000000000000000e+00 3.22948141964391953e-07 
2.83115307994368788e-05 0.00000000000000000e+00 3.43774534449159175e-07 
2.56829081458866118e-05 0.00000000000000000e+00 -2.84276340831118164e-07 
2.72049759161786586e-05 0.00000000000000000e+00 -1.96025976093945036e-07 
1.90352726297768336e-05 0.00000000000000000e+00 2.72937953156241732e-07 
2.06870951332110083e-05 0.00000000000000000e+00 8.25615503177995659e-08 
1.19884058207055206e-05 0.00000000000000000e+00 -2.84453134901060754e-07 
1.37374490518672009e-05 0.00000000000000000e+00 2.36626286153946540e-08 
6.31774486237618680e-06 0.00000000000000000e+00 4.47210727713018183e-07 
7.58414335289219216e-06 0.00000000000000000e+00 -7.66869326262749542e-08 
1.60008483137409662e-06 0.00000000000000000e+00 -8.77195885586167706e-07 
2.69168000166066768e-06 0.00000000000000000e+00 1.31226832875329020e-08 
5.27476688592141581e-08 0.00000000000000000e+00 -4.06630091617437674e-07 
7.95379786156574236e-07 0.00000000000000000e+00 -1.16979996479500997e-06 
1.30904725133593207e-06 0.00000000000000000e+00 -1.05847152853912817e-06 
5.27476688727378862e-08 0.00000000000000000e+00 -4.06630091639486788e-07 
7.95379786151553025e-07 0.00000000000000000e+00 -1.16979996480027343e-06 
5.27476688681063100e-08 0.00000000000000000e+00 -4.06630091639200491e-07 
2.70736637755372510e-05 0.00000000000000000e+00 2.98516474972551964e-08 
2.83115307994423303e-05 0.00000000000000000e+00 3.43774534369029011e-07 
2.88389683086932551e-05 0.00000000000000000e+00 3.22948141922635346e-07 
2.72049759161778319e-05 0.00000000000000000e+00 -1.96025976125111084e-07 
2.56829081458789479e-05 0.00000000000000000e+00 -2.84276340822850276e-07 
2.06870951332088433e-05 0.00000000000000000e+00 8.25615503376373951e-08 
1.90352726297755631e-05 0.00000000000000000e+00 2.72937953170467968e-07 
1.37374490518680988e-05 0.00000000000000000e+00 2.36626286204311119e-08 
1.19884058207073299e-05 0.00000000000000000e+00 -2.84453134926438285e-07 
7.58414335289378374e-06 0.00000000000000000e+00 -7.66869326002706192e-08 
6.31774486236760212e-06 0.00000000000000000e+00 4.47210727703125844e-07 
2.69168000165866190e-06 0.00000000000000000e+00 1.31226832730128514e-08 
1.60008483137600837e-06 0.00000000000000000e+00 -8.77195885622097573e-07 
2.76782308089349578e-05 0.00000000000000000e+00 1.69434847337147815e-07 
2.86681993800607984e-05 0.00000000000000000e+00 1.70396229926832553e-07 
2.89754185777711714e-05 0.00000000000000000e+00 2.65041604308701731e-07 
2.79461047343379115e-05 0.00000000000000000e+00 -2.03608908101105999e-08 
2.76217132373615041e-05 0.00000000000000000e+00 -1.12512812130926269e-07 
2.16205040649260428e-05 0.00000000000000000e+00 -2.48666621788189139e-08 
2.26119516033590975e-05 0.00000000000000000e+00 -1.23940043203024117e-07 
2.42246979425469409e-05 0.00000000000000000e+00 -2.60489030841746086e-07 
2.26119516033594532e-05 0.00000000000000000e+00 -1.23940043233419047e-07 
1.45572226126593902e-05 0.00000000000000000e+00 1.63106557996638488e-07 
1.53374447596296133e-05 0.00000000000000000e+00 2.69323474331665208e-07 
1.71204332548327555e-05 0.00000000000000000e+00 3.55399827673722463e-07 
1.53374447596270925e-05 0.00000000000000000e+00 2.69323474334494722e-07 
8.28068108860447594e-06 0.00000000000000000e+00 -2.91242874693787908e-07 
9.02509210275442317e-06 0.00000000000000000e+00 -4.32556958485147471e-07 
1.05092506109500056e-05 0.00000000000000000e+00 -4.85812475092658111e-07 
9.02509210275751484e-06 0.00000000000000000e+00 -4.32556958467298793e-07 
3.28200452137206501e-06 0.00000000000000000e+00 4.37781034007970036e-07 
3.77040099737961820e-06 0.00000000000000000e+00 6.80068799398983923e-07 
4.99310122708978295e-06 0.00000000000000000e+00 8.03740416701375146e-07 
3.77040099737595309e-06 0.00000000000000000e+00 6.80068799408209806e-07 
1.12154316007298210e-05 0.00000000000000000e+00 -4.09486813965089729e-07 
2.79461047343393142e-05 0.00000000000000000e+00 -2.03608908098952418e-08 
2.49272355190877634e-05 0.00000000000000000e+00 -2.87523645254416891e-07 
2.42246979425505188e-05 0.00000000000000000e+00 -2.60489030843956524e-07 
2.86681993800607713e-05 0.00000000000000000e+00 1.70396229928413222e-07 
1.81151867154064640e-05 0.00000000000000000e+00 3.32925850829582730e-07 
1.71204332548306684e-05 0.00000000000000000e+00 3.55399827666004722e-07 
1.05092506109455908e-05 0.00000000000000000e+00 -4.85812475093170142e-07 
5.66695399137898095e-06 0.00000000000000000e+00 6.63378891360779022e-07 
4.99310122709306859e-06 0.00000000000000000e+00 8.03740416693553009e-07 
2.38664422981241045e-06 0.00000000000000000e+00 1.28491847669353985e-06 
-3.38248347038085765e-07 0.00000000000000000e+00 1.29474763727404690e-06 
-5.96884548945248762e-07 0.00000000000000000e+00 -5.07171767157132300e-07 
-5.96884548948735150e-07 0.00000000000000000e+00 -5.07171767191588859e-07 
-5.96884548945787475e-07 0.00000000000000000e+00 -5.07171767150288274e-07 
2.38664422982082996e-06 0.00000000000000000e+00 1.28491847662555106e-06 
-5.96884548952152081e-07 0.00000000000000000e+00 -5.07171767163702946e-07 
2.52196913517296729e-05 0.00000000000000000e+00 -5.07307279862825914e-07 
4.52803794051043572e-09 0.00000000000000000e+00 3.60421651871534382e-07 
5.06162486563067579e-07 0.00000000000000000e+00 8.69970563044489722e-08 
8.22213471217911289e-07 0.00000000000000000e+00 -2.46465858085460032e-07 
1.06824250760459807e-06 0.00000000000000000e+00 -2.01514658647669918e-07 
1.38875305819621446e-06 0.00000000000000000e+00 1.86532176169458598e-07 
1.92073899647885916e-06 0.00000000000000000e+00 3.33989449834596546e-07 
2.69718823947969042e-06 0.00000000000000000e+00 -1.37340820203374484e-07 
3.60856283444945191e-06 0.00000000000000000e+00 -5.09822428361073643e-07 
4.38357575219488616e-06 0.00000000000000000e+00 1.63610245313981729e-07 
4.76342071031334369e-06 0.00000000000000000e+00 8.05752657616424074e-07 
4.54918819984161836e-06 0.00000000000000000e+00 -4.16067462269338264e-07 
3.70284835734580492e-06 0.00000000000000000e+00 -1.10535499036463289e-06 
-4.59768322615864786e-07 0.00000000000000000e+00 3.42812623884394084e-08 
-1.05254107913471288e-07 0.00000000000000000e+00 3.48565099882332529e-07 
1.59434907673733108e-07 0.00000000000000000e+00 3.30089558755093660e-07 
4.10081980425191864e-07 0.00000000000000000e+00 1.77375162653893597e-07 
6.03437655605833459e-07 0.00000000000000000e+00 -1.49821013759772761e-08 
2.77371633566909777e-07 0.00000000000000000e+00 2.73652833942384106e-07 
7.63640699596623031e-07 0.00000000000000000e+00 -1.88681542179619108e-07 
8.79433587513595221e-07 0.00000000000000000e+00 -2.79579732665332998e-07 
6.85629823839571459e-07 0.00000000000000000e+00 -1.06276333399027873e-07 
1.00142234070284506e-06 0.00000000000000000e+00 -2.56653674833907058e-07 
1.13109012091163891e-06 0.00000000000000000e+00 -1.20334567639186669e-07 
9.36728227633154665e-07 0.00000000000000000e+00 -2.83624464597505923e-07 
1.28432721624893597e-06 0.00000000000000000e+00 8.43717141952435602e-08 
1.51199755066741886e-06 0.00000000000000000e+00 2.72829916314808426e-07 
1.19857102161706484e-06 0.00000000000000000e+00 -2.21299554892545013e-08 
1.76721178674747775e-06 0.00000000000000000e+00 3.54894192170528838e-07 
2.10097527463249239e-06 0.00000000000000000e+00 2.66453276955565429e-07 
1.63551156976744254e-06 0.00000000000000000e+00 3.32524282419023583e-07 
2.50303545233001957e-06 0.00000000000000000e+00 1.77155441067611492e-08 
2.90775197010243167e-06 0.00000000000000000e+00 -2.89746428545830331e-07 
2.30129729964726059e-06 0.00000000000000000e+00 1.58080021145937762e-07 
3.37742237269672515e-06 0.00000000000000000e+00 -4.96071423598858218e-07 
3.80775737962373968e-06 0.00000000000000000e+00 -4.43126717737793041e-07 
3.13553455513028592e-06 0.00000000000000000e+00 -4.16547009503411755e-07 
4.19494933342916235e-06 0.00000000000000000e+00 -8.79856029305471170e-08 
4.55172886695747447e-06 0.00000000000000000e+00 4.28303122447656476e-07 
3.99918387467331700e-06 0.00000000000000000e+00 -3.00922985072487226e-07 
4.71713900830255441e-06 0.00000000000000000e+00 7.88574581395973365e-07 
4.79016495463643687e-06 0.00000000000000000e+00 6.59203667196378912e-07 
4.64853722752980480e-06 0.00000000000000000e+00 6.46466505167885760e-07 
4.68721034848789060e-06 0.00000000000000000e+00 -1.29837130744891463e-08 
4.32392128705723321e-06 0.00000000000000000e+00 -9.00291595620736011e-07 
4.78158677506418570e-06 0.00000000000000000e+00 4.11930071310112900e-07 
3.88968371566961058e-06 0.00000000000000000e+00 -1.20007843813195236e-06 
3.09895368737514171e-06 0.00000000000000000e+00 -4.28894094999896771e-07 
3.09895368737085149e-06 0.00000000000000000e+00 -4.28894094952591675e-07 
4.18947662299587567e-06 0.00000000000000000e+00 -1.08321360171702626e-06 
3.09895368736649265e-06 0.00000000000000000e+00 -4.28894095017750531e-07 
-4.59768322619473147e-07 0.00000000000000000e+00 3.42812624395003545e-08 
1.59434907679514955e-07 0.00000000000000000e+00 3.30089558764173853e-07 
-1.05254107916937347e-07 0.00000000000000000e+00 3.48565099908787274e-07 
6.03437655595315004e-07 0.00000000000000000e+00 -1.49821013219486443e-08 
4.10081980426763957e-07 0.00000000000000000e+00 1.77375162627698679e-07 
8.79433587515674687e-07 0.00000000000000000e+00 -2.79579732664733511e-07 
7.63640699590534558e-07 0.00000000000000000e+00 -1.88681542143486165e-07 
1.13109012090868446e-06 0.00000000000000000e+00 -1.20334567603990544e-07 
1.00142234069875474e-06 0.00000000000000000e+00 -2.56653674863095179e-07 
1.51199755066905152e-06 0.00000000000000000e+00 2.72829916301244252e-07 
1.28432721625223093e-06 0.00000000000000000e+00 8.43717142144657024e-08 
2.10097527463073903e-06 0.00000000000000000e+00 2.66453276936021467e-07 
1.76721178674812361e-06 0.00000000000000000e+00 3.54894192187615928e-07 
2.90775197010116917e-06 0.00000000000000000e+00 -2.89746428536372784e-07 
2.50303545233318874e-06 0.00000000000000000e+00 1.77155441413648274e-08 
3.80775737962848899e-06 0.00000000000000000e+00 -4.43126717715887181e-07 
3.37742237269228585e-06 0.00000000000000000e+00 -4.96071423587513058e-07 
4.55172886696278368e-06 0.00000000000000000e+00 4.28303122438793758e-07 
4.19494933342639763e-06 0.00000000000000000e+00 -8.79856029327750254e-08 
4.79016495463558137e-06 0.00000000000000000e+00 6.59203667139164378e-07 
4.71713900830333537e-06 0.00000000000000000e+00 7.88574581356067525e-07 
4.32392128705118032e-06 0.00000000000000000e+00 -9.00291595641676148e-07 
4.68721034848493954e-06 0.00000000000000000e+00 -1.29837130900300833e-08 
-3.66368265369449643e-07 0.00000000000000000e+00 1.75131898508692634e-07 
3.88968371565861863e-06 0.00000000000000000e+00 -1.20007843812214054e-06 
-3.38248347042354811e-07 0.00000000000000000e+00 1.29474763728102137e-06 
2.80962079496430568e-05 0.00000000000000000e+00 2.99089369611696120e-07 
2.89481814013278152e-05 0.00000000000000000e+00 2.48759658284387225e-07 
2.76025723645211361e-05 0.00000000000000000e+00 -1.17539976048284449e-07 
2.49161409135933176e-05 0.00000000000000000e+00 -2.87342721924529793e-07 
2.16164021586215331e-05 0.00000000000000000e+00 -2.44236605088121141e-08 
1.81137835986033366e-05 0.00000000000000000e+00 3.32985466282369216e-07 
1.45562060276993557e-05 0.00000000000000000e+00 1.62941408988876529e-07 
1.12126190655937032e-05 0.00000000000000000e+00 -4.09883797365994861e-07 
8.27075051630692592e-06 0.00000000000000000e+00 -2.88760281108965031e-07 
5.63333029427401507e-06 0.00000000000000000e+00 6.72629144911870329e-07 
3.18570859976147014e-06 0.00000000000000000e+00 3.76700309420558305e-07 
1.05363449684572126e-06 0.00000000000000000e+00 -1.15873135926882089e-06 
2.70736637755313964e-05 0.00000000000000000e+00 2.98516475230153741e-08 
2.86238525032791954e-05 0.00000000000000000e+00 3.50957780359189411e-07 
2.82780289337186032e-05 0.00000000000000000e+00 7.26611571067716844e-08 
2.64690413094604912e-05 0.00000000000000000e+00 -2.53659358085883433e-07 
2.35222229582820987e-05 0.00000000000000000e+00 -2.05134678982175876e-07 
1.98348860495272400e-05 0.00000000000000000e+00 1.85869229148929851e-07 
1.61825091917656852e-05 0.00000000000000000e+00 3.35181424651101936e-07 
1.28365548959146825e-05 0.00000000000000000e+00 -1.32516076512922473e-07 
9.79956776743997329e-06 0.00000000000000000e+00 -4.97416186809295351e-07 
6.93324402848103849e-06 0.00000000000000000e+00 1.84392977701091260e-07 
4.33725064614714219e-06 0.00000000000000000e+00 8.17391942850274112e-07 
2.05548242231002934e-06 0.00000000000000000e+00 -5.15886468671530521e-07 
2.49102972035439814e-07 0.00000000000000000e+00 -7.86817900546761097e-07 
1.52819590259244449e-07 0.00000000000000000e+00 1.85306964025989012e-05 
1.52819590251207800e-07 0.00000000000000000e+00 1.85306964025997143e-05 
1.84493912296595695e-06 0.00000000000000000e+00 1.85267142601637286e-05 
1.84493912296141516e-06 0.00000000000000000e+00 1.85267142601455885e-05 
9.89107446419499732e-07 0.00000000000000000e+00 3.31396466951463766e-05 
9.89107446416682500e-07 0.00000000000000000e+00 3.31396466951629649e-05 
1.52819590261960036e-07 0.00000000000000000e+00 1.85306964025663141e-05 
1.84493912295956863e-06 0.00000000000000000e+00 1.85267142601161321e-05 
2.38664422981251210e-06 0.00000000000000000e+00 1.28491847662683940e-06 
2.38664422981658802e-06 0.00000000000000000e+00 1.28491847664010055e-06 
2.38664422981449077e-06 0.00000000000000000e+00 1.28491847666136361e-06 
-3.38248347045920820e-07 0.00000000000000000e+00 1.29474763727163116e-06 
-3.38248347047372634e-07 0.00000000000000000e+00 1.29474763725883757e-06 
-3.38248347038261948e-07 0.00000000000000000e+00 1.29474763727124830e-06 
-2.14513148047498819e-07 0.00000000000000000e+00 3.04140780673363763e-07 
3.03528022507173197e-07 0.00000000000000000e+00 2.57256969563845407e-07 
6.90142786973299043e-07 0.00000000000000000e+00 -1.11232634539412018e-07 
9.37653523332518669e-07 0.00000000000000000e+00 -2.83449823930377237e-07 
1.19889050234979510e-06 0.00000000000000000e+00 -2.16901358945546068e-08 
1.63568469976285666e-06 0.00000000000000000e+00 3.32584236835738337e-07 
2.30157215288253454e-06 0.00000000000000000e+00 1.57912021444435688e-07 
3.13643812297231014e-06 0.00000000000000000e+00 -4.16953387490773314e-07 
4.00184229484359046e-06 0.00000000000000000e+00 -2.98447588265447064e-07 
4.65246484884473865e-06 0.00000000000000000e+00 6.55847942459848773e-07 
4.77426072874155111e-06 0.00000000000000000e+00 3.50061770025289824e-07 
4.05311025596377000e-06 0.00000000000000000e+00 -1.18586824177330216e-06 
-4.59768322622756246e-07 0.00000000000000000e+00 3.42812624705690994e-08 
5.17859871881221303e-08 0.00000000000000000e+00 3.56631462192639056e-07 
5.14828604946335520e-07 0.00000000000000000e+00 7.81963028503665690e-08 
8.23570085037169552e-07 0.00000000000000000e+00 -2.47578708205925961e-07 
1.06868381524845327e-06 0.00000000000000000e+00 -2.01062101206929752e-07 
1.38897024306967938e-06 0.00000000000000000e+00 1.86713888505818990e-07 
1.92089201483536183e-06 0.00000000000000000e+00 3.33948739286967696e-07 
2.69753685284051319e-06 0.00000000000000000e+00 -1.37613263095780372e-07 
3.60979239983501800e-06 0.00000000000000000e+00 -5.09670052439705034e-07 
4.38751684250735900e-06 0.00000000000000000e+00 1.69279292376203480e-07 
4.76635051445312924e-06 0.00000000000000000e+00 8.00968616096030045e-07 
4.50008676732760045e-06 0.00000000000000000e+00 -5.38855019082017492e-07 
3.37234267768275938e-06 0.00000000000000000e+00 -8.15115723352265127e-07 
2.52196913517407047e-05 0.00000000000000000e+00 -5.07307279833344508e-07 
2.52196913517410028e-05 0.00000000000000000e+00 -5.07307279837793972e-07 
2.52196913517460308e-05 0.00000000000000000e+00 -5.07307279827728468e-07 
9.89107446420763505e-07 0.00000000000000000e+00 3.31396466951445809e-05 
1.52819590260340509e-07 0.00000000000000000e+00 1.85306964025922537e-05 
1.84493912296457290e-06 0.00000000000000000e+00 1.85267142601382092e-05 
-2.14513148052060939e-07 0.00000000000000000e+00 3.04140780662690407e-07 
3.03528022503744407e-07 0.00000000000000000e+00 2.57256969559337074e-07 
6.90142786970126057e-07 0.00000000000000000e+00 -1.11232634526945175e-07 
9.37653523334532066e-07 0.00000000000000000e+00 -2.83449823911756277e-07 
1.19889050235038040e-06 0.00000000000000000e+00 -2.16901359038391467e-08 
1.63568469976278805e-06 0.00000000000000000e+00 3.32584236842360652e-07 
2.30157215287975204e-06 0.00000000000000000e+00 1.57912021457333670e-07 
3.13643812297223856e-06 0.00000000000000000e+00 -4.16953387493535065e-07 
4.00184229484269175e-06 0.00000000000000000e+00 -2.98447588272685807e-07 
4.65246484884735852e-06 0.00000000000000000e+00 6.55847942473222576e-07 
4.77426072874557621e-06 0.00000000000000000e+00 3.50061769994899552e-07 
4.05311025597221069e-06 0.00000000000000000e+00 -1.18586824176786421e-06 
-4.59768322620218536e-07 0.00000000000000000e+00 3.42812624823196699e-08 
5.17859871913916775e-08 0.00000000000000000e+00 3.56631462200941355e-07 
5.14828604946317732e-07 0.00000000000000000e+00 7.81963028444326797e-08 
8.23570085033494276e-07 0.00000000000000000e+00 -2.47578708210775224e-07 
1.06868381525189392e-06 0.00000000000000000e+00 -2.01062101221136400e-07 
1.38897024307308233e-06 0.00000000000000000e+00 1.86713888521864970e-07 
1.92089201483567015e-06 0.00000000000000000e+00 3.33948739265517857e-07 
2.69753685284309876e-06 0.00000000000000000e+00 -1.37613263093352670e-07 
3.60979239983748202e-06 0.00000000000000000e+00 -5.09670052435861622e-07 
4.38751684250450280e-06 0.00000000000000000e+00 1.69279292391362829e-07 
4.76635051445264135e-06 0.00000000000000000e+00 8.00968616075659326e-07 
4.50008676733080986e-06 0.00000000000000000e+00 -5.38855019108413579e-07 
3.37234267767942631e-06 0.00000000000000000e+00 -8.15115723326767317e-07 
2.52196913517460376e-05 0.00000000000000000e+00 -5.07307279816025649e-07 
2.80962079496388318e-05 0.00000000000000000e+00 2.99089369617710265e-07 
2.89481814013248539e-05 0.00000000000000000e+00 2.48759658259851857e-07 
2.76025723645227556e-05 0.00000000000000000e+00 -1.17539976031931208e-07 
2.49161409136011069e-05 0.00000000000000000e+00 -2.87342721933484307e-07 
2.16164021586248569e-05 0.00000000000000000e+00 -2.44236605059755595e-08 
1.81137835986036144e-05 0.00000000000000000e+00 3.32985466276173064e-07 
1.45562060276989305e-05 0.00000000000000000e+00 1.62941409002033916e-07 
1.12126190655979333e-05 0.00000000000000000e+00 -4.09883797347075109e-07 