# vtk DataFile Version 2.0

ASCII

DATASET UNSTRUCTURED_GRID

POINTS 281 double 

0.00000000000000000e+00  6.00000000000000012e-03  8.68039800000000063e-03
0.00000000000000000e+00  6.00000000000000012e-03  2.15013699999999988e-02
0.00000000000000000e+00  5.99999699999999997e-03  3.38432499999999983e-02
0.00000000000000000e+00  6.00000000000000012e-03  4.61511800000000000e-02
0.00000000000000000e+00  5.99999399999999981e-03  5.84285100000000029e-02
0.00000000000000000e+00  5.99999899999999978e-03  7.03572799999999943e-02
0.00000000000000000e+00  6.00000000000000012e-03  7.56573400000000035e-02
0.00000000000000000e+00  6.00000000000000012e-03  1.52458600000000000e-02
0.00000000000000000e+00  5.99999899999999978e-03  2.76822099999999988e-02
0.00000000000000000e+00  5.99999899999999978e-03  3.99985900000000005e-02
0.00000000000000000e+00  5.99999800000000031e-03  5.22986000000000006e-02
0.00000000000000000e+00  5.99999800000000031e-03  6.44963600000000026e-02
0.00000000000000000e+00  3.00000000000000006e-03  3.07692300000000007e-03
0.00000000000000000e+00  3.00000000000000006e-03  1.04940499999999996e-02
0.00000000000000000e+00  3.00000000000000006e-03  7.41712199999999995e-03
0.00000000000000000e+00  3.00000000000000006e-03  2.30583799999999998e-02
0.00000000000000000e+00  3.00000000000000006e-03  1.99814599999999995e-02
0.00000000000000000e+00  2.99999900000000016e-03  3.53831699999999985e-02
0.00000000000000000e+00  2.99999900000000016e-03  3.23062400000000000e-02
0.00000000000000000e+00  3.00000000000000006e-03  4.76909699999999992e-02
0.00000000000000000e+00  3.00000000000000006e-03  4.46140500000000023e-02
0.00000000000000000e+00  2.99999699999999991e-03  5.99834799999999987e-02
0.00000000000000000e+00  2.99999699999999991e-03  5.69065600000000019e-02
0.00000000000000000e+00  2.99999900000000016e-03  7.21017199999999941e-02
0.00000000000000000e+00  2.99999900000000016e-03  6.90247900000000025e-02
0.00000000000000000e+00  3.00000000000000006e-03  7.78286700000000026e-02
0.00000000000000000e+00  3.00000000000000006e-03  7.47517500000000057e-02
0.00000000000000000e+00  5.99999899999999978e-03  7.30073100000000058e-02
0.00000000000000000e+00  6.00000000000000012e-03  7.78286700000000026e-02
0.00000000000000000e+00  8.99999999999999932e-03  7.47517500000000057e-02
0.00000000000000000e+00  8.99999999999999932e-03  7.78286700000000026e-02
0.00000000000000000e+00  8.99999999999999932e-03  3.07692300000000007e-03
0.00000000000000000e+00  8.99999999999999932e-03  7.41712199999999995e-03
0.00000000000000000e+00  8.99999999999999932e-03  1.04940499999999996e-02
0.00000000000000000e+00  8.99999999999999932e-03  1.99814599999999995e-02
0.00000000000000000e+00  8.99999999999999932e-03  2.30583799999999998e-02
0.00000000000000000e+00  8.99999899999999985e-03  3.23062400000000000e-02
0.00000000000000000e+00  8.99999899999999985e-03  3.53831699999999985e-02
0.00000000000000000e+00  8.99999999999999932e-03  4.46140500000000023e-02
0.00000000000000000e+00  8.99999999999999932e-03  4.76909699999999992e-02
0.00000000000000000e+00  8.99999699999999916e-03  5.69065600000000019e-02
0.00000000000000000e+00  8.99999699999999916e-03  5.99834799999999987e-02
0.00000000000000000e+00  8.99999899999999985e-03  6.90247900000000025e-02
0.00000000000000000e+00  8.99999899999999985e-03  7.21017199999999941e-02
0.00000000000000000e+00  6.00000000000000012e-03  4.34019900000000031e-03
0.00000000000000000e+00  3.00000000000000006e-03  1.37767800000000006e-02
0.00000000000000000e+00  6.00000000000000012e-03  1.19631300000000006e-02
0.00000000000000000e+00  3.00000000000000006e-03  1.68536999999999992e-02
0.00000000000000000e+00  6.00000000000000012e-03  1.83736200000000002e-02
0.00000000000000000e+00  5.99999800000000031e-03  3.07627299999999985e-02
0.00000000000000000e+00  3.00000000000000006e-03  2.92257200000000002e-02
0.00000000000000000e+00  3.00000000000000006e-03  2.61487999999999998e-02
0.00000000000000000e+00  8.99999999999999932e-03  2.92257200000000002e-02
0.00000000000000000e+00  6.00000000000000012e-03  4.30748800000000029e-02
0.00000000000000000e+00  2.99999900000000016e-03  4.15377600000000000e-02
0.00000000000000000e+00  2.99999900000000016e-03  3.84608300000000014e-02
0.00000000000000000e+00  8.99999899999999985e-03  4.15377600000000000e-02
0.00000000000000000e+00  5.99999599999999963e-03  5.53635499999999975e-02
0.00000000000000000e+00  2.99999900000000016e-03  5.38416099999999981e-02
0.00000000000000000e+00  2.99999900000000016e-03  5.07646799999999995e-02
0.00000000000000000e+00  8.99999899999999985e-03  5.38416099999999981e-02
0.00000000000000000e+00  5.99999800000000031e-03  6.74268199999999984e-02
0.00000000000000000e+00  2.99999900000000016e-03  6.60943300000000067e-02
0.00000000000000000e+00  2.99999900000000016e-03  6.30174099999999959e-02
0.00000000000000000e+00  8.99999899999999985e-03  6.60943300000000067e-02
0.00000000000000000e+00  5.99999899999999978e-03  4.92248900000000003e-02
0.00000000000000000e+00  8.99999999999999932e-03  1.68536999999999992e-02
0.00000000000000000e+00  5.99999899999999978e-03  2.45917899999999988e-02
0.00000000000000000e+00  8.99999999999999932e-03  2.61487999999999998e-02
0.00000000000000000e+00  8.99999999999999932e-03  1.37767800000000006e-02
0.00000000000000000e+00  5.99999800000000031e-03  3.69209200000000029e-02
0.00000000000000000e+00  8.99999899999999985e-03  3.84608300000000014e-02
0.00000000000000000e+00  8.99999899999999985e-03  5.07646799999999995e-02
0.00000000000000000e+00  5.99999599999999963e-03  6.14624299999999985e-02
0.00000000000000000e+00  8.99999899999999985e-03  6.30174099999999959e-02
1.20000000000000002e-02  1.20000000000000002e-02  8.00000000000000017e-02
0.00000000000000000e+00  0.00000000000000000e+00  8.00000000000000017e-02
1.20000000000000002e-02  6.00000000000000012e-03  0.00000000000000000e+00
1.20000000000000002e-02  3.00000000000000006e-03  0.00000000000000000e+00
1.20000000000000002e-02  8.99999999999999932e-03  0.00000000000000000e+00
1.20000000000000002e-02  0.00000000000000000e+00  8.00000000000000017e-02
1.20000000000000002e-02  0.00000000000000000e+00  0.00000000000000000e+00
0.00000000000000000e+00  1.20000000000000002e-02  0.00000000000000000e+00
1.20000000000000002e-02  5.99999899999999978e-03  8.68039699999999942e-03
1.20000000000000002e-02  5.99999899999999978e-03  1.52458600000000000e-02
1.20000000000000002e-02  5.99999899999999978e-03  2.15013699999999988e-02
1.20000000000000002e-02  6.00000000000000012e-03  2.76822099999999988e-02
1.20000000000000002e-02  5.99999899999999978e-03  3.38432399999999967e-02
1.20000000000000002e-02  5.99999800000000031e-03  3.99985900000000005e-02
1.20000000000000002e-02  5.99999699999999997e-03  4.61511800000000000e-02
1.20000000000000002e-02  5.99999300000000034e-03  5.22986100000000023e-02
1.20000000000000002e-02  5.99998599999999969e-03  5.84285400000000010e-02
1.20000000000000002e-02  5.99997800000000043e-03  6.44963800000000059e-02
1.20000000000000002e-02  5.99997500000000027e-03  7.03572999999999976e-02
1.20000000000000002e-02  5.99997500000000027e-03  7.56573600000000068e-02
1.20000000000000002e-02  3.00000000000000006e-03  3.07692300000000007e-03
1.20000000000000002e-02  3.00000000000000006e-03  7.41712099999999961e-03
1.20000000000000002e-02  3.00000000000000006e-03  1.04940399999999996e-02
1.20000000000000002e-02  2.99999900000000016e-03  1.37767800000000006e-02
1.20000000000000002e-02  2.99999900000000016e-03  1.68536999999999992e-02
1.20000000000000002e-02  5.99999899999999978e-03  1.19631300000000006e-02
1.20000000000000002e-02  3.00000000000000006e-03  1.99814500000000013e-02
1.20000000000000002e-02  3.00000000000000006e-03  2.30583799999999998e-02
1.20000000000000002e-02  5.99999899999999978e-03  1.83736099999999986e-02
1.20000000000000002e-02  3.00000000000000006e-03  2.61487999999999998e-02
1.20000000000000002e-02  3.00000000000000006e-03  2.92257200000000002e-02
1.20000000000000002e-02  5.99999899999999978e-03  2.45917899999999988e-02
1.20000000000000002e-02  3.00000000000000006e-03  3.23062299999999983e-02
1.20000000000000002e-02  3.00000000000000006e-03  3.53831599999999968e-02
1.20000000000000002e-02  5.99999899999999978e-03  3.07627200000000003e-02
1.20000000000000002e-02  2.99999900000000016e-03  3.84608300000000014e-02
1.20000000000000002e-02  2.99999900000000016e-03  4.15377499999999983e-02
1.20000000000000002e-02  5.99999899999999978e-03  3.69209100000000012e-02
1.20000000000000002e-02  2.99999799999999981e-03  4.46140500000000023e-02
1.20000000000000002e-02  2.99999799999999981e-03  4.76909800000000009e-02
1.20000000000000002e-02  5.99999800000000031e-03  4.30748800000000029e-02
1.20000000000000002e-02  2.99999699999999991e-03  5.07646900000000012e-02
1.20000000000000002e-02  2.99999699999999991e-03  5.38416099999999981e-02
1.20000000000000002e-02  5.99999500000000015e-03  4.92249000000000020e-02
1.20000000000000002e-02  2.99999299999999984e-03  5.69065799999999983e-02
1.20000000000000002e-02  2.99999299999999984e-03  5.99835000000000021e-02
1.20000000000000002e-02  5.99999000000000018e-03  5.53635800000000025e-02
1.20000000000000002e-02  2.99998900000000021e-03  6.30174200000000045e-02
1.20000000000000002e-02  2.99998900000000021e-03  6.60943499999999962e-02
1.20000000000000002e-02  5.99998200000000006e-03  6.14624599999999965e-02
1.20000000000000002e-02  2.99998799999999987e-03  6.90248100000000059e-02
1.20000000000000002e-02  2.99998799999999987e-03  7.21017300000000028e-02
1.20000000000000002e-02  5.99997700000000009e-03  6.74268400000000018e-02
1.20000000000000002e-02  2.99998699999999997e-03  7.47517600000000004e-02
1.20000000000000002e-02  2.99998699999999997e-03  7.78286799999999973e-02
1.20000000000000002e-02  5.99998700000000003e-03  7.78286799999999973e-02
1.20000000000000002e-02  5.99997500000000027e-03  7.30073299999999953e-02
1.20000000000000002e-02  8.99998699999999922e-03  7.78286799999999973e-02
1.20000000000000002e-02  8.99999999999999932e-03  3.07692300000000007e-03
[...]
POINT_DATA 281

SCALARS Rank unsigned_int
LOOKUP_TABLE default
0 0 0 0 0 0 0 0 0 0 0 0 0 0 0 0 0 0 0 0 0 0 0 0 0 0 0 0 0 0 0 0 0 0 0 0 0 0 0 0 0 0 0 0 0 0 0 0 0 0 0 0 0 0 0 0 0 0 0 0 0 0 0 0 0 0 0 0 0 0 0 0 0 0 0 0 0 0 0 0 0 0 0 0 0 0 0 0 0 0 0 0 0 0 0 0 0 0 0 0 0 0 0 0 0 0 0 0 0 0 0 0 0 0 0 0 0 0 0 0 0 0 0 0 0 0 0 0 0 0 0 0 0 0 0 0 0 0 0 0 0 0 0 0 0 0 0 0 0 0 0 0 0 0 0 0 0 0 0 0 0 0 0 0 0 0 0 0 0 0 0 0 0 0 0 0 0 0 0 0 0 0 0 0 0 0 0 0 0 0 0 0 0 0 0 0 0 0 0 0 0 0 0 0 0 0 0 0 0 0 0 0 0 0 0 0 0 0 0 0 0 0 0 0 0 0 0 0 0 0 0 0 0 0 0 0 0 0 0 0 0 0 0 0 0 0 0 0 0 0 0 0 0 0 0 0 0 0 0 0 0 0 0 0 0 0 0 0 0 0 0 0 0 0 0 0 0 0 0 0 0 

VECTORS Forces0 double
2.79045311080183336e-02 0.00000000000000000e+00 -6.28693483420729492e-04 
1.68707702980732191e-02 0.00000000000000000e+00 -1.72572521854073396e-04 
1.19197828357530690e-03 0.00000000000000000e+00 4.09278574875044534e-05 
-6.90634846779533294e-04 0.00000000000000000e+00 -1.76192109657473440e-06 
3.90713413823055207e-05 0.00000000000000000e+00 -1.21230584273792223e-06 
2.69409248456517914e-04 0.00000000000000000e+00 2.24538476868595221e-06 
2.52593869473029069e-04 0.00000000000000000e+00 7.21766248587205909e-06 
2.49061572730340380e-02 0.00000000000000000e+00 -4.49546065708867487e-04 
6.92072975310920307e-03 0.00000000000000000e+00 8.41005042782491778e-06 
-6.77803778625324848e-04 0.00000000000000000e+00 1.80628589829507182e-05 
-2.72581946417711383e-04 0.00000000000000000e+00 -5.31741423927192361e-06 
2.00778577890592565e-04 0.00000000000000000e+00 1.32417558294982559e-06 
2.53366776292182280e-02 0.00000000000000000e+00 -5.96352168383326893e-04 
2.83978263564203352e-02 0.00000000000000000e+00 -6.25972280333914532e-04 
2.76112561640617961e-02 0.00000000000000000e+00 -6.32566593494257308e-04 
1.39776303549280032e-02 0.00000000000000000e+00 -1.11291170878075052e-04 
1.95462179268637987e-02 0.00000000000000000e+00 -2.38071245433042208e-04 
4.60537357429712576e-04 0.00000000000000000e+00 3.76284710867182113e-05 
2.18488622055691174e-03 0.00000000000000000e+00 4.11691924138137487e-05 
-5.96683775887618889e-04 0.00000000000000000e+00 -4.09201020704404595e-06 
-7.59708235678771527e-04 0.00000000000000000e+00 1.72826058915288067e-06 
9.35540492654827582e-05 0.00000000000000000e+00 -2.06008930747675466e-07 
-2.35235728616071347e-05 0.00000000000000000e+00 -2.35055954262568882e-06 
2.73250815035844100e-04 0.00000000000000000e+00 3.17852472060665858e-06 
2.61221166138024302e-04 0.00000000000000000e+00 1.86877451273249216e-06 
2.16619702708761413e-04 0.00000000000000000e+00 1.11033382767041525e-05 
2.61897538017388321e-04 0.00000000000000000e+00 5.89290747520472369e-06 
2.71881113653714391e-04 0.00000000000000000e+00 3.91487292786861210e-06 
2.16619702702617890e-04 0.00000000000000000e+00 1.11033382764446419e-05 
2.61897538001405880e-04 0.00000000000000000e+00 5.89290747533789759e-06 
2.16619702708280895e-04 0.00000000000000000e+00 1.11033382763129520e-05 
2.53366776292184535e-02 0.00000000000000000e+00 -5.96352168382938749e-04 
2.76112561640609287e-02 0.00000000000000000e+00 -6.32566593494229444e-04 
2.83978263564245124e-02 0.00000000000000000e+00 -6.25972280334616878e-04 
1.95462179268583482e-02 0.00000000000000000e+00 -2.38071245433291466e-04 
1.39776303549162487e-02 0.00000000000000000e+00 -1.11291170878478307e-04 
2.18488622056015394e-03 0.00000000000000000e+00 4.11691924139656997e-05 
4.60537357431339313e-04 0.00000000000000000e+00 3.76284710862729972e-05 
-7.59708235674976169e-04 0.00000000000000000e+00 1.72826058889917736e-06 
-5.96683775888637389e-04 0.00000000000000000e+00 -4.09201020677227713e-06 
-2.35235728709633657e-05 0.00000000000000000e+00 -2.35055954243181992e-06 
9.35540492816774860e-05 0.00000000000000000e+00 -2.06008930716003210e-07 
2.61221166123911026e-04 0.00000000000000000e+00 1.86877451303221307e-06 
2.73250815037010702e-04 0.00000000000000000e+00 3.17852471963609435e-06 
2.67570014065781972e-02 0.00000000000000000e+00 -6.35939232673809877e-04 
2.66883151230824477e-02 0.00000000000000000e+00 -5.28568667902507808e-04 
2.84094474441963403e-02 0.00000000000000000e+00 -6.10129389400545824e-04 
2.30622587185144202e-02 0.00000000000000000e+00 -3.69090045150871626e-04 
2.14288865053622359e-02 0.00000000000000000e+00 -3.01988161997220810e-04 
3.47434742598897112e-03 0.00000000000000000e+00 3.70714013309828488e-05 
5.07156353003102457e-03 0.00000000000000000e+00 2.68969192037159557e-05 
8.94667228523119730e-03 0.00000000000000000e+00 -2.05536881841203784e-05 
5.07156353002920311e-03 0.00000000000000000e+00 2.68969192037129741e-05 
-7.99096006831598446e-04 0.00000000000000000e+00 6.20249499603522510e-06 
-7.82611219182516109e-04 0.00000000000000000e+00 1.16664591390819040e-05 
-4.51343526796859002e-04 0.00000000000000000e+00 2.50558660505166507e-05 
-7.82611219175179096e-04 0.00000000000000000e+00 1.16664591392975654e-05 
-9.68423847681383089e-05 0.00000000000000000e+00 -3.52260402612564288e-06 
-1.78739682421486478e-04 0.00000000000000000e+00 -4.55553776562752810e-06 
-3.78239221489992195e-04 0.00000000000000000e+00 -5.66344388150196792e-06 
-1.78739682412039390e-04 0.00000000000000000e+00 -4.55553776566254783e-06 
2.45308628830311461e-04 0.00000000000000000e+00 1.63852174937938084e-06 
2.27313292471238292e-04 0.00000000000000000e+00 1.50804855744799728e-06 
1.71689531601544024e-04 0.00000000000000000e+00 1.02467419550395962e-06 
2.27313292467742391e-04 0.00000000000000000e+00 1.50804855791620998e-06 
-4.89922485558944888e-04 0.00000000000000000e+00 -5.34000873152511143e-06 
2.30622587185148782e-02 0.00000000000000000e+00 -3.69090045151161217e-04 
1.13159510504089282e-02 0.00000000000000000e+00 -6.06737089178235260e-05 
8.94667228523421398e-03 0.00000000000000000e+00 -2.05536881838926146e-05 
2.66883151230748288e-02 0.00000000000000000e+00 -5.28568667902707084e-04 
-7.79455824474165369e-05 0.00000000000000000e+00 3.19738275848673148e-05 
-4.51343526798210785e-04 0.00000000000000000e+00 2.50558660506182133e-05 
-3.78239221493940209e-04 0.00000000000000000e+00 -5.66344388121623999e-06 
1.35183092402964061e-04 0.00000000000000000e+00 5.15237906219205060e-07 
1.71689531583745978e-04 0.00000000000000000e+00 1.02467419534763799e-06 
-5.69923222022039491e-04 0.00000000000000000e+00 1.60556372151059012e-05 
1.61831019359061069e-04 0.00000000000000000e+00 1.58825335921206919e-05 
-2.61872570461069848e-03 0.00000000000000000e+00 6.15554876671388785e-05 
-2.61872570464750064e-03 0.00000000000000000e+00 6.15554876667549354e-05 
-2.61872570462165326e-03 0.00000000000000000e+00 6.15554876669425295e-05 
-5.69923222040805513e-04 0.00000000000000000e+00 1.60556372152195053e-05 
-2.61872570461673879e-03 0.00000000000000000e+00 6.15554876670147374e-05 
2.08398425651464859e-02 0.00000000000000000e+00 -4.58899337060374374e-04 
6.38994054166298225e-04 0.00000000000000000e+00 -2.16971470766151275e-05 
1.35026821756502368e-03 0.00000000000000000e+00 -2.09112975539346135e-05 
5.63489094562552150e-04 0.00000000000000000e+00 5.49548374142789176e-06 
-4.77710912117119415e-04 0.00000000000000000e+00 1.40892719457339779e-05 
-7.35453278644045182e-04 0.00000000000000000e+00 6.15055039737462995e-07 
-2.52065676999772316e-04 0.00000000000000000e+00 -1.35228749930335662e-05 
3.25205281227961126e-04 0.00000000000000000e+00 -1.37940577532656864e-05 
5.61483109181583687e-04 0.00000000000000000e+00 -3.80329661033996415e-06 
4.56387548980884562e-04 0.00000000000000000e+00 4.85087075892777850e-06 
2.19163864960524810e-04 0.00000000000000000e+00 5.45064364308066717e-06 
-9.38330016453542708e-06 0.00000000000000000e+00 2.22609727445092839e-06 
-2.52603007002922175e-04 0.00000000000000000e+00 5.14908863170011965e-06 
-1.33145080234943025e-03 0.00000000000000000e+00 2.46308846635178733e-05 
2.86784947590425991e-04 0.00000000000000000e+00 -1.50146932062299116e-05 
1.02947873359948315e-03 0.00000000000000000e+00 -2.71797165605177243e-05 
1.35808649873381130e-03 0.00000000000000000e+00 -2.54955532789357508e-05 
1.24919372142050364e-03 0.00000000000000000e+00 -1.43547836330931046e-05 
1.23704832858544046e-03 0.00000000000000000e+00 -2.81231097396489018e-05 
8.32824533154280836e-04 0.00000000000000000e+00 -3.90805371567027605e-07 
2.71983058550527926e-04 0.00000000000000000e+00 1.02161248836941097e-05 
1.07619619827848583e-03 0.00000000000000000e+00 -7.48150686139526419e-06 
-2.67602404110252779e-04 0.00000000000000000e+00 1.45445546963460456e-05 
-6.33995517279986034e-04 0.00000000000000000e+00 1.21508212471434631e-05 
-9.38981022739531558e-06 0.00000000000000000e+00 1.32308754979578716e-05 
-7.60777557001960422e-04 0.00000000000000000e+00 5.00429002234672966e-06 
-6.62118557004705006e-04 0.00000000000000000e+00 -3.72302428722266874e-06 
-7.27557208466675441e-04 0.00000000000000000e+00 8.96941283397871302e-06 
-4.08652756742995432e-04 0.00000000000000000e+00 -1.10378559864563492e-05 
-9.25038774726233214e-05 0.00000000000000000e+00 -1.50106716117255148e-05 
-5.48424963880123225e-04 0.00000000000000000e+00 -7.72610290745047508e-06 
2.03277342579328971e-04 0.00000000000000000e+00 -1.50711656894880055e-05 
4.22442306075718459e-04 0.00000000000000000e+00 -1.18222961769939355e-05 
6.27612525547928250e-05 0.00000000000000000e+00 -1.55253185114184031e-05 
5.40141291204952788e-04 0.00000000000000000e+00 -6.62445897373981551e-06 
5.59776689586915567e-04 0.00000000000000000e+00 -1.08013347087094544e-06 
4.94633371341183137e-04 0.00000000000000000e+00 -9.37362672361741669e-06 
5.03376935787039912e-04 0.00000000000000000e+00 3.35671005879595415e-06 
4.00073742697363221e-04 0.00000000000000000e+00 5.79511159083353602e-06 
5.39671929609986025e-04 0.00000000000000000e+00 1.33368930366433227e-06 
2.79048743794873730e-04 0.00000000000000000e+00 6.00168337891725210e-06 
1.55662787389545859e-04 0.00000000000000000e+00 4.54974874862681121e-06 
3.42095809693915211e-04 0.00000000000000000e+00 6.15517561662660323e-06 
4.23815095654448928e-05 0.00000000000000000e+00 2.76616879193605172e-06 
-8.01782903403621349e-05 0.00000000000000000e+00 2.12278288633993401e-06 
1.03888481248607593e-04 0.00000000000000000e+00 3.70093417246292074e-06 
-2.03328220114290390e-04 0.00000000000000000e+00 3.89025728804315708e-06 
-3.92034355150962385e-04 0.00000000000000000e+00 9.54360948099445826e-06 
-3.92034355134282043e-04 0.00000000000000000e+00 9.54360948142762413e-06 
-1.19496286839445448e-04 0.00000000000000000e+00 2.43191758954342301e-06 
-3.92034355122984873e-04 0.00000000000000000e+00 9.54360948113438810e-06 
-1.33145080237315086e-03 0.00000000000000000e+00 2.46308846634502191e-05 
1.02947873361741238e-03 0.00000000000000000e+00 -2.71797165603726648e-05 
2.86784947594238913e-04 0.00000000000000000e+00 -1.50146932059759372e-05 
1.24919372141493431e-03 0.00000000000000000e+00 -1.43547836331952788e-05 
1.35808649873947820e-03 0.00000000000000000e+00 -2.54955532791185710e-05 
2.71983058537341696e-04 0.00000000000000000e+00 1.02161248838657236e-05 
8.32824533143415396e-04 0.00000000000000000e+00 -3.90805371464808516e-07 
-6.33995517279289109e-04 0.00000000000000000e+00 1.21508212470722243e-05 
-2.67602404110213747e-04 0.00000000000000000e+00 1.45445546963867540e-05 
-6.62118557004039306e-04 0.00000000000000000e+00 -3.72302428723512352e-06 
-7.60777557001003288e-04 0.00000000000000000e+00 5.00429002224488920e-06 
-9.25038774747899910e-05 0.00000000000000000e+00 -1.50106716115945296e-05 
-4.08652756743410899e-04 0.00000000000000000e+00 -1.10378559865553233e-05 
4.22442306071868241e-04 0.00000000000000000e+00 -1.18222961771766372e-05 
2.03277342583677923e-04 0.00000000000000000e+00 -1.50711656895457664e-05 
5.59776689589659032e-04 0.00000000000000000e+00 -1.08013347049361598e-06 
5.40141291209433579e-04 0.00000000000000000e+00 -6.62445897369566138e-06 
4.00073742688262862e-04 0.00000000000000000e+00 5.79511159072648461e-06 
5.03376935788412945e-04 0.00000000000000000e+00 3.35671005896316523e-06 
1.55662787389143403e-04 0.00000000000000000e+00 4.54974874846794849e-06 
2.79048743790389470e-04 0.00000000000000000e+00 6.00168337918538885e-06 
-8.01782903250406235e-05 0.00000000000000000e+00 2.12278288647037708e-06 
4.23815095698818817e-05 0.00000000000000000e+00 2.76616879224984694e-06 
-8.08647926513787903e-04 0.00000000000000000e+00 1.07467095190550066e-05 
-2.03328220102486464e-04 0.00000000000000000e+00 3.89025728751187091e-06 
1.61831019381922123e-04 0.00000000000000000e+00 1.58825335920210266e-05 
2.73732240996949414e-02 0.00000000000000000e+00 -6.38387698261069217e-04 
2.81956150882205006e-02 0.00000000000000000e+00 -5.98650321234666305e-04 
2.13349547212826687e-02 0.00000000000000000e+00 -2.98371086399091298e-04 
1.12773841439410827e-02 0.00000000000000000e+00 -5.99799231113490617e-05 
3.46824802458427879e-03 0.00000000000000000e+00 3.71002756194937678e-05 
-7.85869603387071936e-05 0.00000000000000000e+00 3.19646224200391144e-05 
-7.99072148708820603e-04 0.00000000000000000e+00 6.19594349146620158e-06 
-4.89499139980991002e-04 0.00000000000000000e+00 -5.34289398687721285e-06 
-9.57766022431606815e-05 0.00000000000000000e+00 -3.50710354416457680e-06 
1.37117884137952868e-04 0.00000000000000000e+00 5.45881457292512353e-07 
2.48415958466237353e-04 0.00000000000000000e+00 1.66880410631321191e-06 
2.68305996615844525e-04 0.00000000000000000e+00 4.77041540192987315e-06 
2.53366776292355302e-02 0.00000000000000000e+00 -5.96352168382856566e-04 
2.80522115816257619e-02 0.00000000000000000e+00 -6.27750940341314416e-04 
2.47395896874733623e-02 0.00000000000000000e+00 -4.42218417805902641e-04 
1.68011866639051453e-02 0.00000000000000000e+00 -1.71009531225312236e-04 
6.90821995061579285e-03 0.00000000000000000e+00 8.56606329864757414e-06 
1.19036655104275786e-03 0.00000000000000000e+00 4.09242010420992244e-05 
-6.77951293813592801e-04 0.00000000000000000e+00 1.80566491802325988e-05 
-6.90490614916304166e-04 0.00000000000000000e+00 -1.76697657655419495e-06 
-2.71995659117043741e-04 0.00000000000000000e+00 -5.31405242320140026e-06 
4.03291911851287089e-05 0.00000000000000000e+00 -1.18886804312890145e-06 
2.02919590407758056e-04 0.00000000000000000e+00 1.34188464595336217e-06 
2.71018504940557018e-04 0.00000000000000000e+00 2.41493868928997327e-06 
2.33911012710097247e-04 0.00000000000000000e+00 9.36194723605467844e-06 
1.09755589278972622e-05 0.00000000000000000e+00 2.28985754832385471e-05 
1.09755589301688826e-05 0.00000000000000000e+00 2.28985754834433393e-05 
-2.87618990931232750e-04 0.00000000000000000e+00 2.10017565147968596e-05 
-2.87618990916710079e-04 0.00000000000000000e+00 2.10017565144052119e-05 
-1.16532490182504411e-04 0.00000000000000000e+00 2.75298010904845263e-05 
-1.16532490164216956e-04 0.00000000000000000e+00 2.75298010905322787e-05 
1.09755589346505407e-05 0.00000000000000000e+00 2.28985754834646303e-05 
-2.87618990941313011e-04 0.00000000000000000e+00 2.10017565145473508e-05 
-5.69923222038497463e-04 0.00000000000000000e+00 1.60556372145752181e-05 
-5.69923222028498409e-04 0.00000000000000000e+00 1.60556372144129469e-05 
-5.69923222019134154e-04 0.00000000000000000e+00 1.60556372147502490e-05 
1.61831019373984028e-04 0.00000000000000000e+00 1.58825335922224985e-05 
1.61831019367352180e-04 0.00000000000000000e+00 1.58825335921829048e-05 
1.61831019373454070e-04 0.00000000000000000e+00 1.58825335918842206e-05 
-1.25358456628181937e-04 0.00000000000000000e+00 -6.00942662485637956e-06 
1.27117039942718888e-03 0.00000000000000000e+00 -2.79171149621314423e-05 
1.06427784115281122e-03 0.00000000000000000e+00 -7.08104466674984405e-06 
-1.35622057250111705e-05 0.00000000000000000e+00 1.32641006105806852e-05 
-7.27824130869324129e-04 0.00000000000000000e+00 8.95401380125333203e-06 
-5.48243431214328583e-04 0.00000000000000000e+00 -7.73132274184486899e-06 
6.29590690740378220e-05 0.00000000000000000e+00 -1.55253460564959772e-05 
4.94858272999618935e-04 0.00000000000000000e+00 -9.36357834495120087e-06 
5.39277564056113781e-04 0.00000000000000000e+00 1.36440919639303633e-06 
3.39047178226150020e-04 0.00000000000000000e+00 6.15985425040201364e-06 
9.36642201064928224e-05 0.00000000000000000e+00 3.53400214721350886e-06 
-1.58218708193723508e-04 0.00000000000000000e+00 2.97849476612402406e-06 
-1.33145080235870929e-03 0.00000000000000000e+00 2.46308846633364592e-05 
7.71872528221844031e-04 0.00000000000000000e+00 -2.38585344740403000e-05 
1.34509104194053750e-03 0.00000000000000000e+00 -2.03941281292969384e-05 
5.56630541115455736e-04 0.00000000000000000e+00 5.62511083568748345e-06 
-4.78924500180785554e-04 0.00000000000000000e+00 1.40811411031358720e-05 
-7.35357167915993678e-04 0.00000000000000000e+00 6.06674391429657792e-07 
-2.51919140922052644e-04 0.00000000000000000e+00 -1.35247097923616825e-05 
3.25396521433299790e-04 0.00000000000000000e+00 -1.37911935630118532e-05 
5.61538864423130504e-04 0.00000000000000000e+00 -3.78676490274979383e-06 
4.55269013350774216e-04 0.00000000000000000e+00 4.87714209401191085e-06 
2.14385370060516208e-04 0.00000000000000000e+00 5.39258283577931895e-06 
-2.56759966480516013e-05 0.00000000000000000e+00 2.12967858837227814e-06 
-3.29689366973151825e-04 0.00000000000000000e+00 7.45503180965221311e-06 
2.08398425651280562e-02 0.00000000000000000e+00 -4.58899337059826419e-04 
2.08398425651377464e-02 0.00000000000000000e+00 -4.58899337059882526e-04 
2.08398425651313036e-02 0.00000000000000000e+00 -4.58899337059841110e-04 
-1.16532490155428847e-04 0.00000000000000000e+00 2.75298010901423250e-05 
1.09755589465151819e-05 0.00000000000000000e+00 2.28985754834103118e-05 
-2.87618990927930053e-04 0.00000000000000000e+00 2.10017565148281626e-05 
-1.25358456621876217e-04 0.00000000000000000e+00 -6.00942662449336157e-06 
1.27117039943815840e-03 0.00000000000000000e+00 -2.79171149620172725e-05 
1.06427784115199612e-03 0.00000000000000000e+00 -7.08104466689844666e-06 
-1.35622057290031351e-05 0.00000000000000000e+00 1.32641006107534054e-05 
-7.27824130866223961e-04 0.00000000000000000e+00 8.95401380132354767e-06 
-5.48243431217911655e-04 0.00000000000000000e+00 -7.73132274173369761e-06 
6.29590690673435241e-05 0.00000000000000000e+00 -1.55253460563863644e-05 
4.94858273002199336e-04 0.00000000000000000e+00 -9.36357834477969364e-06 
5.39277564056761700e-04 0.00000000000000000e+00 1.36440919662479810e-06 
3.39047178226804878e-04 0.00000000000000000e+00 6.15985425001480439e-06 
9.36642201082618067e-05 0.00000000000000000e+00 3.53400214734761112e-06 
-1.58218708199843613e-04 0.00000000000000000e+00 2.97849476636592312e-06 
-1.33145080236007972e-03 0.00000000000000000e+00 2.46308846635170601e-05 
7.71872528233506577e-04 0.00000000000000000e+00 -2.38585344742629612e-05 
1.34509104194517615e-03 0.00000000000000000e+00 -2.03941281293856431e-05 
5.56630541121313029e-04 0.00000000000000000e+00 5.62511083593196342e-06 
-4.78924500184163277e-04 0.00000000000000000e+00 1.40811411030849823e-05 
-7.35357167913482665e-04 0.00000000000000000e+00 6.06674391473825478e-07 
-2.51919140921273753e-04 0.00000000000000000e+00 -1.35247097922451578e-05 
3.25396521442191983e-04 0.00000000000000000e+00 -1.37911935629220406e-05 
5.61538864427094347e-04 0.00000000000000000e+00 -3.78676490279236232e-06 
4.55269013351845408e-04 0.00000000000000000e+00 4.87714209387030050e-06 
2.14385370073890059e-04 0.00000000000000000e+00 5.39258283593076844e-06 
-2.56759966508878741e-05 0.00000000000000000e+00 2.12967858850418488e-06 
-3.29689366976668977e-04 0.00000000000000000e+00 7.45503180966020910e-06 
2.08398425651325422e-02 0.00000000000000000e+00 -4.58899337060027863e-04 
2.73732240996934946e-02 0.00000000000000000e+00 -6.38387698261011429e-04 
2.81956150882070322e-02 0.00000000000000000e+00 -5.98650321234763883e-04 
2.13349547212799452e-02 0.00000000000000000e+00 -2.98371086399104471e-04 
1.12773841439420784e-02 0.00000000000000000e+00 -5.99799231113123073e-05 
3.46824802458887190e-03 0.00000000000000000e+00 3.71002756196488358e-05 
-7.85869603402853582e-05 0.00000000000000000e+00 3.19646224199019764e-05 
-7.99072148705343350e-04 0.00000000000000000e+00 6.19594349145492588e-06 