# vtk DataFile Version 2.0

ASCII

DATASET UNSTRUCTURED_GRID

POINTS 281 double 

0.00000000000000000e+00  6.00000000000000012e-03  8.68039800000000063e-03
0.00000000000000000e+00  6.00000000000000012e-03  2.15013699999999988e-02
0.00000000000000000e+00  5.99999699999999997e-03  3.38432499999999983e-02
0.00000000000000000e+00  6.00000000000000012e-03  4.61511800000000000e-02
0.00000000000000000e+00  5.99999399999999981e-03  5.84285100000000029e-02
0.00000000000000000e+00  5.99999899999999978e-03  7.03572799999999943e-02
0.00000000000000000e+00  6.00000000000000012e-03  7.56573400000000035e-02
0.00000000000000000e+00  6.00000000000000012e-03  1.52458600000000000e-02
0.00000000000000000e+00  5.99999899999999978e-03  2.76822099999999988e-02
0.00000000000000000e+00  5.99999899999999978e-03  3.99985900000000005e-02
0.00000000000000000e+00  5.99999800000000031e-03  5.22986000000000006e-02
0.00000000000000000e+00  5.99999800000000031e-03  6.44963600000000026e-02
0.00000000000000000e+00  3.00000000000000006e-03  3.07692300000000007e-03
0.00000000000000000e+00  3.00000000000000006e-03  1.04940499999999996e-02
0.00000000000000000e+00  3.00000000000000006e-03  7.41712199999999995e-03
0.00000000000000000e+00  3.00000000000000006e-03  2.30583799999999998e-02
0.00000000000000000e+00  3.00000000000000006e-03  1.99814599999999995e-02
0.00000000000000000e+00  2.99999900000000016e-03  3.53831699999999985e-02
0.00000000000000000e+00  2.99999900000000016e-03  3.23062400000000000e-02
0.00000000000000000e+00  3.00000000000000006e-03  4.76909699999999992e-02
0.00000000000000000e+00  3.00000000000000006e-03  4.46140500000000023e-02
0.00000000000000000e+00  2.99999699999999991e-03  5.99834799999999987e-02
0.00000000000000000e+00  2.99999699999999991e-03  5.69065600000000019e-02
0.00000000000000000e+00  2.99999900000000016e-03  7.21017199999999941e-02
0.00000000000000000e+00  2.99999900000000016e-03  6.90247900000000025e-02
0.00000000000000000e+00  3.00000000000000006e-03  7.78286700000000026e-02
0.00000000000000000e+00  3.00000000000000006e-03  7.47517500000000057e-02
0.00000000000000000e+00  5.99999899999999978e-03  7.30073100000000058e-02
0.00000000000000000e+00  6.00000000000000012e-03  7.78286700000000026e-02
0.00000000000000000e+00  8.99999999999999932e-03  7.47517500000000057e-02
0.00000000000000000e+00  8.99999999999999932e-03  7.78286700000000026e-02
0.00000000000000000e+00  8.99999999999999932e-03  3.07692300000000007e-03
0.00000000000000000e+00  8.99999999999999932e-03  7.41712199999999995e-03
0.00000000000000000e+00  8.99999999999999932e-03  1.04940499999999996e-02
0.00000000000000000e+00  8.99999999999999932e-03  1.99814599999999995e-02
0.00000000000000000e+00  8.99999999999999932e-03  2.30583799999999998e-02
0.00000000000000000e+00  8.99999899999999985e-03  3.23062400000000000e-02
0.00000000000000000e+00  8.99999899999999985e-03  3.53831699999999985e-02
0.00000000000000000e+00  8.99999999999999932e-03  4.46140500000000023e-02
0.00000000000000000e+00  8.99999999999999932e-03  4.76909699999999992e-02
0.00000000000000000e+00  8.99999699999999916e-03  5.69065600000000019e-02
0.00000000000000000e+00  8.99999699999999916e-03  5.99834799999999987e-02
0.00000000000000000e+00  8.99999899999999985e-03  6.90247900000000025e-02
0.00000000000000000e+00  8.99999899999999985e-03  7.21017199999999941e-02
0.00000000000000000e+00  6.00000000000000012e-03  4.34019900000000031e-03
0.00000000000000000e+00  3.00000000000000006e-03  1.37767800000000006e-02
0.00000000000000000e+00  6.00000000000000012e-03  1.19631300000000006e-02
0.00000000000000000e+00  3.00000000000000006e-03  1.68536999999999992e-02
0.00000000000000000e+00  6.00000000000000012e-03  1.83736200000000002e-02
0.00000000000000000e+00  5.99999800000000031e-03  3.07627299999999985e-02
0.00000000000000000e+00  3.00000000000000006e-03  2.92257200000000002e-02
0.00000000000000000e+00  3.00000000000000006e-03  2.61487999999999998e-02
0.00000000000000000e+00  8.99999999999999932e-03  2.92257200000000002e-02
0.00000000000000000e+00  6.00000000000000012e-03  4.30748800000000029e-02
0.00000000000000000e+00  2.99999900000000016e-03  4.15377600000000000e-02
0.00000000000000000e+00  2.99999900000000016e-03  3.84608300000000014e-02
0.00000000000000000e+00  8.99999899999999985e-03  4.15377600000000000e-02
0.00000000000000000e+00  5.99999599999999963e-03  5.53635499999999975e-02
0.00000000000000000e+00  2.99999900000000016e-03  5.38416099999999981e-02
0.00000000000000000e+00  2.99999900000000016e-03  5.07646799999999995e-02
0.00000000000000000e+00  8.99999899999999985e-03  5.38416099999999981e-02
0.00000000000000000e+00  5.99999800000000031e-03  6.74268199999999984e-02
0.00000000000000000e+00  2.99999900000000016e-03  6.60943300000000067e-02
0.00000000000000000e+00  2.99999900000000016e-03  6.30174099999999959e-02
0.00000000000000000e+00  8.99999899999999985e-03  6.60943300000000067e-02
0.00000000000000000e+00  5.99999899999999978e-03  4.92248900000000003e-02
0.00000000000000000e+00  8.99999999999999932e-03  1.68536999999999992e-02
0.00000000000000000e+00  5.99999899999999978e-03  2.45917899999999988e-02
0.00000000000000000e+00  8.99999999999999932e-03  2.61487999999999998e-02
0.00000000000000000e+00  8.99999999999999932e-03  1.37767800000000006e-02
0.00000000000000000e+00  5.99999800000000031e-03  3.69209200000000029e-02
0.00000000000000000e+00  8.99999899999999985e-03  3.84608300000000014e-02
0.00000000000000000e+00  8.99999899999999985e-03  5.07646799999999995e-02
0.00000000000000000e+00  5.99999599999999963e-03  6.14624299999999985e-02
0.00000000000000000e+00  8.99999899999999985e-03  6.30174099999999959e-02
1.20000000000000002e-02  1.20000000000000002e-02  8.00000000000000017e-02
0.00000000000000000e+00  0.00000000000000000e+00  8.00000000000000017e-02
1.20000000000000002e-02  6.00000000000000012e-03  0.00000000000000000e+00
1.20000000000000002e-02  3.00000000000000006e-03  0.00000000000000000e+00
1.20000000000000002e-02  8.99999999999999932e-03  0.00000000000000000e+00
1.20000000000000002e-02  0.00000000000000000e+00  8.00000000000000017e-02
1.20000000000000002e-02  0.00000000000000000e+00  0.00000000000000000e+00
0.00000000000000000e+00  1.20000000000000002e-02  0.00000000000000000e+00
1.20000000000000002e-02  5.99999899999999978e-03  8.68039699999999942e-03
1.20000000000000002e-02  5.99999899999999978e-03  1.52458600000000000e-02
1.20000000000000002e-02  5.99999899999999978e-03  2.15013699999999988e-02
1.20000000000000002e-02  6.00000000000000012e-03  2.76822099999999988e-02
1.20000000000000002e-02  5.99999899999999978e-03  3.38432399999999967e-02
1.20000000000000002e-02  5.99999800000000031e-03  3.99985900000000005e-02
1.20000000000000002e-02  5.99999699999999997e-03  4.61511800000000000e-02
1.20000000000000002e-02  5.99999300000000034e-03  5.22986100000000023e-02
1.20000000000000002e-02  5.99998599999999969e-03  5.84285400000000010e-02
1.20000000000000002e-02  5.99997800000000043e-03  6.44963800000000059e-02
1.20000000000000002e-02  5.99997500000000027e-03  7.03572999999999976e-02
1.20000000000000002e-02  5.99997500000000027e-03  7.56573600000000068e-02
1.20000000000000002e-02  3.00000000000000006e-03  3.07692300000000007e-03
1.20000000000000002e-02  3.00000000000000006e-03  7.41712099999999961e-03
1.20000000000000002e-02  3.00000000000000006e-03  1.04940399999999996e-02
1.20000000000000002e-02  2.99999900000000016e-03  1.37767800000000006e-02
1.20000000000000002e-02  2.99999900000000016e-03  1.68536999999999992e-02
1.20000000000000002e-02  5.99999899999999978e-03  1.19631300000000006e-02
1.20000000000000002e-02  3.00000000000000006e-03  1.99814500000000013e-02
1.20000000000000002e-02  3.00000000000000006e-03  2.30583799999999998e-02
1.20000000000000002e-02  5.99999899999999978e-03  1.83736099999999986e-02
1.20000000000000002e-02  3.00000000000000006e-03  2.61487999999999998e-02
1.20000000000000002e-02  3.00000000000000006e-03  2.92257200000000002e-02
1.20000000000000002e-02  5.99999899999999978e-03  2.45917899999999988e-02
1.20000000000000002e-02  3.00000000000000006e-03  3.23062299999999983e-02
1.20000000000000002e-02  3.00000000000000006e-03  3.53831599999999968e-02
1.20000000000000002e-02  5.99999899999999978e-03  3.07627200000000003e-02
1.20000000000000002e-02  2.99999900000000016e-03  3.84608300000000014e-02
1.20000000000000002e-02  2.99999900000000016e-03  4.15377499999999983e-02
1.20000000000000002e-02  5.99999899999999978e-03  3.69209100000000012e-02
1.20000000000000002e-02  2.99999799999999981e-03  4.46140500000000023e-02
1.20000000000000002e-02  2.99999799999999981e-03  4.76909800000000009e-02
1.20000000000000002e-02  5.99999800000000031e-03  4.30748800000000029e-02
1.20000000000000002e-02  2.99999699999999991e-03  5.07646900000000012e-02
1.20000000000000002e-02  2.99999699999999991e-03  5.38416099999999981e-02
1.20000000000000002e-02  5.99999500000000015e-03  4.92249000000000020e-02
1.20000000000000002e-02  2.99999299999999984e-03  5.69065799999999983e-02
1.20000000000000002e-02  2.99999299999999984e-03  5.99835000000000021e-02
1.20000000000000002e-02  5.99999000000000018e-03  5.53635800000000025e-02
1.20000000000000002e-02  2.99998900000000021e-03  6.30174200000000045e-02
1.20000000000000002e-02  2.99998900000000021e-03  6.60943499999999962e-02
1.20000000000000002e-02  5.99998200000000006e-03  6.14624599999999965e-02
1.20000000000000002e-02  2.99998799999999987e-03  6.90248100000000059e-02
1.20000000000000002e-02  2.99998799999999987e-03  7.21017300000000028e-02
1.20000000000000002e-02  5.99997700000000009e-03  6.74268400000000018e-02
1.20000000000000002e-02  2.99998699999999997e-03  7.47517600000000004e-02
1.20000000000000002e-02  2.99998699999999997e-03  7.78286799999999973e-02
1.20000000000000002e-02  5.99998700000000003e-03  7.78286799999999973e-02
1.20000000000000002e-02  5.99997500000000027e-03  7.30073299999999953e-02
1.20000000000000002e-02  8.99998699999999922e-03  7.78286799999999973e-02
1.20000000000000002e-02  8.99999999999999932e-03  3.07692300000000007e-03
[...]
POINT_DATA 281

SCALARS Rank unsigned_int
LOOKUP_TABLE default
0 0 0 0 0 0 0 0 0 0 0 0 0 0 0 0 0 0 0 0 0 0 0 0 0 0 0 0 0 0 0 0 0 0 0 0 0 0 0 0 0 0 0 0 0 0 0 0 0 0 0 0 0 0 0 0 0 0 0 0 0 0 0 0 0 0 0 0 0 0 0 0 0 0 0 0 0 0 0 0 0 0 0 0 0 0 0 0 0 0 0 0 0 0 0 0 0 0 0 0 0 0 0 0 0 0 0 0 0 0 0 0 0 0 0 0 0 0 0 0 0 0 0 0 0 0 0 0 0 0 0 0 0 0 0 0 0 0 0 0 0 0 0 0 0 0 0 0 0 0 0 0 0 0 0 0 0 0 0 0 0 0 0 0 0 0 0 0 0 0 0 0 0 0 0 0 0 0 0 0 0 0 0 0 0 0 0 0 0 0 0 0 0 0 0 0 0 0 0 0 0 0 0 0 0 0 0 0 0 0 0 0 0 0 0 0 0 0 0 0 0 0 0 0 0 0 0 0 0 0 0 0 0 0 0 0 0 0 0 0 0 0 0 0 0 0 0 0 0 0 0 0 0 0 0 0 0 0 0 0 0 0 0 0 0 0 0 0 0 0 0 0 0 0 0 0 0 0 0 0 0 

VECTORS Forces0 double
7.10022686647646226e-04 0.00000000000000000e+00 -1.81198936021203842e-07 
1.13667165949066793e-04 0.00000000000000000e+00 -2.41694689683655173e-07 
1.27696146850734127e-05 0.00000000000000000e+00 4.41006767720071154e-07 
2.68694816454194094e-05 0.00000000000000000e+00 -2.46903007316251262e-07 
1.28771360851110099e-05 0.00000000000000000e+00 6.50504824033245286e-07 
-1.63819672811659984e-06 0.00000000000000000e+00 -1.11291583356791178e-06 
-8.92549915778726772e-06 0.00000000000000000e+00 -7.60676252868042239e-07 
3.50072416687146693e-04 0.00000000000000000e+00 -1.77291365907389838e-07 
2.24860129130709366e-05 0.00000000000000000e+00 5.32282692914921629e-08 
2.31686446768179876e-05 0.00000000000000000e+00 3.50030094909651858e-07 
2.16412568637678300e-05 0.00000000000000000e+00 -3.35551033082826745e-07 
5.46532705222362123e-06 0.00000000000000000e+00 8.51375772195180009e-07 
9.08375038300155910e-04 0.00000000000000000e+00 -7.14746011258999753e-07 
6.23077849600129166e-04 0.00000000000000000e+00 -1.55355720720221152e-07 
7.79715078475908983e-04 0.00000000000000000e+00 -2.69693152489700373e-07 
7.56160467395131547e-05 0.00000000000000000e+00 -2.02982223815753078e-07 
1.59513618435797489e-04 0.00000000000000000e+00 -2.51893584502348128e-07 
1.67122060830745609e-05 0.00000000000000000e+00 4.89987201739937509e-07 
1.05089549507723771e-05 0.00000000000000000e+00 3.61682126417584519e-07 
2.55264740130464580e-05 0.00000000000000000e+00 -3.72115964228063988e-07 
2.79352134499817152e-05 0.00000000000000000e+00 -8.62773078891053393e-08 
1.11897907677596268e-05 0.00000000000000000e+00 9.01849210211988509e-07 
1.46788980013207587e-05 0.00000000000000000e+00 3.58012598754700389e-07 
-3.99950665254198376e-06 0.00000000000000000e+00 -1.54685465626877860e-06 
6.17502844586969861e-08 0.00000000000000000e+00 -6.10570196697499673e-07 
-1.10159316588279494e-05 0.00000000000000000e+00 1.07905090801156896e-06 
-7.73303077225914268e-06 0.00000000000000000e+00 -1.23146082610244691e-06 
-5.27412167448387148e-06 0.00000000000000000e+00 -1.59935987066148678e-06 
-1.10159316589744116e-05 0.00000000000000000e+00 1.07905090803262959e-06 
-7.73303077208369166e-06 0.00000000000000000e+00 -1.23146082608112794e-06 
-1.10159316591752465e-05 0.00000000000000000e+00 1.07905090799345093e-06 
9.08375038300752221e-04 0.00000000000000000e+00 -7.14746011355319892e-07 
7.79715078476247471e-04 0.00000000000000000e+00 -2.69693152398724799e-07 
6.23077849600573038e-04 0.00000000000000000e+00 -1.55355720783007681e-07 
1.59513618436155140e-04 0.00000000000000000e+00 -2.51893584490071232e-07 
7.56160467392928991e-05 0.00000000000000000e+00 -2.02982223808517723e-07 
1.05089549508593301e-05 0.00000000000000000e+00 3.61682126405156746e-07 
1.67122060831963168e-05 0.00000000000000000e+00 4.89987201794701154e-07 
2.79352134497579630e-05 0.00000000000000000e+00 -8.62773078861805345e-08 
2.55264740130163850e-05 0.00000000000000000e+00 -3.72115964206130917e-07 
1.46788980017847701e-05 0.00000000000000000e+00 3.58012598741583237e-07 
1.11897907681713933e-05 0.00000000000000000e+00 9.01849210158227752e-07 
6.17502850531379322e-08 0.00000000000000000e+00 -6.10570196769821464e-07 
-3.99950665235068983e-06 0.00000000000000000e+00 -1.54685465628799736e-06 
9.30386893553088786e-04 0.00000000000000000e+00 -6.59175305969890490e-07 
4.39937904656732229e-04 0.00000000000000000e+00 -1.75032041884546096e-07 
5.54861530583294449e-04 0.00000000000000000e+00 -1.83169878615841683e-07 
2.68894483224699720e-04 0.00000000000000000e+00 -1.99870865226839278e-07 
2.09039174283580218e-04 0.00000000000000000e+00 -2.29514139425760821e-07 
1.10936240991094979e-05 0.00000000000000000e+00 2.64210747031719284e-07 
1.53917041045513278e-05 0.00000000000000000e+00 1.59970578888950253e-07 
3.18968087789238118e-05 0.00000000000000000e+00 -5.04889135360246490e-08 
1.53917041045855886e-05 0.00000000000000000e+00 1.59970578879491648e-07 
2.72639694305144129e-05 0.00000000000000000e+00 7.73664985272911512e-08 
2.52879548344877116e-05 0.00000000000000000e+00 2.25216593632951726e-07 
2.13165232852840453e-05 0.00000000000000000e+00 4.40585259561251506e-07 
2.52879548348141649e-05 0.00000000000000000e+00 2.25216593614945076e-07 
1.68112383345899165e-05 0.00000000000000000e+00 6.88466510377491604e-08 
1.92217335520812955e-05 0.00000000000000000e+00 -1.67068720366017378e-07 
2.31404990202396290e-05 0.00000000000000000e+00 -4.26704299456213170e-07 
1.92217335527176138e-05 0.00000000000000000e+00 -1.67068720350230590e-07 
1.99792946743336093e-06 0.00000000000000000e+00 2.04628602576884671e-08 
3.57165822565389166e-06 0.00000000000000000e+00 4.65851657721232019e-07 
7.28980015834222249e-06 0.00000000000000000e+00 1.02618449127790111e-06 
3.57165822562188059e-06 0.00000000000000000e+00 4.65851657751064519e-07 
2.42626570982045049e-05 0.00000000000000000e+00 -4.38253162280777637e-07 
2.68894483224426718e-04 0.00000000000000000e+00 -1.99870865240339289e-07 
4.87828259464120415e-05 0.00000000000000000e+00 -1.39312774553962035e-07 
3.18968087783694050e-05 0.00000000000000000e+00 -5.04889135463421455e-08 
4.39937904655857115e-04 0.00000000000000000e+00 -1.75032041954574121e-07 
1.95506110270239413e-05 0.00000000000000000e+00 4.90661385212745476e-07 
2.13165232855570068e-05 0.00000000000000000e+00 4.40585259565641784e-07 
2.31404990206730389e-05 0.00000000000000000e+00 -4.26704299461110079e-07 
9.28807590509906835e-06 0.00000000000000000e+00 1.03706771215130673e-06 
7.28980015789470449e-06 0.00000000000000000e+00 1.02618449127982303e-06 
5.19785060740345101e-06 0.00000000000000000e+00 4.53866759612431398e-06 
-1.23448012161223083e-05 0.00000000000000000e+00 4.36099220928695047e-06 
-3.58889801512870301e-05 0.00000000000000000e+00 -3.40141777579517246e-07 
-3.58889801516681814e-05 0.00000000000000000e+00 -3.40141777574217784e-07 
-3.58889801516197989e-05 0.00000000000000000e+00 -3.40141777592217234e-07 
5.19785060724792898e-06 0.00000000000000000e+00 4.53866759622150424e-06 
-3.58889801516645764e-05 0.00000000000000000e+00 -3.40141777626487764e-07 
7.53974315421947487e-04 0.00000000000000000e+00 -8.88021769463237546e-07 
1.15322547783323382e-05 0.00000000000000000e+00 3.80837986979429875e-07 
5.45881529306956050e-06 0.00000000000000000e+00 3.33064603058035191e-08 
1.17566736305550745e-06 0.00000000000000000e+00 -2.30347203431970299e-07 
8.95323555665640724e-06 0.00000000000000000e+00 -7.85411185131584531e-08 
1.52305407302589950e-05 0.00000000000000000e+00 2.19850316307963559e-07 
1.19105438671358867e-05 0.00000000000000000e+00 7.70990450300609731e-08 
3.15403675316521464e-06 0.00000000000000000e+00 -5.20115666782286572e-07 
-2.21492633218038920e-06 0.00000000000000000e+00 -5.51091252386406619e-07 
9.69378475540691771e-08 0.00000000000000000e+00 5.45989282521065258e-07 
8.19778055698653491e-06 0.00000000000000000e+00 8.64674863671559204e-07 
1.50991387908472154e-05 0.00000000000000000e+00 -1.01703110451600880e-06 
1.43597344882553767e-05 0.00000000000000000e+00 -6.26141066084051102e-07 
-1.36050051117956297e-05 0.00000000000000000e+00 1.57206812627342901e-07 
9.19803608073538498e-06 0.00000000000000000e+00 3.91968890969948048e-07 
1.22022272794159510e-05 0.00000000000000000e+00 3.19723897661994214e-07 
8.07812694902507475e-06 0.00000000000000000e+00 1.29083614253261682e-07 
3.02071043466702075e-06 0.00000000000000000e+00 -6.45677930348507104e-08 
1.09891474833299438e-05 0.00000000000000000e+00 2.42420110684578379e-07 
9.52906903695661558e-07 0.00000000000000000e+00 -2.01543564290580054e-07 
2.21634644242867657e-06 0.00000000000000000e+00 -2.30408792089238649e-07 
1.55108071139078339e-06 0.00000000000000000e+00 -1.42580997975758728e-07 
6.40686108160538988e-06 0.00000000000000000e+00 -1.49792241386301310e-07 
1.11102501395539136e-05 0.00000000000000000e+00 5.55960093349083155e-09 
4.05756103918288684e-06 0.00000000000000000e+00 -2.03019038303345559e-07 
1.42954622737149191e-05 0.00000000000000000e+00 1.65929672196967141e-07 
1.55388393880076440e-05 0.00000000000000000e+00 2.42678420402928106e-07 
1.29148067150987923e-05 0.00000000000000000e+00 9.06728858000941140e-08 
1.36304512381944692e-05 0.00000000000000000e+00 1.73462213222311288e-07 
9.97878580164337290e-06 0.00000000000000000e+00 -5.57899194598972692e-08 
1.49720570978926015e-05 0.00000000000000000e+00 2.29044183824986425e-07 
5.64014268353145001e-06 0.00000000000000000e+00 -3.73741346344392131e-07 
1.00411811387542783e-06 0.00000000000000000e+00 -6.30289729884886569e-07 
7.93607658614236899e-06 0.00000000000000000e+00 -2.11605346336039443e-07 
-1.61164390102228021e-06 0.00000000000000000e+00 -6.59837736535688839e-07 
-2.64326378667273505e-06 0.00000000000000000e+00 -3.51810477997336993e-07 
-6.09841502404873446e-07 0.00000000000000000e+00 -6.83225534973070136e-07 
-1.50687893698240423e-06 0.00000000000000000e+00 2.31010643943608578e-07 
2.15769073921527689e-06 0.00000000000000000e+00 8.20249121965350418e-07 
-2.46019771547018464e-06 0.00000000000000000e+00 -8.50612305623457266e-08 
5.97977345980252590e-06 0.00000000000000000e+00 1.01277053969567052e-06 
1.07726581508164671e-05 0.00000000000000000e+00 4.99707761011977837e-07 
3.92474130100119822e-06 0.00000000000000000e+00 9.89168719981532165e-07 
1.44065389442392638e-05 0.00000000000000000e+00 -5.38545220177757633e-07 
1.55366202991446483e-05 0.00000000000000000e+00 -1.42793612862222754e-06 
1.28107921010992751e-05 0.00000000000000000e+00 6.78913719801648790e-08 
1.50485378121969601e-05 0.00000000000000000e+00 -1.09888902062414931e-06 
1.05949016719869770e-05 0.00000000000000000e+00 1.23751824484437826e-06 
1.05949016723347484e-05 0.00000000000000000e+00 1.23751824481984988e-06 
1.55560064557928449e-05 0.00000000000000000e+00 -1.47321013892714370e-06 
1.05949016719741292e-05 0.00000000000000000e+00 1.23751824478527399e-06 
-1.36050051117056951e-05 0.00000000000000000e+00 1.57206812637344454e-07 
1.22022272793626353e-05 0.00000000000000000e+00 3.19723897591524885e-07 
9.19803608066100871e-06 0.00000000000000000e+00 3.91968890970204911e-07 
3.02071043414754561e-06 0.00000000000000000e+00 -6.45677930119774327e-08 
8.07812694914689164e-06 0.00000000000000000e+00 1.29083614212192655e-07 
2.21634644254062045e-06 0.00000000000000000e+00 -2.30408792109392739e-07 
9.52906903793842841e-07 0.00000000000000000e+00 -2.01543564303651043e-07 
1.11102501399097217e-05 0.00000000000000000e+00 5.55960094913214196e-09 
6.40686108130350734e-06 0.00000000000000000e+00 -1.49792241357251574e-07 
1.55388393878240479e-05 0.00000000000000000e+00 2.42678420372841919e-07 
1.42954622736757523e-05 0.00000000000000000e+00 1.65929672177489407e-07 
9.97878580177668911e-06 0.00000000000000000e+00 -5.57899194465581944e-08 
1.36304512383866575e-05 0.00000000000000000e+00 1.73462213220594352e-07 
1.00411811363164497e-06 0.00000000000000000e+00 -6.30289729894586367e-07 
5.64014268377158724e-06 0.00000000000000000e+00 -3.73741346341083620e-07 
-2.64326378694809530e-06 0.00000000000000000e+00 -3.51810477994174384e-07 
-1.61164390130075754e-06 0.00000000000000000e+00 -6.59837736517052844e-07 
2.15769073906220110e-06 0.00000000000000000e+00 8.20249121971297012e-07 
-1.50687893709804794e-06 0.00000000000000000e+00 2.31010643931332318e-07 
1.07726581501601996e-05 0.00000000000000000e+00 4.99707761022479351e-07 
5.97977346018041101e-06 0.00000000000000000e+00 1.01277053970326714e-06 
1.55366202998790869e-05 0.00000000000000000e+00 -1.42793612865506044e-06 
1.44065389431143769e-05 0.00000000000000000e+00 -5.38545220188956255e-07 
-4.66224478063608303e-06 0.00000000000000000e+00 2.75304047146644220e-07 
1.50485378123370255e-05 0.00000000000000000e+00 -1.09888902065315214e-06 
-1.23448012164526240e-05 0.00000000000000000e+00 4.36099220925587452e-06 
8.52180421944493793e-04 0.00000000000000000e+00 -4.14866283646211942e-07 
5.34628835677512966e-04 0.00000000000000000e+00 -1.83739123195144663e-07 
2.06037940375316278e-04 0.00000000000000000e+00 -2.31163434369894315e-07 
4.84528646447843558e-05 0.00000000000000000e+00 -1.38138141306821113e-07 
1.10835006444307316e-05 0.00000000000000000e+00 2.64642226983030752e-07 
1.95532370181038273e-05 0.00000000000000000e+00 4.90623282342359258e-07 
2.72662062598082777e-05 0.00000000000000000e+00 7.71593918755068847e-08 
2.42581774765690724e-05 0.00000000000000000e+00 -4.38364671280724049e-07 
1.67796812159794824e-05 0.00000000000000000e+00 7.25249606314543368e-08 
9.18838400952356027e-06 0.00000000000000000e+00 1.04043733891532640e-06 
1.68113539092626921e-06 0.00000000000000000e+00 -7.86812390529543906e-08 
-6.46642801715175773e-06 0.00000000000000000e+00 -1.50967830396301345e-06 
9.08375038299916518e-04 0.00000000000000000e+00 -7.14746011326740048e-07 
6.81809586116710847e-04 0.00000000000000000e+00 -1.61143502883154479e-07 
3.42270515640821912e-04 0.00000000000000000e+00 -1.78444543305502593e-07 
1.12631667085355094e-04 0.00000000000000000e+00 -2.41088414533868417e-07 
2.24387057571328609e-05 0.00000000000000000e+00 5.39395386239172793e-08 
1.27759607667913527e-05 0.00000000000000000e+00 4.41131798562073002e-07 
2.31704813810148972e-05 0.00000000000000000e+00 3.49930104325208630e-07 
2.68671974964932521e-05 0.00000000000000000e+00 -2.47158426756331818e-07 
2.16284255812576368e-05 0.00000000000000000e+00 -3.34792180056110707e-07 
1.28408010312461037e-05 0.00000000000000000e+00 6.56545262352487419e-07 
5.32186820192262045e-06 0.00000000000000000e+00 8.29613629799727174e-07 
-2.18276776024503650e-06 0.00000000000000000e+00 -1.24486718281406335e-06 
-1.02627076406999870e-05 0.00000000000000000e+00 1.57219476777730173e-07 
-8.88024596933936323e-06 0.00000000000000000e+00 2.74694968491018532e-05 
-8.88024596981849927e-06 0.00000000000000000e+00 2.74694968490988209e-05 
3.20486775139479700e-06 0.00000000000000000e+00 2.75685847277496326e-05 
3.20486775181071728e-06 0.00000000000000000e+00 2.75685847277519162e-05 
-2.56901679174472356e-06 0.00000000000000000e+00 4.68079398440232727e-05 
-2.56901679170865266e-06 0.00000000000000000e+00 4.68079398439596165e-05 
-8.88024596959581770e-06 0.00000000000000000e+00 2.74694968490816905e-05 
3.20486775102496209e-06 0.00000000000000000e+00 2.75685847277910457e-05 
5.19785060785180927e-06 0.00000000000000000e+00 4.53866759617481917e-06 
5.19785060801720431e-06 0.00000000000000000e+00 4.53866759618925430e-06 
5.19785060815554173e-06 0.00000000000000000e+00 4.53866759619503446e-06 
-1.23448012157739541e-05 0.00000000000000000e+00 4.36099220919465776e-06 
-1.23448012158318505e-05 0.00000000000000000e+00 4.36099220923884746e-06 
-1.23448012155561650e-05 0.00000000000000000e+00 4.36099220926677245e-06 
4.99714320366215625e-06 0.00000000000000000e+00 3.70859216857640171e-07 
1.05146158749831391e-05 0.00000000000000000e+00 2.21979554343151976e-07 
1.49336259341819659e-06 0.00000000000000000e+00 -1.46495040775033693e-07 
4.09035584744032359e-06 0.00000000000000000e+00 -2.02393327619000481e-07 
1.29216125330543318e-05 0.00000000000000000e+00 9.10193607791649203e-08 
1.49705850470359641e-05 0.00000000000000000e+00 2.28996192113482274e-07 
7.93329167019918105e-06 0.00000000000000000e+00 -2.11820714880838902e-07 
-6.14822775434103277e-07 0.00000000000000000e+00 -6.83290647755879011e-07 
-2.45245476109296984e-06 0.00000000000000000e+00 -8.09873414837724143e-08 
4.01807043554809313e-06 0.00000000000000000e+00 9.94332671113789121e-07 
1.31690769530149615e-05 0.00000000000000000e+00 -2.83591246396782519e-08 
1.54175303821991498e-05 0.00000000000000000e+00 -1.37936364151245240e-06 
-1.36050051118892505e-05 0.00000000000000000e+00 1.57206812632514461e-07 
1.20191628125215498e-05 0.00000000000000000e+00 3.67361979559841987e-07 
5.22226727229851456e-06 0.00000000000000000e+00 2.44370575117189349e-08 
1.19085059887545095e-06 0.00000000000000000e+00 -2.30697135985499519e-07 
8.96938914443565747e-06 0.00000000000000000e+00 -7.80234733986536000e-08 
1.52317762585803748e-05 0.00000000000000000e+00 2.19925306720827133e-07 
1.19088525604918071e-05 0.00000000000000000e+00 7.69926635169942770e-08 
3.14992938763650427e-06 0.00000000000000000e+00 -5.20344153196326133e-07 
-2.21861259256762152e-06 0.00000000000000000e+00 -5.50172978381692275e-07 
1.37831279233048190e-07 0.00000000000000000e+00 5.52480161367977618e-07 
8.38552608099823782e-06 0.00000000000000000e+00 8.44738611652696295e-07 
1.52467707846410686e-05 0.00000000000000000e+00 -1.14246228867582076e-06 
1.24647812677051757e-05 0.00000000000000000e+00 3.04084598861830676e-07 
7.53974315421917563e-04 0.00000000000000000e+00 -8.88021769399637018e-07 
7.53974315421702891e-04 0.00000000000000000e+00 -8.88021769430110723e-07 
7.53974315421595555e-04 0.00000000000000000e+00 -8.88021769386494243e-07 
-2.56901679180097417e-06 0.00000000000000000e+00 4.68079398439766249e-05 
-8.88024596955565479e-06 0.00000000000000000e+00 2.74694968490842214e-05 
3.20486775133546404e-06 0.00000000000000000e+00 2.75685847277479927e-05 
4.99714320339614725e-06 0.00000000000000000e+00 3.70859216894090116e-07 
1.05146158746677583e-05 0.00000000000000000e+00 2.21979554328706888e-07 
1.49336259365815424e-06 0.00000000000000000e+00 -1.46495040768145621e-07 
4.09035584749153859e-06 0.00000000000000000e+00 -2.02393327630073531e-07 
1.29216125331003833e-05 0.00000000000000000e+00 9.10193607775960035e-08 
1.49705850468406315e-05 0.00000000000000000e+00 2.28996192108963354e-07 
7.93329167016624841e-06 0.00000000000000000e+00 -2.11820714889614163e-07 
-6.14822775112650886e-07 0.00000000000000000e+00 -6.83290647757065704e-07 
-2.45245476095570984e-06 0.00000000000000000e+00 -8.09873414740910395e-08 
4.01807043547839248e-06 0.00000000000000000e+00 9.94332671102870866e-07 
1.31690769530520006e-05 0.00000000000000000e+00 -2.83591246538639362e-08 
1.54175303821648077e-05 0.00000000000000000e+00 -1.37936364154620921e-06 
-1.36050051117599052e-05 0.00000000000000000e+00 1.57206812618553452e-07 
1.20191628127610365e-05 0.00000000000000000e+00 3.67361979535253468e-07 
5.22226727296009473e-06 0.00000000000000000e+00 2.44370574942929261e-08 
1.19085059957715676e-06 0.00000000000000000e+00 -2.30697136034189090e-07 
8.96938914429523974e-06 0.00000000000000000e+00 -7.80234734156617040e-08 
1.52317762581536192e-05 0.00000000000000000e+00 2.19925306698814653e-07 
1.19088525603435696e-05 0.00000000000000000e+00 7.69926635305484982e-08 
3.14992938756684428e-06 0.00000000000000000e+00 -5.20344153193182371e-07 
-2.21861259254661510e-06 0.00000000000000000e+00 -5.50172978397453017e-07 
1.37831279414272583e-07 0.00000000000000000e+00 5.52480161369896360e-07 
8.38552608046600297e-06 0.00000000000000000e+00 8.44738611671070557e-07 
1.52467707842035524e-05 0.00000000000000000e+00 -1.14246228865969368e-06 
1.24647812676436879e-05 0.00000000000000000e+00 3.04084598843214586e-07 
7.53974315421466102e-04 0.00000000000000000e+00 -8.88021769389071553e-07 
8.52180421943854439e-04 0.00000000000000000e+00 -4.14866283631763413e-07 
5.34628835677342963e-04 0.00000000000000000e+00 -1.83739123164552797e-07 
2.06037940375114698e-04 0.00000000000000000e+00 -2.31163434410599753e-07 
4.84528646451072584e-05 0.00000000000000000e+00 -1.38138141291958226e-07 
1.10835006443202243e-05 0.00000000000000000e+00 2.64642226951294333e-07 
1.95532370178792890e-05 0.00000000000000000e+00 4.90623282367013423e-07 
2.72662062598132921e-05 0.00000000000000000e+00 7.71593918613339059e-08 