# vtk DataFile Version 2.0

ASCII

DATASET UNSTRUCTURED_GRID

POINTS 281 double 

0.00000000000000000e+00  6.00000000000000012e-03  8.68039800000000063e-03
0.00000000000000000e+00  6.00000000000000012e-03  2.15013699999999988e-02
0.00000000000000000e+00  5.99999699999999997e-03  3.38432499999999983e-02
0.00000000000000000e+00  6.00000000000000012e-03  4.61511800000000000e-02
0.00000000000000000e+00  5.99999399999999981e-03  5.84285100000000029e-02
0.00000000000000000e+00  5.99999899999999978e-03  7.03572799999999943e-02
0.00000000000000000e+00  6.00000000000000012e-03  7.56573400000000035e-02
0.00000000000000000e+00  6.00000000000000012e-03  1.52458600000000000e-02
0.00000000000000000e+00  5.99999899999999978e-03  2.76822099999999988e-02
0.00000000000000000e+00  5.99999899999999978e-03  3.99985900000000005e-02
0.00000000000000000e+00  5.99999800000000031e-03  5.22986000000000006e-02
0.00000000000000000e+00  5.99999800000000031e-03  6.44963600000000026e-02
0.00000000000000000e+00  3.00000000000000006e-03  3.07692300000000007e-03
0.00000000000000000e+00  3.00000000000000006e-03  1.04940499999999996e-02
0.00000000000000000e+00  3.00000000000000006e-03  7.41712199999999995e-03
0.00000000000000000e+00  3.00000000000000006e-03  2.30583799999999998e-02
0.00000000000000000e+00  3.00000000000000006e-03  1.99814599999999995e-02
0.00000000000000000e+00  2.99999900000000016e-03  3.53831699999999985e-02
0.00000000000000000e+00  2.99999900000000016e-03  3.23062400000000000e-02
0.00000000000000000e+00  3.00000000000000006e-03  4.76909699999999992e-02
0.00000000000000000e+00  3.00000000000000006e-03  4.46140500000000023e-02
0.00000000000000000e+00  2.99999699999999991e-03  5.99834799999999987e-02
0.00000000000000000e+00  2.99999699999999991e-03  5.69065600000000019e-02
0.00000000000000000e+00  2.99999900000000016e-03  7.21017199999999941e-02
0.00000000000000000e+00  2.99999900000000016e-03  6.90247900000000025e-02
0.00000000000000000e+00  3.00000000000000006e-03  7.78286700000000026e-02
0.00000000000000000e+00  3.00000000000000006e-03  7.47517500000000057e-02
0.00000000000000000e+00  5.99999899999999978e-03  7.30073100000000058e-02
0.00000000000000000e+00  6.00000000000000012e-03  7.78286700000000026e-02
0.00000000000000000e+00  8.99999999999999932e-03  7.47517500000000057e-02
0.00000000000000000e+00  8.99999999999999932e-03  7.78286700000000026e-02
0.00000000000000000e+00  8.99999999999999932e-03  3.07692300000000007e-03
0.00000000000000000e+00  8.99999999999999932e-03  7.41712199999999995e-03
0.00000000000000000e+00  8.99999999999999932e-03  1.04940499999999996e-02
0.00000000000000000e+00  8.99999999999999932e-03  1.99814599999999995e-02
0.00000000000000000e+00  8.99999999999999932e-03  2.30583799999999998e-02
0.00000000000000000e+00  8.99999899999999985e-03  3.23062400000000000e-02
0.00000000000000000e+00  8.99999899999999985e-03  3.53831699999999985e-02
0.00000000000000000e+00  8.99999999999999932e-03  4.46140500000000023e-02
0.00000000000000000e+00  8.99999999999999932e-03  4.76909699999999992e-02
0.00000000000000000e+00  8.99999699999999916e-03  5.69065600000000019e-02
0.00000000000000000e+00  8.99999699999999916e-03  5.99834799999999987e-02
0.00000000000000000e+00  8.99999899999999985e-03  6.90247900000000025e-02
0.00000000000000000e+00  8.99999899999999985e-03  7.21017199999999941e-02
0.00000000000000000e+00  6.00000000000000012e-03  4.34019900000000031e-03
0.00000000000000000e+00  3.00000000000000006e-03  1.37767800000000006e-02
0.00000000000000000e+00  6.00000000000000012e-03  1.19631300000000006e-02
0.00000000000000000e+00  3.00000000000000006e-03  1.68536999999999992e-02
0.00000000000000000e+00  6.00000000000000012e-03  1.83736200000000002e-02
0.00000000000000000e+00  5.99999800000000031e-03  3.07627299999999985e-02
0.00000000000000000e+00  3.00000000000000006e-03  2.92257200000000002e-02
0.00000000000000000e+00  3.00000000000000006e-03  2.61487999999999998e-02
0.00000000000000000e+00  8.99999999999999932e-03  2.92257200000000002e-02
0.00000000000000000e+00  6.00000000000000012e-03  4.30748800000000029e-02
0.00000000000000000e+00  2.99999900000000016e-03  4.15377600000000000e-02
0.00000000000000000e+00  2.99999900000000016e-03  3.84608300000000014e-02
0.00000000000000000e+00  8.99999899999999985e-03  4.15377600000000000e-02
0.00000000000000000e+00  5.99999599999999963e-03  5.53635499999999975e-02
0.00000000000000000e+00  2.99999900000000016e-03  5.38416099999999981e-02
0.00000000000000000e+00  2.99999900000000016e-03  5.07646799999999995e-02
0.00000000000000000e+00  8.99999899999999985e-03  5.38416099999999981e-02
0.00000000000000000e+00  5.99999800000000031e-03  6.74268199999999984e-02
0.00000000000000000e+00  2.99999900000000016e-03  6.60943300000000067e-02
0.00000000000000000e+00  2.99999900000000016e-03  6.30174099999999959e-02
0.00000000000000000e+00  8.99999899999999985e-03  6.60943300000000067e-02
0.00000000000000000e+00  5.99999899999999978e-03  4.92248900000000003e-02
0.00000000000000000e+00  8.99999999999999932e-03  1.68536999999999992e-02
0.00000000000000000e+00  5.99999899999999978e-03  2.45917899999999988e-02
0.00000000000000000e+00  8.99999999999999932e-03  2.61487999999999998e-02
0.00000000000000000e+00  8.99999999999999932e-03  1.37767800000000006e-02
0.00000000000000000e+00  5.99999800000000031e-03  3.69209200000000029e-02
0.00000000000000000e+00  8.99999899999999985e-03  3.84608300000000014e-02
0.00000000000000000e+00  8.99999899999999985e-03  5.07646799999999995e-02
0.00000000000000000e+00  5.99999599999999963e-03  6.14624299999999985e-02
0.00000000000000000e+00  8.99999899999999985e-03  6.30174099999999959e-02
1.20000000000000002e-02  1.20000000000000002e-02  8.00000000000000017e-02
0.00000000000000000e+00  0.00000000000000000e+00  8.00000000000000017e-02
1.20000000000000002e-02  6.00000000000000012e-03  0.00000000000000000e+00
1.20000000000000002e-02  3.00000000000000006e-03  0.00000000000000000e+00
1.20000000000000002e-02  8.99999999999999932e-03  0.00000000000000000e+00
1.20000000000000002e-02  0.00000000000000000e+00  8.00000000000000017e-02
1.20000000000000002e-02  0.00000000000000000e+00  0.00000000000000000e+00
0.00000000000000000e+00  1.20000000000000002e-02  0.00000000000000000e+00
1.20000000000000002e-02  5.99999899999999978e-03  8.68039699999999942e-03
1.20000000000000002e-02  5.99999899999999978e-03  1.52458600000000000e-02
1.20000000000000002e-02  5.99999899999999978e-03  2.15013699999999988e-02
1.20000000000000002e-02  6.00000000000000012e-03  2.76822099999999988e-02
1.20000000000000002e-02  5.99999899999999978e-03  3.38432399999999967e-02
1.20000000000000002e-02  5.99999800000000031e-03  3.99985900000000005e-02
1.20000000000000002e-02  5.99999699999999997e-03  4.61511800000000000e-02
1.20000000000000002e-02  5.99999300000000034e-03  5.22986100000000023e-02
1.20000000000000002e-02  5.99998599999999969e-03  5.84285400000000010e-02
1.20000000000000002e-02  5.99997800000000043e-03  6.44963800000000059e-02
1.20000000000000002e-02  5.99997500000000027e-03  7.03572999999999976e-02
1.20000000000000002e-02  5.99997500000000027e-03  7.56573600000000068e-02
1.20000000000000002e-02  3.00000000000000006e-03  3.07692300000000007e-03
1.20000000000000002e-02  3.00000000000000006e-03  7.41712099999999961e-03
1.20000000000000002e-02  3.00000000000000006e-03  1.04940399999999996e-02
1.20000000000000002e-02  2.99999900000000016e-03  1.37767800000000006e-02
1.20000000000000002e-02  2.99999900000000016e-03  1.68536999999999992e-02
1.20000000000000002e-02  5.99999899999999978e-03  1.19631300000000006e-02
1.20000000000000002e-02  3.00000000000000006e-03  1.99814500000000013e-02
1.20000000000000002e-02  3.00000000000000006e-03  2.30583799999999998e-02
1.20000000000000002e-02  5.99999899999999978e-03  1.83736099999999986e-02
1.20000000000000002e-02  3.00000000000000006e-03  2.61487999999999998e-02
1.20000000000000002e-02  3.00000000000000006e-03  2.92257200000000002e-02
1.20000000000000002e-02  5.99999899999999978e-03  2.45917899999999988e-02
1.20000000000000002e-02  3.00000000000000006e-03  3.23062299999999983e-02
1.20000000000000002e-02  3.00000000000000006e-03  3.53831599999999968e-02
1.20000000000000002e-02  5.99999899999999978e-03  3.07627200000000003e-02
1.20000000000000002e-02  2.99999900000000016e-03  3.84608300000000014e-02
1.20000000000000002e-02  2.99999900000000016e-03  4.15377499999999983e-02
1.20000000000000002e-02  5.99999899999999978e-03  3.69209100000000012e-02
1.20000000000000002e-02  2.99999799999999981e-03  4.46140500000000023e-02
1.20000000000000002e-02  2.99999799999999981e-03  4.76909800000000009e-02
1.20000000000000002e-02  5.99999800000000031e-03  4.30748800000000029e-02
1.20000000000000002e-02  2.99999699999999991e-03  5.07646900000000012e-02
1.20000000000000002e-02  2.99999699999999991e-03  5.38416099999999981e-02
1.20000000000000002e-02  5.99999500000000015e-03  4.92249000000000020e-02
1.20000000000000002e-02  2.99999299999999984e-03  5.69065799999999983e-02
1.20000000000000002e-02  2.99999299999999984e-03  5.99835000000000021e-02
1.20000000000000002e-02  5.99999000000000018e-03  5.53635800000000025e-02
1.20000000000000002e-02  2.99998900000000021e-03  6.30174200000000045e-02
1.20000000000000002e-02  2.99998900000000021e-03  6.60943499999999962e-02
1.20000000000000002e-02  5.99998200000000006e-03  6.14624599999999965e-02
1.20000000000000002e-02  2.99998799999999987e-03  6.90248100000000059e-02
1.20000000000000002e-02  2.99998799999999987e-03  7.21017300000000028e-02
1.20000000000000002e-02  5.99997700000000009e-03  6.74268400000000018e-02
1.20000000000000002e-02  2.99998699999999997e-03  7.47517600000000004e-02
1.20000000000000002e-02  2.99998699999999997e-03  7.78286799999999973e-02
1.20000000000000002e-02  5.99998700000000003e-03  7.78286799999999973e-02
1.20000000000000002e-02  5.99997500000000027e-03  7.30073299999999953e-02
1.20000000000000002e-02  8.99998699999999922e-03  7.78286799999999973e-02
1.20000000000000002e-02  8.99999999999999932e-03  3.07692300000000007e-03
[...]
POINT_DATA 281

SCALARS Rank unsigned_int
LOOKUP_TABLE default
0 0 0 0 0 0 0 0 0 0 0 0 0 0 0 0 0 0 0 0 0 0 0 0 0 0 0 0 0 0 0 0 0 0 0 0 0 0 0 0 0 0 0 0 0 0 0 0 0 0 0 0 0 0 0 0 0 0 0 0 0 0 0 0 0 0 0 0 0 0 0 0 0 0 0 0 0 0 0 0 0 0 0 0 0 0 0 0 0 0 0 0 0 0 0 0 0 0 0 0 0 0 0 0 0 0 0 0 0 0 0 0 0 0 0 0 0 0 0 0 0 0 0 0 0 0 0 0 0 0 0 0 0 0 0 0 0 0 0 0 0 0 0 0 0 0 0 0 0 0 0 0 0 0 0 0 0 0 0 0 0 0 0 0 0 0 0 0 0 0 0 0 0 0 0 0 0 0 0 0 0 0 0 0 0 0 0 0 0 0 0 0 0 0 0 0 0 0 0 0 0 0 0 0 0 0 0 0 0 0 0 0 0 0 0 0 0 0 0 0 0 0 0 0 0 0 0 0 0 0 0 0 0 0 0 0 0 0 0 0 0 0 0 0 0 0 0 0 0 0 0 0 0 0 0 0 0 0 0 0 0 0 0 0 0 0 0 0 0 0 0 0 0 0 0 0 0 0 0 0 0 

VECTORS Forces0 double
2.09663432222022213e-05 0.00000000000000000e+00 2.73872128535950932e-07 
2.00024888507024304e-05 0.00000000000000000e+00 -1.92482821287540636e-07 
1.58435026591094693e-05 0.00000000000000000e+00 1.39978085262021041e-07 
1.11626966199966668e-05 0.00000000000000000e+00 -1.03831911081569320e-07 
6.80723701216652903e-06 0.00000000000000000e+00 1.35250742419806484e-07 
2.82185878081268154e-06 0.00000000000000000e+00 -2.99917920483208977e-07 
1.29981374183586948e-06 0.00000000000000000e+00 -8.18799582361357350e-07 
2.10251057968445138e-05 0.00000000000000000e+00 6.38191987225442379e-08 
1.82050577253238963e-05 0.00000000000000000e+00 -1.58049632155011375e-07 
1.34380843752128923e-05 0.00000000000000000e+00 2.53789620029481772e-07 
8.99589500069510678e-06 0.00000000000000000e+00 -3.82883425838358994e-07 
4.71439990745725708e-06 0.00000000000000000e+00 6.28058867517515366e-07 
1.97868717380150526e-05 0.00000000000000000e+00 2.52312898166329006e-08 
2.12428407003829774e-05 0.00000000000000000e+00 2.49391164665104536e-07 
2.07780566533279842e-05 0.00000000000000000e+00 2.65163521727250829e-07 
1.94986305391207080e-05 0.00000000000000000e+00 -2.17152123574533217e-07 
2.04479652864045999e-05 0.00000000000000000e+00 -1.48856075203881095e-07 
1.53438197417091765e-05 0.00000000000000000e+00 2.06264626489089841e-07 
1.63787481805736220e-05 0.00000000000000000e+00 6.15222646921850457e-08 
1.05572249947545481e-05 0.00000000000000000e+00 -2.19945706086521499e-07 
1.18016832758935313e-05 0.00000000000000000e+00 1.50104529806221846e-08 
6.31334850781779937e-06 0.00000000000000000e+00 3.40593625446126829e-07 
7.29974723363814222e-06 0.00000000000000000e+00 -5.99802841918202158e-08 
2.27355856616775103e-06 0.00000000000000000e+00 -6.70078483067553874e-07 
3.26178700121590363e-06 0.00000000000000000e+00 9.98523607021147308e-09 
7.93609832834483727e-07 0.00000000000000000e+00 -3.09029277498881739e-07 
1.52806417187618462e-06 0.00000000000000000e+00 -8.93247385840411186e-07 
2.00612772118792678e-06 0.00000000000000000e+00 -8.08489338404714608e-07 
7.93609832845126696e-07 0.00000000000000000e+00 -3.09029277490582510e-07 
1.52806417188275844e-06 0.00000000000000000e+00 -8.93247385847479041e-07 
7.93609832843837512e-07 0.00000000000000000e+00 -3.09029277488864728e-07 
1.97868717380176818e-05 0.00000000000000000e+00 2.52312897765925944e-08 
2.07780566533272931e-05 0.00000000000000000e+00 2.65163521634468217e-07 
2.12428407003808666e-05 0.00000000000000000e+00 2.49391164647311868e-07 
2.04479652864083031e-05 0.00000000000000000e+00 -1.48856075202118632e-07 
1.94986305391172724e-05 0.00000000000000000e+00 -2.17152123562659616e-07 
1.63787481805754346e-05 0.00000000000000000e+00 6.15222646892860754e-08 
1.53438197417133507e-05 0.00000000000000000e+00 2.06264626482842338e-07 
1.18016832758964247e-05 0.00000000000000000e+00 1.50104529540698193e-08 
1.05572249947533199e-05 0.00000000000000000e+00 -2.19945706093220259e-07 
7.29974723364173364e-06 0.00000000000000000e+00 -5.99802842086636777e-08 
6.31334850781624083e-06 0.00000000000000000e+00 3.40593625437818283e-07 
3.26178700121846167e-06 0.00000000000000000e+00 9.98523605731709052e-09 
2.27355856615992445e-06 0.00000000000000000e+00 -6.70078483054343760e-07 
2.02514556356519088e-05 0.00000000000000000e+00 1.32153878177440129e-07 
2.12271258272456753e-05 0.00000000000000000e+00 1.32332726418841497e-07 
2.13879094670048429e-05 0.00000000000000000e+00 2.05209931845622039e-07 
2.08303436347019810e-05 0.00000000000000000e+00 -1.42916964016852505e-08 
2.06682950210188884e-05 0.00000000000000000e+00 -8.48933200475494128e-08 
1.69770485457039323e-05 0.00000000000000000e+00 -2.03112606745468430e-08 
1.76212509817362615e-05 0.00000000000000000e+00 -9.58434282903895998e-08 
1.86189333860564034e-05 0.00000000000000000e+00 -1.99720276085276193e-07 
1.76212509817377082e-05 0.00000000000000000e+00 -9.58434283156877740e-08 
1.23615247378245345e-05 0.00000000000000000e+00 1.21666298803258915e-07 
1.28766974236070655e-05 0.00000000000000000e+00 2.03186251458432721e-07 
1.40683229882365505e-05 0.00000000000000000e+00 2.69257227188271777e-07 
1.28766974236016885e-05 0.00000000000000000e+00 2.03186251451694998e-07 
7.83519112116236208e-06 0.00000000000000000e+00 -2.24241066305535693e-07 
8.40573494071191420e-06 0.00000000000000000e+00 -3.32710447358344647e-07 
9.50793990196025146e-06 0.00000000000000000e+00 -3.73930792871678034e-07 
8.40573494070928501e-06 0.00000000000000000e+00 -3.32710447366092245e-07 
3.78054266852415144e-06 0.00000000000000000e+00 3.34466824759275963e-07 
4.19711977931129295e-06 0.00000000000000000e+00 5.19680683601391693e-07 
5.22319309727377722e-06 0.00000000000000000e+00 6.13902205153036953e-07 
4.19711977930800646e-06 0.00000000000000000e+00 5.19680683542286369e-07 
1.00083584166267439e-05 0.00000000000000000e+00 -3.15471209975972217e-07 
2.08303436347056335e-05 0.00000000000000000e+00 -1.42916963996285486e-08 
1.90358401970660075e-05 0.00000000000000000e+00 -2.20033437039751752e-07 
1.86189333860536421e-05 0.00000000000000000e+00 -1.99720276083794097e-07 
2.12271258272468781e-05 0.00000000000000000e+00 1.32332726425959538e-07 
1.47398402092705419e-05 0.00000000000000000e+00 2.52010963382845224e-07 
1.40683229882330844e-05 0.00000000000000000e+00 2.69257227197273407e-07 
9.50793990196301278e-06 0.00000000000000000e+00 -3.73930792868250939e-07 
5.78202677757736044e-06 0.00000000000000000e+00 5.06215123867212375e-07 
5.22319309727300134e-06 0.00000000000000000e+00 6.13902205123379153e-07 
1.64114662322756671e-06 0.00000000000000000e+00 9.82339031605020943e-07 
3.75462638743142069e-07 0.00000000000000000e+00 9.92344262510232801e-07 
-1.25489606038834740e-06 0.00000000000000000e+00 -3.88976997465123836e-07 
-1.25489606040089026e-06 0.00000000000000000e+00 -3.88976997483847499e-07 
-1.25489606039404285e-06 0.00000000000000000e+00 -3.88976997498192637e-07 
1.64114662322459024e-06 0.00000000000000000e+00 9.82339031619273119e-07 
-1.25489606039114938e-06 0.00000000000000000e+00 -3.88976997512249361e-07 
1.83786255654000037e-05 0.00000000000000000e+00 -3.86293989420001728e-07 
-7.54196599025076690e-07 0.00000000000000000e+00 2.74589030372325509e-07 
-3.08294048995442420e-07 0.00000000000000000e+00 6.59736908960955236e-08 
4.69229021172903442e-08 0.00000000000000000e+00 -1.88155634569179251e-07 
3.96351641834053063e-07 0.00000000000000000e+00 -1.53010222683522981e-07 
8.26433541601887798e-07 0.00000000000000000e+00 1.44018409813649514e-07 
1.40692601101111185e-06 0.00000000000000000e+00 2.56782622100675142e-07 
2.14143641909354888e-06 0.00000000000000000e+00 -1.03745216863526912e-07 
2.93344726907542489e-06 0.00000000000000000e+00 -3.88944866210833393e-07 
3.56464574224696246e-06 0.00000000000000000e+00 1.25296761951334540e-07 
3.82750022194604352e-06 0.00000000000000000e+00 6.15505031410619455e-07 
3.57390920353411211e-06 0.00000000000000000e+00 -3.19379914286003160e-07 
2.79490465089009806e-06 0.00000000000000000e+00 -8.46307301814907174e-07 
-1.13922108759623007e-06 0.00000000000000000e+00 2.51308300225669766e-08 
-8.45292194107531930e-07 0.00000000000000000e+00 2.65480745991444939e-07 
-6.26916372069586271e-07 0.00000000000000000e+00 2.51514679679961085e-07 
-4.03436407958047475e-07 0.00000000000000000e+00 1.34966685201286119e-07 
-2.09377359854185626e-07 0.00000000000000000e+00 -1.18137686695906766e-08 
-5.27421131059678044e-07 0.00000000000000000e+00 2.08482226119390643e-07 
-3.34937614359610108e-08 0.00000000000000000e+00 -1.44138230630481937e-07 
1.30311721123626182e-07 0.00000000000000000e+00 -2.13307824780199020e-07 
-1.22145946762019483e-07 0.00000000000000000e+00 -8.13893955780107621e-08 
3.04156388691034484e-07 0.00000000000000000e+00 -1.95374382289783017e-07 
4.90262301807525034e-07 0.00000000000000000e+00 -9.08235208497009810e-08 
2.14049052086620967e-07 0.00000000000000000e+00 -2.16212135990233069e-07 
7.01670822478566336e-07 0.00000000000000000e+00 6.58330966700042082e-08 
9.64193440744492136e-07 0.00000000000000000e+00 2.10070606548912478e-07 
5.89349785421846741e-07 0.00000000000000000e+00 -1.56669983646333735e-08 
1.24774422703293027e-06 0.00000000000000000e+00 2.72800543851988956e-07 
1.58359681194752615e-06 0.00000000000000000e+00 2.05114977981278580e-07 
1.10284511279507871e-06 0.00000000000000000e+00 2.55726398889191138e-07 
1.96076967366548788e-06 0.00000000000000000e+00 1.48666288572816610e-08 
2.33164775860457195e-06 0.00000000000000000e+00 -2.20348378349653828e-07 
1.77256763965172367e-06 0.00000000000000000e+00 1.22226104490854222e-07 
2.73830420469387807e-06 0.00000000000000000e+00 -3.78315930232095308e-07 
3.10109453043445305e-06 0.00000000000000000e+00 -3.38041799879439888e-07 
2.53133134046558435e-06 0.00000000000000000e+00 -3.17394094472693287e-07 
3.41656436160508628e-06 0.00000000000000000e+00 -6.68256200031228685e-08 
3.69290169323378738e-06 0.00000000000000000e+00 3.27413434661580438e-07 
3.25895071513177429e-06 0.00000000000000000e+00 -2.29441625727222718e-07 
3.80486729506902285e-06 0.00000000000000000e+00 6.02560264796615768e-07 
3.83021069724441848e-06 0.00000000000000000e+00 5.03210678314079064e-07 
3.76187475792349646e-06 0.00000000000000000e+00 4.94067445119705898e-07 
3.70606627016885159e-06 0.00000000000000000e+00 -1.11111257816181374e-08 
3.36276246612167567e-06 0.00000000000000000e+00 -6.89662078132330386e-07 
3.80538920071778612e-06 0.00000000000000000e+00 3.13941150882287153e-07 
2.96347503761784368e-06 0.00000000000000000e+00 -9.18815530689441941e-07 
2.26184650206755046e-06 0.00000000000000000e+00 -3.28631490055579076e-07 
2.26184650207108683e-06 0.00000000000000000e+00 -3.28631490040189335e-07 
3.23811909758675888e-06 0.00000000000000000e+00 -8.29524106445408197e-07 
2.26184650207080053e-06 0.00000000000000000e+00 -3.28631490062162640e-07 
-1.13922108759245569e-06 0.00000000000000000e+00 2.51308299489187324e-08 
-6.26916372069299974e-07 0.00000000000000000e+00 2.51514679736931462e-07 
-8.45292194114672418e-07 0.00000000000000000e+00 2.65480745966249838e-07 
-2.09377359854203413e-07 0.00000000000000000e+00 -1.18137686874150027e-08 
-4.03436407961483888e-07 0.00000000000000000e+00 1.34966685162946126e-07 
1.30311721122898581e-07 0.00000000000000000e+00 -2.13307824792511703e-07 
-3.34937614398268692e-08 0.00000000000000000e+00 -1.44138230595972544e-07 
4.90262301809365637e-07 0.00000000000000000e+00 -9.08235208631732518e-08 
3.04156388688992288e-07 0.00000000000000000e+00 -1.95374382278545854e-07 
9.64193440743510848e-07 0.00000000000000000e+00 2.10070606554720794e-07 
7.01670822478935642e-07 0.00000000000000000e+00 6.58330966692137147e-08 
1.58359681194683285e-06 0.00000000000000000e+00 2.05114977973869954e-07 
1.24774422703205528e-06 0.00000000000000000e+00 2.72800543845290513e-07 
2.33164775860492517e-06 0.00000000000000000e+00 -2.20348378353081982e-07 
1.96076967366103969e-06 0.00000000000000000e+00 1.48666288636336935e-08 
3.10109453043495619e-06 0.00000000000000000e+00 -3.38041799877732587e-07 
2.73830420469724545e-06 0.00000000000000000e+00 -3.78315930226689332e-07 
3.69290169323445738e-06 0.00000000000000000e+00 3.27413434665838684e-07 
3.41656436160560932e-06 0.00000000000000000e+00 -6.68256200022496834e-08 
3.83021069724523756e-06 0.00000000000000000e+00 5.03210678312524759e-07 
3.80486729506761847e-06 0.00000000000000000e+00 6.02560264822716241e-07 
3.36276246611919979e-06 0.00000000000000000e+00 -6.89662078135741388e-07 
3.70606627017477827e-06 0.00000000000000000e+00 -1.11111257970366782e-08 
-1.06509700097160576e-06 0.00000000000000000e+00 1.32856238303979821e-07 
2.96347503762348577e-06 0.00000000000000000e+00 -9.18815530678878804e-07 
3.75462638741553035e-07 0.00000000000000000e+00 9.92344262532753713e-07 
2.05930247143749600e-05 0.00000000000000000e+00 2.31112443422560469e-07 
2.13794071675566049e-05 0.00000000000000000e+00 1.92700464243354724e-07 
2.06588223146504389e-05 0.00000000000000000e+00 -8.87420514641573803e-08 
1.90291573191306368e-05 0.00000000000000000e+00 -2.19900883140244281e-07 
1.69743955985452656e-05 0.00000000000000000e+00 -1.99736257197458986e-08 
1.47388961509666343e-05 0.00000000000000000e+00 2.52056634096943041e-07 
1.23608503150383977e-05 0.00000000000000000e+00 1.21539639543941030e-07 
1.00063665147103598e-05 0.00000000000000000e+00 -3.15774862445053698e-07 
7.82756466474168488e-06 0.00000000000000000e+00 -2.22338388362631104e-07 
5.75428609116070561e-06 0.00000000000000000e+00 5.13307925936725980e-07 
3.69741344786367432e-06 0.00000000000000000e+00 2.87777955282810266e-07 
1.76967028166012523e-06 0.00000000000000000e+00 -8.84972432665643433e-07 
1.97868717380115832e-05 0.00000000000000000e+00 2.52312897737772686e-08 
2.10506976041038438e-05 0.00000000000000000e+00 2.70672062394395047e-07 
2.10066448606557918e-05 0.00000000000000000e+00 5.71146784612991017e-08 
1.99904306100224387e-05 0.00000000000000000e+00 -1.93314808374596588e-07 
1.82020391001713255e-05 0.00000000000000000e+00 -1.57705997549764073e-07 
1.58425458095758215e-05 0.00000000000000000e+00 1.40117164318654955e-07 
1.34375379644585893e-05 0.00000000000000000e+00 2.53759207002536016e-07 
1.11616028205133202e-05 0.00000000000000000e+00 -1.04040320048769953e-07 
8.99251447368130097e-06 0.00000000000000000e+00 -3.82768754472350847e-07 
6.79683299942192981e-06 0.00000000000000000e+00 1.39662230855760018e-07 
4.67471482734478307e-06 0.00000000000000000e+00 6.24586192874030442e-07 
2.68869743263803496e-06 0.00000000000000000e+00 -3.94113149064931072e-07 
9.95774016798489739e-07 0.00000000000000000e+00 -5.99937551568486819e-07 
5.45001753009985754e-07 0.00000000000000000e+00 1.41708936092126766e-05 
5.45001753005891196e-07 0.00000000000000000e+00 1.41708936091966304e-05 
1.43098719682241931e-06 0.00000000000000000e+00 1.41664767870681086e-05 
1.43098719682051602e-06 0.00000000000000000e+00 1.41664767870285861e-05 
9.79778862440433314e-07 0.00000000000000000e+00 2.53405196008632526e-05 
9.79778862442339138e-07 0.00000000000000000e+00 2.53405196008730037e-05 
5.45001753008396720e-07 0.00000000000000000e+00 1.41708936091941011e-05 
1.43098719682482742e-06 0.00000000000000000e+00 1.41664767870377306e-05 
1.64114662322787164e-06 0.00000000000000000e+00 9.82339031637844316e-07 
1.64114662322477658e-06 0.00000000000000000e+00 9.82339031629340106e-07 
1.64114662322850184e-06 0.00000000000000000e+00 9.82339031635761462e-07 
3.75462638744659952e-07 0.00000000000000000e+00 9.92344262571174281e-07 
3.75462638744082275e-07 0.00000000000000000e+00 9.92344262545863242e-07 
3.75462638747848184e-07 0.00000000000000000e+00 9.92344262540500676e-07 
-9.37174594800945735e-07 0.00000000000000000e+00 2.31498882759474168e-07 
-5.03888236882059084e-07 0.00000000000000000e+00 1.95966113907914720e-07 
-1.17227686797503697e-07 0.00000000000000000e+00 -8.51646851255504304e-08 
2.15371786589937453e-07 0.00000000000000000e+00 -2.16075488428891617e-07 
5.89794191687399687e-07 0.00000000000000000e+00 -1.53304328957627041e-08 
1.10304077762108698e-06 0.00000000000000000e+00 2.55772210668955748e-07 
1.77282360028833854e-06 0.00000000000000000e+00 1.22097614418330530e-07 
2.53211301510303199e-06 0.00000000000000000e+00 -3.17705218654044135e-07 
3.26111692071649497e-06 0.00000000000000000e+00 -2.27551147672478463e-07 
3.76450898282351496e-06 0.00000000000000000e+00 5.01233237650253256e-07 
3.79572227221383118e-06 0.00000000000000000e+00 2.66599973362741992e-07 
3.11258496867358322e-06 0.00000000000000000e+00 -9.07995511335563907e-07 
-1.13922108759519838e-06 0.00000000000000000e+00 2.51308299815784170e-08 
-7.15255803839151235e-07 0.00000000000000000e+00 2.71719561646723045e-07 
-2.99568235170687282e-07 0.00000000000000000e+00 5.92578110868103186e-08 
4.88843269274325280e-08 0.00000000000000000e+00 -1.89002772901909044e-07 
3.96969123032509954e-07 0.00000000000000000e+00 -1.52663017643543874e-07 
8.26683018432661548e-07 0.00000000000000000e+00 1.44157488336247683e-07 
1.40708002125175671e-06 0.00000000000000000e+00 2.56751465137429600e-07 
2.14175648256618719e-06 0.00000000000000000e+00 -1.03953638493543350e-07 
2.93448752783516410e-06 0.00000000000000000e+00 -3.88828886392984328e-07 
3.56769877493927330e-06 0.00000000000000000e+00 1.29625491733996300e-07 
3.82856095676042669e-06 0.00000000000000000e+00 6.11830248770330772e-07 
3.52756055625129347e-06 0.00000000000000000e+00 -4.13278400670981356e-07 
2.50184416718417857e-06 0.00000000000000000e+00 -6.24159022783527497e-07 
1.83786255653961954e-05 0.00000000000000000e+00 -3.86293989376752014e-07 
1.83786255653981199e-05 0.00000000000000000e+00 -3.86293989323315458e-07 
1.83786255653982147e-05 0.00000000000000000e+00 -3.86293989334577608e-07 
9.79778862439056038e-07 0.00000000000000000e+00 2.53405196008481178e-05 
5.45001753005684520e-07 0.00000000000000000e+00 1.41708936091912229e-05 
1.43098719681939540e-06 0.00000000000000000e+00 1.41664767870674090e-05 
-9.37174594800520524e-07 0.00000000000000000e+00 2.31498882748184913e-07 
-5.03888236878180520e-07 0.00000000000000000e+00 1.95966113944484414e-07 
-1.17227686796166232e-07 0.00000000000000000e+00 -8.51646851178360778e-08 
2.15371786592462458e-07 0.00000000000000000e+00 -2.16075488422446119e-07 
5.89794191685001737e-07 0.00000000000000000e+00 -1.53304328997687464e-08 
1.10304077761998923e-06 0.00000000000000000e+00 2.55772210670001410e-07 
1.77282360028830381e-06 0.00000000000000000e+00 1.22097614425964335e-07 
2.53211301510158229e-06 0.00000000000000000e+00 -3.17705218658518798e-07 
3.26111692071614134e-06 0.00000000000000000e+00 -2.27551147660708623e-07 
3.76450898282393509e-06 0.00000000000000000e+00 5.01233237645939952e-07 
3.79572227221490437e-06 0.00000000000000000e+00 2.66599973368857570e-07 
3.11258496867419139e-06 0.00000000000000000e+00 -9.07995511316216933e-07 
-1.13922108759945049e-06 0.00000000000000000e+00 2.51308299869114423e-08 
-7.15255803845177028e-07 0.00000000000000000e+00 2.71719561661388468e-07 
-2.99568235171709650e-07 0.00000000000000000e+00 5.92578111152843899e-08 
4.88843269284667552e-08 0.00000000000000000e+00 -1.89002772911770202e-07 
3.96969123030299198e-07 0.00000000000000000e+00 -1.52663017643563991e-07 
8.26683018432378216e-07 0.00000000000000000e+00 1.44157488331177344e-07 
1.40708002124885817e-06 0.00000000000000000e+00 2.56751465147793472e-07 
2.14175648256695375e-06 0.00000000000000000e+00 -1.03953638483445288e-07 
2.93448752783837944e-06 0.00000000000000000e+00 -3.88828886399228020e-07 
3.56769877494154589e-06 0.00000000000000000e+00 1.29625491730086608e-07 
3.82856095676162778e-06 0.00000000000000000e+00 6.11830248765897401e-07 
3.52756055624916572e-06 0.00000000000000000e+00 -4.13278400660620661e-07 
2.50184416718884826e-06 0.00000000000000000e+00 -6.24159022793195955e-07 
1.83786255653953755e-05 0.00000000000000000e+00 -3.86293989350777749e-07 
2.05930247143729136e-05 0.00000000000000000e+00 2.31112443422969268e-07 
2.13794071675594984e-05 0.00000000000000000e+00 1.92700464280013569e-07 
2.06588223146531900e-05 0.00000000000000000e+00 -8.87420514675722995e-08 
1.90291573191301489e-05 0.00000000000000000e+00 -2.19900883159588290e-07 
1.69743955985442424e-05 0.00000000000000000e+00 -1.99736257158443589e-08 
1.47388961509696480e-05 0.00000000000000000e+00 2.52056634097650737e-07 
1.23608503150388195e-05 0.00000000000000000e+00 1.21539639532444251e-07 