# vtk DataFile Version 2.0

ASCII

DATASET UNSTRUCTURED_GRID

POINTS 281 double 

0.00000000000000000e+00  6.00000000000000012e-03  8.68039800000000063e-03
0.00000000000000000e+00  6.00000000000000012e-03  2.15013699999999988e-02
0.00000000000000000e+00  5.99999699999999997e-03  3.38432499999999983e-02
0.00000000000000000e+00  6.00000000000000012e-03  4.61511800000000000e-02
0.00000000000000000e+00  5.99999399999999981e-03  5.84285100000000029e-02
0.00000000000000000e+00  5.99999899999999978e-03  7.03572799999999943e-02
0.00000000000000000e+00  6.00000000000000012e-03  7.56573400000000035e-02
0.00000000000000000e+00  6.00000000000000012e-03  1.52458600000000000e-02
0.00000000000000000e+00  5.99999899999999978e-03  2.76822099999999988e-02
0.00000000000000000e+00  5.99999899999999978e-03  3.99985900000000005e-02
0.00000000000000000e+00  5.99999800000000031e-03  5.22986000000000006e-02
0.00000000000000000e+00  5.99999800000000031e-03  6.44963600000000026e-02
0.00000000000000000e+00  3.00000000000000006e-03  3.07692300000000007e-03
0.00000000000000000e+00  3.00000000000000006e-03  1.04940499999999996e-02
0.00000000000000000e+00  3.00000000000000006e-03  7.41712199999999995e-03
0.00000000000000000e+00  3.00000000000000006e-03  2.30583799999999998e-02
0.00000000000000000e+00  3.00000000000000006e-03  1.99814599999999995e-02
0.00000000000000000e+00  2.99999900000000016e-03  3.53831699999999985e-02
0.00000000000000000e+00  2.99999900000000016e-03  3.23062400000000000e-02
0.00000000000000000e+00  3.00000000000000006e-03  4.76909699999999992e-02
0.00000000000000000e+00  3.00000000000000006e-03  4.46140500000000023e-02
0.00000000000000000e+00  2.99999699999999991e-03  5.99834799999999987e-02
0.00000000000000000e+00  2.99999699999999991e-03  5.69065600000000019e-02
0.00000000000000000e+00  2.99999900000000016e-03  7.21017199999999941e-02
0.00000000000000000e+00  2.99999900000000016e-03  6.90247900000000025e-02
0.00000000000000000e+00  3.00000000000000006e-03  7.78286700000000026e-02
0.00000000000000000e+00  3.00000000000000006e-03  7.47517500000000057e-02
0.00000000000000000e+00  5.99999899999999978e-03  7.30073100000000058e-02
0.00000000000000000e+00  6.00000000000000012e-03  7.78286700000000026e-02
0.00000000000000000e+00  8.99999999999999932e-03  7.47517500000000057e-02
0.00000000000000000e+00  8.99999999999999932e-03  7.78286700000000026e-02
0.00000000000000000e+00  8.99999999999999932e-03  3.07692300000000007e-03
0.00000000000000000e+00  8.99999999999999932e-03  7.41712199999999995e-03
0.00000000000000000e+00  8.99999999999999932e-03  1.04940499999999996e-02
0.00000000000000000e+00  8.99999999999999932e-03  1.99814599999999995e-02
0.00000000000000000e+00  8.99999999999999932e-03  2.30583799999999998e-02
0.00000000000000000e+00  8.99999899999999985e-03  3.23062400000000000e-02
0.00000000000000000e+00  8.99999899999999985e-03  3.53831699999999985e-02
0.00000000000000000e+00  8.99999999999999932e-03  4.46140500000000023e-02
0.00000000000000000e+00  8.99999999999999932e-03  4.76909699999999992e-02
0.00000000000000000e+00  8.99999699999999916e-03  5.69065600000000019e-02
0.00000000000000000e+00  8.99999699999999916e-03  5.99834799999999987e-02
0.00000000000000000e+00  8.99999899999999985e-03  6.90247900000000025e-02
0.00000000000000000e+00  8.99999899999999985e-03  7.21017199999999941e-02
0.00000000000000000e+00  6.00000000000000012e-03  4.34019900000000031e-03
0.00000000000000000e+00  3.00000000000000006e-03  1.37767800000000006e-02
0.00000000000000000e+00  6.00000000000000012e-03  1.19631300000000006e-02
0.00000000000000000e+00  3.00000000000000006e-03  1.68536999999999992e-02
0.00000000000000000e+00  6.00000000000000012e-03  1.83736200000000002e-02
0.00000000000000000e+00  5.99999800000000031e-03  3.07627299999999985e-02
0.00000000000000000e+00  3.00000000000000006e-03  2.92257200000000002e-02
0.00000000000000000e+00  3.00000000000000006e-03  2.61487999999999998e-02
0.00000000000000000e+00  8.99999999999999932e-03  2.92257200000000002e-02
0.00000000000000000e+00  6.00000000000000012e-03  4.30748800000000029e-02
0.00000000000000000e+00  2.99999900000000016e-03  4.15377600000000000e-02
0.00000000000000000e+00  2.99999900000000016e-03  3.84608300000000014e-02
0.00000000000000000e+00  8.99999899999999985e-03  4.15377600000000000e-02
0.00000000000000000e+00  5.99999599999999963e-03  5.53635499999999975e-02
0.00000000000000000e+00  2.99999900000000016e-03  5.38416099999999981e-02
0.00000000000000000e+00  2.99999900000000016e-03  5.07646799999999995e-02
0.00000000000000000e+00  8.99999899999999985e-03  5.38416099999999981e-02
0.00000000000000000e+00  5.99999800000000031e-03  6.74268199999999984e-02
0.00000000000000000e+00  2.99999900000000016e-03  6.60943300000000067e-02
0.00000000000000000e+00  2.99999900000000016e-03  6.30174099999999959e-02
0.00000000000000000e+00  8.99999899999999985e-03  6.60943300000000067e-02
0.00000000000000000e+00  5.99999899999999978e-03  4.92248900000000003e-02
0.00000000000000000e+00  8.99999999999999932e-03  1.68536999999999992e-02
0.00000000000000000e+00  5.99999899999999978e-03  2.45917899999999988e-02
0.00000000000000000e+00  8.99999999999999932e-03  2.61487999999999998e-02
0.00000000000000000e+00  8.99999999999999932e-03  1.37767800000000006e-02
0.00000000000000000e+00  5.99999800000000031e-03  3.69209200000000029e-02
0.00000000000000000e+00  8.99999899999999985e-03  3.84608300000000014e-02
0.00000000000000000e+00  8.99999899999999985e-03  5.07646799999999995e-02
0.00000000000000000e+00  5.99999599999999963e-03  6.14624299999999985e-02
0.00000000000000000e+00  8.99999899999999985e-03  6.30174099999999959e-02
1.20000000000000002e-02  1.20000000000000002e-02  8.00000000000000017e-02
0.00000000000000000e+00  0.00000000000000000e+00  8.00000000000000017e-02
1.20000000000000002e-02  6.00000000000000012e-03  0.00000000000000000e+00
1.20000000000000002e-02  3.00000000000000006e-03  0.00000000000000000e+00
1.20000000000000002e-02  8.99999999999999932e-03  0.00000000000000000e+00
1.20000000000000002e-02  0.00000000000000000e+00  8.00000000000000017e-02
1.20000000000000002e-02  0.00000000000000000e+00  0.00000000000000000e+00
0.00000000000000000e+00  1.20000000000000002e-02  0.00000000000000000e+00
1.20000000000000002e-02  5.99999899999999978e-03  8.68039699999999942e-03
1.20000000000000002e-02  5.99999899999999978e-03  1.52458600000000000e-02
1.20000000000000002e-02  5.99999899999999978e-03  2.15013699999999988e-02
1.20000000000000002e-02  6.00000000000000012e-03  2.76822099999999988e-02
1.20000000000000002e-02  5.99999899999999978e-03  3.38432399999999967e-02
1.20000000000000002e-02  5.99999800000000031e-03  3.99985900000000005e-02
1.20000000000000002e-02  5.99999699999999997e-03  4.61511800000000000e-02
1.20000000000000002e-02  5.99999300000000034e-03  5.22986100000000023e-02
1.20000000000000002e-02  5.99998599999999969e-03  5.84285400000000010e-02
1.20000000000000002e-02  5.99997800000000043e-03  6.44963800000000059e-02
1.20000000000000002e-02  5.99997500000000027e-03  7.03572999999999976e-02
1.20000000000000002e-02  5.99997500000000027e-03  7.56573600000000068e-02
1.20000000000000002e-02  3.00000000000000006e-03  3.07692300000000007e-03
1.20000000000000002e-02  3.00000000000000006e-03  7.41712099999999961e-03
1.20000000000000002e-02  3.00000000000000006e-03  1.04940399999999996e-02
1.20000000000000002e-02  2.99999900000000016e-03  1.37767800000000006e-02
1.20000000000000002e-02  2.99999900000000016e-03  1.68536999999999992e-02
1.20000000000000002e-02  5.99999899999999978e-03  1.19631300000000006e-02
1.20000000000000002e-02  3.00000000000000006e-03  1.99814500000000013e-02
1.20000000000000002e-02  3.00000000000000006e-03  2.30583799999999998e-02
1.20000000000000002e-02  5.99999899999999978e-03  1.83736099999999986e-02
1.20000000000000002e-02  3.00000000000000006e-03  2.61487999999999998e-02
1.20000000000000002e-02  3.00000000000000006e-03  2.92257200000000002e-02
1.20000000000000002e-02  5.99999899999999978e-03  2.45917899999999988e-02
1.20000000000000002e-02  3.00000000000000006e-03  3.23062299999999983e-02
1.20000000000000002e-02  3.00000000000000006e-03  3.53831599999999968e-02
1.20000000000000002e-02  5.99999899999999978e-03  3.07627200000000003e-02
1.20000000000000002e-02  2.99999900000000016e-03  3.84608300000000014e-02
1.20000000000000002e-02  2.99999900000000016e-03  4.15377499999999983e-02
1.20000000000000002e-02  5.99999899999999978e-03  3.69209100000000012e-02
1.20000000000000002e-02  2.99999799999999981e-03  4.46140500000000023e-02
1.20000000000000002e-02  2.99999799999999981e-03  4.76909800000000009e-02
1.20000000000000002e-02  5.99999800000000031e-03  4.30748800000000029e-02
1.20000000000000002e-02  2.99999699999999991e-03  5.07646900000000012e-02
1.20000000000000002e-02  2.99999699999999991e-03  5.38416099999999981e-02
1.20000000000000002e-02  5.99999500000000015e-03  4.92249000000000020e-02
1.20000000000000002e-02  2.99999299999999984e-03  5.69065799999999983e-02
1.20000000000000002e-02  2.99999299999999984e-03  5.99835000000000021e-02
1.20000000000000002e-02  5.99999000000000018e-03  5.53635800000000025e-02
1.20000000000000002e-02  2.99998900000000021e-03  6.30174200000000045e-02
1.20000000000000002e-02  2.99998900000000021e-03  6.60943499999999962e-02
1.20000000000000002e-02  5.99998200000000006e-03  6.14624599999999965e-02
1.20000000000000002e-02  2.99998799999999987e-03  6.90248100000000059e-02
1.20000000000000002e-02  2.99998799999999987e-03  7.21017300000000028e-02
1.20000000000000002e-02  5.99997700000000009e-03  6.74268400000000018e-02
1.20000000000000002e-02  2.99998699999999997e-03  7.47517600000000004e-02
1.20000000000000002e-02  2.99998699999999997e-03  7.78286799999999973e-02
1.20000000000000002e-02  5.99998700000000003e-03  7.78286799999999973e-02
1.20000000000000002e-02  5.99997500000000027e-03  7.30073299999999953e-02
1.20000000000000002e-02  8.99998699999999922e-03  7.78286799999999973e-02
1.20000000000000002e-02  8.99999999999999932e-03  3.07692300000000007e-03
[...]
POINT_DATA 281

SCALARS Rank unsigned_int
LOOKUP_TABLE default
0 0 0 0 0 0 0 0 0 0 0 0 0 0 0 0 0 0 0 0 0 0 0 0 0 0 0 0 0 0 0 0 0 0 0 0 0 0 0 0 0 0 0 0 0 0 0 0 0 0 0 0 0 0 0 0 0 0 0 0 0 0 0 0 0 0 0 0 0 0 0 0 0 0 0 0 0 0 0 0 0 0 0 0 0 0 0 0 0 0 0 0 0 0 0 0 0 0 0 0 0 0 0 0 0 0 0 0 0 0 0 0 0 0 0 0 0 0 0 0 0 0 0 0 0 0 0 0 0 0 0 0 0 0 0 0 0 0 0 0 0 0 0 0 0 0 0 0 0 0 0 0 0 0 0 0 0 0 0 0 0 0 0 0 0 0 0 0 0 0 0 0 0 0 0 0 0 0 0 0 0 0 0 0 0 0 0 0 0 0 0 0 0 0 0 0 0 0 0 0 0 0 0 0 0 0 0 0 0 0 0 0 0 0 0 0 0 0 0 0 0 0 0 0 0 0 0 0 0 0 0 0 0 0 0 0 0 0 0 0 0 0 0 0 0 0 0 0 0 0 0 0 0 0 0 0 0 0 0 0 0 0 0 0 0 0 0 0 0 0 0 0 0 0 0 0 0 0 0 0 0 

VECTORS Forces0 double
1.35675869894459223e-02 0.00000000000000000e+00 -3.81485369717449825e-03 
1.08841282493489493e-02 0.00000000000000000e+00 -5.83582321770631171e-03 
7.40934089472490998e-03 0.00000000000000000e+00 -5.86267866263497518e-03 
5.97601561821999375e-03 0.00000000000000000e+00 -6.08873290817843818e-03 
4.92555893143376174e-03 0.00000000000000000e+00 -5.55535050688767389e-03 
3.18200049963758861e-03 0.00000000000000000e+00 -3.67285003417276322e-03 
2.32047704456963752e-03 0.00000000000000000e+00 -2.65621774501708253e-03 
1.25474069787628005e-02 0.00000000000000000e+00 -5.09417003698967030e-03 
9.03186324946381701e-03 0.00000000000000000e+00 -6.02298472511544544e-03 
6.44639378104398895e-03 0.00000000000000000e+00 -5.88899284778024446e-03 
5.60784292965654449e-03 0.00000000000000000e+00 -6.13268616145500219e-03 
4.07693340188858191e-03 0.00000000000000000e+00 -4.66257565267224131e-03 
1.33477848177491771e-02 0.00000000000000000e+00 -2.53887163901902156e-03 
1.35325206856751739e-02 0.00000000000000000e+00 -4.28109986765278731e-03 
1.36102338252857957e-02 0.00000000000000000e+00 -3.51041895677879634e-03 
1.03102097118605903e-02 0.00000000000000000e+00 -5.83492357396124799e-03 
1.14326070084415001e-02 0.00000000000000000e+00 -5.80494640353838073e-03 
7.18800524258884996e-03 0.00000000000000000e+00 -5.94055525244865067e-03 
7.70456373310281304e-03 0.00000000000000000e+00 -5.83329339585279827e-03 
5.83610241969201304e-03 0.00000000000000000e+00 -6.05578227767251780e-03 
6.14961744790544235e-03 0.00000000000000000e+00 -6.15044363798985649e-03 
4.78268865845843209e-03 0.00000000000000000e+00 -5.44145901010625703e-03 
5.05920980561431078e-03 0.00000000000000000e+00 -5.65355493760673518e-03 
2.87093188043434193e-03 0.00000000000000000e+00 -3.30383776298702773e-03 
3.43143915643541551e-03 0.00000000000000000e+00 -3.97019010631189783e-03 
1.93255838253064260e-03 0.00000000000000000e+00 -2.15481283949415245e-03 
2.45559960362334807e-03 0.00000000000000000e+00 -2.81764802114722228e-03 
2.72191816795891439e-03 0.00000000000000000e+00 -3.12907108895339476e-03 
1.93255838252644283e-03 0.00000000000000000e+00 -2.15481283948859266e-03 
2.45559960362571683e-03 0.00000000000000000e+00 -2.81764802114249169e-03 
1.93255838253221014e-03 0.00000000000000000e+00 -2.15481283948845128e-03 
1.33477848177533890e-02 0.00000000000000000e+00 -2.53887163902257514e-03 
1.36102338252816601e-02 0.00000000000000000e+00 -3.51041895678594557e-03 
1.35325206856751375e-02 0.00000000000000000e+00 -4.28109986765484816e-03 
1.14326070084463938e-02 0.00000000000000000e+00 -5.80494640354292397e-03 
1.03102097118649514e-02 0.00000000000000000e+00 -5.83492357396398539e-03 
7.70456373309989697e-03 0.00000000000000000e+00 -5.83329339585271413e-03 
7.18800524258623400e-03 0.00000000000000000e+00 -5.94055525245021539e-03 
6.14961744790175867e-03 0.00000000000000000e+00 -6.15044363799102829e-03 
5.83610241968819492e-03 0.00000000000000000e+00 -6.05578227767499498e-03 
5.05920980560819241e-03 0.00000000000000000e+00 -5.65355493760909700e-03 
4.78268865846120245e-03 0.00000000000000000e+00 -5.44145901010612866e-03 
3.43143915643041864e-03 0.00000000000000000e+00 -3.97019010631762329e-03 
2.87093188043211194e-03 0.00000000000000000e+00 -3.30383776298507357e-03 
1.36446655865609581e-02 0.00000000000000000e+00 -2.84075719561163427e-03 
1.29760612280781940e-02 0.00000000000000000e+00 -4.90128291307446139e-03 
1.34379076934526137e-02 0.00000000000000000e+00 -4.63322112623864354e-03 
1.21352667264978953e-02 0.00000000000000000e+00 -5.33469407973506237e-03 
1.17995329644286964e-02 0.00000000000000000e+00 -5.58108846339854144e-03 
8.09441883587186557e-03 0.00000000000000000e+00 -5.87255356832711364e-03 
8.56716891753047001e-03 0.00000000000000000e+00 -5.96870009265490931e-03 
9.39798145063158383e-03 0.00000000000000000e+00 -5.94352806361639861e-03 
8.56716891752941877e-03 0.00000000000000000e+00 -5.96870009265698664e-03 
6.25265940594891059e-03 0.00000000000000000e+00 -6.09596833622927901e-03 
6.32212999893298072e-03 0.00000000000000000e+00 -5.97048730156609937e-03 
6.65379537686109062e-03 0.00000000000000000e+00 -5.88542107328893834e-03 
6.32212999892848952e-03 0.00000000000000000e+00 -5.97048730156455199e-03 
5.22179378901884653e-03 0.00000000000000000e+00 -5.78898074484553767e-03 
5.41521269539866745e-03 0.00000000000000000e+00 -5.96555080504508270e-03 
5.69377598007995544e-03 0.00000000000000000e+00 -6.13544765209754657e-03 
5.41521269539841157e-03 0.00000000000000000e+00 -5.96555080504493351e-03 
3.69287570567872116e-03 0.00000000000000000e+00 -4.26721028193059477e-03 
3.86438449042582127e-03 0.00000000000000000e+00 -4.44245577492540823e-03 
4.30000438459201672e-03 0.00000000000000000e+00 -4.90591236803285084e-03 
3.86438449042167832e-03 0.00000000000000000e+00 -4.44245577492714643e-03 
5.74532248717360503e-03 0.00000000000000000e+00 -6.07511937611908068e-03 
1.21352667264976420e-02 0.00000000000000000e+00 -5.33469407973633392e-03 
9.81243285053364639e-03 0.00000000000000000e+00 -5.86490900127739547e-03 
9.39798145063150750e-03 0.00000000000000000e+00 -5.94352806361566569e-03 
1.29760612280770266e-02 0.00000000000000000e+00 -4.90128291307276656e-03 
6.92714362886985048e-03 0.00000000000000000e+00 -5.93550224358736344e-03 
6.65379537686253044e-03 0.00000000000000000e+00 -5.88542107328923324e-03 
5.69377598008317509e-03 0.00000000000000000e+00 -6.13544765209779117e-03 
4.55400481229775202e-03 0.00000000000000000e+00 -5.19100590938753863e-03 
4.30000438459300291e-03 0.00000000000000000e+00 -4.90591236803338167e-03 
-7.51034741571922283e-04 0.00000000000000000e+00 6.89867347357992671e-04 
1.57081016221205278e-03 0.00000000000000000e+00 -1.66327516395405940e-03 
7.22616850284997909e-05 0.00000000000000000e+00 8.58186473751634533e-04 
7.22616850367015635e-05 0.00000000000000000e+00 8.58186473752769693e-04 
7.22616850330863998e-05 0.00000000000000000e+00 8.58186473752554804e-04 
-7.51034741570045313e-04 0.00000000000000000e+00 6.89867347348106915e-04 
7.22616850382107730e-05 0.00000000000000000e+00 8.58186473758072309e-04 
1.22776623549227925e-02 0.00000000000000000e+00 -1.82409199041731274e-03 
2.92543847150256446e-04 0.00000000000000000e+00 -8.72633694949700290e-05 
1.99637826388095418e-04 0.00000000000000000e+00 -3.67367825432439205e-04 
-7.45284778841724622e-05 0.00000000000000000e+00 -3.13204345765943578e-04 
-3.42469432730378959e-04 0.00000000000000000e+00 -8.07074574901359555e-05 
-4.45194637300100164e-04 0.00000000000000000e+00 1.37998954061044322e-04 
-3.22365544325099935e-04 0.00000000000000000e+00 1.96394114686352636e-04 
-4.34789058901670922e-05 0.00000000000000000e+00 8.32319042635297539e-05 
2.49273310107757449e-04 0.00000000000000000e+00 -1.04102134909006872e-04 
4.31240245622375843e-04 0.00000000000000000e+00 -2.58664012065203737e-04 
4.29686993846227733e-04 0.00000000000000000e+00 -3.08830040971166681e-04 
2.02942220696992836e-04 0.00000000000000000e+00 -1.80684701315877435e-04 
-2.31837262199391549e-04 0.00000000000000000e+00 1.77419349315567361e-04 
1.61203382396194172e-04 0.00000000000000000e+00 4.50986044793757199e-04 
2.78092814069766749e-04 0.00000000000000000e+00 1.08072523116207085e-05 
2.95469493308744683e-04 0.00000000000000000e+00 -2.03155345244113546e-04 
2.44191525657087621e-04 0.00000000000000000e+00 -3.37646895717085992e-04 
1.39838155100701093e-04 0.00000000000000000e+00 -3.79932017343562656e-04 
2.81337148185491486e-04 0.00000000000000000e+00 -2.75262698948670990e-04 
-3.81076979173285016e-07 0.00000000000000000e+00 -3.50063473914597194e-04 
-1.49887545655668107e-04 0.00000000000000000e+00 -2.64170338210939818e-04 
7.44659456272060417e-05 0.00000000000000000e+00 -3.73722770158937110e-04 
-2.86443081836914519e-04 0.00000000000000000e+00 -1.44727529128359792e-04 
-3.88182085510958169e-04 0.00000000000000000e+00 -1.73190392218636869e-05 
-2.20915692412277655e-04 0.00000000000000000e+00 -2.07367957377958833e-04 
-4.40680437846916698e-04 0.00000000000000000e+00 9.46366884288111837e-05 
-4.34827051867446254e-04 0.00000000000000000e+00 1.70321181904096764e-04 
-4.21378519057023521e-04 0.00000000000000000e+00 4.21223703266335766e-05 
-3.72343959433159841e-04 0.00000000000000000e+00 1.99796299414343033e-04 
-2.62083757479203200e-04 0.00000000000000000e+00 1.81189606233720995e-04 
-4.10261918550014406e-04 0.00000000000000000e+00 1.91264266973309823e-04 
-1.20086750505709258e-04 0.00000000000000000e+00 1.22677661971220994e-04 
3.40414976609093302e-05 0.00000000000000000e+00 3.86621783862179372e-05 
-1.93827149522262369e-04 0.00000000000000000e+00 1.56195827684030476e-04 
1.82531410026063440e-04 0.00000000000000000e+00 -5.69417170061653128e-05 
3.08896375131537397e-04 0.00000000000000000e+00 -1.49190181087976320e-04 
1.09922709256835726e-04 0.00000000000000000e+00 -8.36956865141549865e-06 
4.00754355292379520e-04 0.00000000000000000e+00 -2.27303386208818034e-04 
4.50520824185164767e-04 0.00000000000000000e+00 -2.84362196831189503e-04 
3.59291035432532911e-04 0.00000000000000000e+00 -1.89977015029359837e-04 
4.49738957156739212e-04 0.00000000000000000e+00 -3.09957413558904326e-04 
3.92163125055596310e-04 0.00000000000000000e+00 -2.95616773664859292e-04 
4.56741760019412351e-04 0.00000000000000000e+00 -3.01045657508916943e-04 
2.76816883078176543e-04 0.00000000000000000e+00 -2.30861560839143421e-04 
8.50481103832519938e-05 0.00000000000000000e+00 -9.25089991634359918e-05 
3.47634941409228607e-04 0.00000000000000000e+00 -2.73387464151537507e-04 
-1.41210225114287059e-04 0.00000000000000000e+00 9.62167810128594354e-05 
-4.74329593728959990e-04 0.00000000000000000e+00 4.07797867850027301e-04 
-4.74329593725900047e-04 0.00000000000000000e+00 4.07797867854014129e-04 
1.41738182868073251e-05 0.00000000000000000e+00 -3.58206301154693026e-05 
-4.74329593730498040e-04 0.00000000000000000e+00 4.07797867847199485e-04 
1.61203382396664282e-04 0.00000000000000000e+00 4.50986044792873141e-04 
2.95469493307932833e-04 0.00000000000000000e+00 -2.03155345241232604e-04 
2.78092814076429822e-04 0.00000000000000000e+00 1.08072523100330028e-05 
1.39838155100775686e-04 0.00000000000000000e+00 -3.79932017343320662e-04 
2.44191525654811664e-04 0.00000000000000000e+00 -3.37646895713067288e-04 
-1.49887545655868467e-04 0.00000000000000000e+00 -2.64170338210465371e-04 
-3.81076980267895529e-07 0.00000000000000000e+00 -3.50063473911185210e-04 
-3.88182085511813387e-04 0.00000000000000000e+00 -1.73190392223971143e-05 
-2.86443081833286344e-04 0.00000000000000000e+00 -1.44727529129844282e-04 
-4.34827051866856448e-04 0.00000000000000000e+00 1.70321181904323145e-04 
-4.40680437846692051e-04 0.00000000000000000e+00 9.46366884285063060e-05 
-2.62083757481583674e-04 0.00000000000000000e+00 1.81189606235670824e-04 
-3.72343959433368875e-04 0.00000000000000000e+00 1.99796299414975340e-04 
3.40414976631453887e-05 0.00000000000000000e+00 3.86621783867218744e-05 
-1.20086750506393606e-04 0.00000000000000000e+00 1.22677661972564104e-04 
3.08896375133488527e-04 0.00000000000000000e+00 -1.49190181086351317e-04 
1.82531410024679131e-04 0.00000000000000000e+00 -5.69417170059103084e-05 
4.50520824182549834e-04 0.00000000000000000e+00 -2.84362196832101100e-04 
4.00754355296049003e-04 0.00000000000000000e+00 -2.27303386205375259e-04 
3.92163125063848227e-04 0.00000000000000000e+00 -2.95616773667030299e-04 
4.49738957160254738e-04 0.00000000000000000e+00 -3.09957413557851783e-04 
8.50481103807826421e-05 0.00000000000000000e+00 -9.25089991635279321e-05 
2.76816883077071415e-04 0.00000000000000000e+00 -2.30861560841318873e-04 
2.03666267025146323e-04 0.00000000000000000e+00 3.06859037895160789e-04 
-1.41210225119530315e-04 0.00000000000000000e+00 9.62167810112063524e-05 
1.57081016221076084e-03 0.00000000000000000e+00 -1.66327516396037379e-03 
1.36621807992961253e-02 0.00000000000000000e+00 -3.22798730634394401e-03 
1.33718031814862495e-02 0.00000000000000000e+00 -4.69452364482401269e-03 
1.17810285764627497e-02 0.00000000000000000e+00 -5.59528738450623068e-03 
9.80548860647110880e-03 0.00000000000000000e+00 -5.86576174366083489e-03 
8.09257270457461840e-03 0.00000000000000000e+00 -5.87223936258613778e-03 
6.92673145777465606e-03 0.00000000000000000e+00 -5.93541773306969882e-03 
6.25258196223879917e-03 0.00000000000000000e+00 -6.09613664166186019e-03 
5.74506941611889737e-03 0.00000000000000000e+00 -6.07529790139250785e-03 
5.21931695670729400e-03 0.00000000000000000e+00 -5.78678956642634298e-03 
4.54135899141690311e-03 0.00000000000000000e+00 -5.17674925852545237e-03 
3.65638839498763461e-03 0.00000000000000000e+00 -4.22865328397423277e-03 
2.59083337611074483e-03 0.00000000000000000e+00 -2.97596926652315659e-03 
1.33477848177469671e-02 0.00000000000000000e+00 -2.53887163902040934e-03 
1.35545312491120555e-02 0.00000000000000000e+00 -3.95365283900633944e-03 
1.25088115957230905e-02 0.00000000000000000e+00 -5.11344048761310215e-03 
1.08699852638336671e-02 0.00000000000000000e+00 -5.83570440773039777e-03 
9.02935459908622493e-03 0.00000000000000000e+00 -6.02328308790822230e-03 
7.40886904728981811e-03 0.00000000000000000e+00 -5.86279656355116752e-03 
6.44624258179541873e-03 0.00000000000000000e+00 -5.88903248061832009e-03 
5.97573142788274808e-03 0.00000000000000000e+00 -6.08863338909720973e-03 
5.60687501254637267e-03 0.00000000000000000e+00 -6.13197098390074694e-03 
4.92282022406816556e-03 0.00000000000000000e+00 -5.55341608162622340e-03 
4.06012535609979758e-03 0.00000000000000000e+00 -4.64471768240237552e-03 
3.10586293369140027e-03 0.00000000000000000e+00 -3.58204851546553484e-03 
2.09922365539597739e-03 0.00000000000000000e+00 -2.37466969380536932e-03 
9.14536595503698084e-04 0.00000000000000000e+00 -1.04130191344847431e-03 
9.14536595506550945e-04 0.00000000000000000e+00 -1.04130191344658932e-03 
-1.50799403827648991e-04 0.00000000000000000e+00 6.04117309698863061e-05 
-1.50799403830581541e-04 0.00000000000000000e+00 6.04117309695397951e-05 
3.68520959494272665e-04 0.00000000000000000e+00 -4.91060955203476515e-04 
3.68520959504921536e-04 0.00000000000000000e+00 -4.91060955204355803e-04 
9.14536595505654527e-04 0.00000000000000000e+00 -1.04130191344258319e-03 
-1.50799403827831245e-04 0.00000000000000000e+00 6.04117309710130090e-05 
-7.51034741573252600e-04 0.00000000000000000e+00 6.89867347353048058e-04 
-7.51034741565339875e-04 0.00000000000000000e+00 6.89867347354386614e-04 
-7.51034741565050610e-04 0.00000000000000000e+00 6.89867347356434239e-04 
1.57081016221784393e-03 0.00000000000000000e+00 -1.66327516395934185e-03 
1.57081016221058043e-03 0.00000000000000000e+00 -1.66327516396053837e-03 
1.57081016221143500e-03 0.00000000000000000e+00 -1.66327516395836910e-03 
2.53942366973757970e-04 0.00000000000000000e+00 1.22800284876860928e-04 
2.75818645253717585e-04 0.00000000000000000e+00 -2.89362002579141638e-04 
7.04907826285069072e-05 0.00000000000000000e+00 -3.72864983110031086e-04 
-2.21965614733009986e-04 0.00000000000000000e+00 -2.06448051478402053e-04 
-4.21490391093153961e-04 0.00000000000000000e+00 4.23608558636018399e-05 
-4.10217674629207417e-04 0.00000000000000000e+00 1.91285181646553345e-04 
-1.93732368329568297e-04 0.00000000000000000e+00 1.56156530522326631e-04 
1.10207646963455773e-04 0.00000000000000000e+00 -8.55334180941417990e-06 
3.59923848358320445e-04 0.00000000000000000e+00 -1.90514805371295830e-04 
4.56727627421889054e-04 0.00000000000000000e+00 -3.01691710418206123e-04 
3.37231326149745893e-04 0.00000000000000000e+00 -2.67589260486713514e-04 
-5.73450694621572047e-05 0.00000000000000000e+00 2.37376383037614192e-05 
1.61203382401675898e-04 0.00000000000000000e+00 4.50986044796316567e-04 
2.95549298744420842e-04 0.00000000000000000e+00 -1.25583397996503044e-04 
1.94874659000047828e-04 0.00000000000000000e+00 -3.69256444702224633e-04 
-7.63456269955994302e-05 0.00000000000000000e+00 -3.12156567088253049e-04 
-3.42805353681294547e-04 0.00000000000000000e+00 -8.02862101516160223e-05 
-4.45189053597965770e-04 0.00000000000000000e+00 1.38070926097656906e-04 
-3.22314706605490242e-04 0.00000000000000000e+00 1.96385423026505248e-04 
-4.33445248537996940e-05 0.00000000000000000e+00 8.31585110502312325e-05 
2.49647370798816053e-04 0.00000000000000000e+00 -1.04375084430108320e-04 
4.31777980261997872e-04 0.00000000000000000e+00 -2.59279959942160438e-04 
4.27474308478254341e-04 0.00000000000000000e+00 -3.08294410530094050e-04 
1.77322659602961112e-04 0.00000000000000000e+00 -1.62256895207888910e-04 
-3.68753761330137156e-04 0.00000000000000000e+00 3.05314375005854004e-04 
1.22776623549247042e-02 0.00000000000000000e+00 -1.82409199041620512e-03 
1.22776623549228931e-02 0.00000000000000000e+00 -1.82409199042021753e-03 
1.22776623549204367e-02 0.00000000000000000e+00 -1.82409199041737476e-03 
3.68520959497141464e-04 0.00000000000000000e+00 -4.91060955205158763e-04 
9.14536595503154573e-04 0.00000000000000000e+00 -1.04130191344732289e-03 
-1.50799403827291855e-04 0.00000000000000000e+00 6.04117309711994918e-05 
2.53942366971945184e-04 0.00000000000000000e+00 1.22800284875758294e-04 
2.75818645251422545e-04 0.00000000000000000e+00 -2.89362002577258596e-04 
7.04907826295728948e-05 0.00000000000000000e+00 -3.72864983110923818e-04 
-2.21965614736351931e-04 0.00000000000000000e+00 -2.06448051477093637e-04 
-4.21490391094852255e-04 0.00000000000000000e+00 4.23608558624465140e-05 
-4.10217674630099932e-04 0.00000000000000000e+00 1.91285181647063787e-04 
-1.93732368328741701e-04 0.00000000000000000e+00 1.56156530521580700e-04 
1.10207646963432138e-04 0.00000000000000000e+00 -8.55334180888248716e-06 
3.59923848356303070e-04 0.00000000000000000e+00 -1.90514805370074368e-04 
4.56727627420267792e-04 0.00000000000000000e+00 -3.01691710417851047e-04 
3.37231326151686182e-04 0.00000000000000000e+00 -2.67589260486834348e-04 
-5.73450694615330837e-05 0.00000000000000000e+00 2.37376383044679937e-05 
1.61203382401698450e-04 0.00000000000000000e+00 4.50986044798071457e-04 
2.95549298743317558e-04 0.00000000000000000e+00 -1.25583397994520472e-04 
1.94874659004919798e-04 0.00000000000000000e+00 -3.69256444700498800e-04 
-7.63456269960530604e-05 0.00000000000000000e+00 -3.12156567086406436e-04 
-3.42805353679693397e-04 0.00000000000000000e+00 -8.02862101518866391e-05 
-4.45189053597657856e-04 0.00000000000000000e+00 1.38070926096407038e-04 
-3.22314706607655177e-04 0.00000000000000000e+00 1.96385423026308791e-04 
-4.33445248549992553e-05 0.00000000000000000e+00 8.31585110515669696e-05 
2.49647370799226424e-04 0.00000000000000000e+00 -1.04375084431650923e-04 
4.31777980265353966e-04 0.00000000000000000e+00 -2.59279959944009437e-04 
4.27474308477695001e-04 0.00000000000000000e+00 -3.08294410527374979e-04 
1.77322659605519233e-04 0.00000000000000000e+00 -1.62256895207093106e-04 
-3.68753761332006645e-04 0.00000000000000000e+00 3.05314375007618435e-04 
1.22776623549233979e-02 0.00000000000000000e+00 -1.82409199041628427e-03 
1.36621807992962484e-02 0.00000000000000000e+00 -3.22798730634325315e-03 
1.33718031814890198e-02 0.00000000000000000e+00 -4.69452364482563118e-03 
1.17810285764646892e-02 0.00000000000000000e+00 -5.59528738450519765e-03 
9.80548860647605103e-03 0.00000000000000000e+00 -5.86576174366124168e-03 
8.09257270457368685e-03 0.00000000000000000e+00 -5.87223936258807373e-03 
6.92673145777314165e-03 0.00000000000000000e+00 -5.93541773307071276e-03 