# vtk DataFile Version 2.0

ASCII

DATASET UNSTRUCTURED_GRID

POINTS 281 double 

0.00000000000000000e+00  6.00000000000000012e-03  8.68039800000000063e-03
0.00000000000000000e+00  6.00000000000000012e-03  2.15013699999999988e-02
0.00000000000000000e+00  5.99999699999999997e-03  3.38432499999999983e-02
0.00000000000000000e+00  6.00000000000000012e-03  4.61511800000000000e-02
0.00000000000000000e+00  5.99999399999999981e-03  5.84285100000000029e-02
0.00000000000000000e+00  5.99999899999999978e-03  7.03572799999999943e-02
0.00000000000000000e+00  6.00000000000000012e-03  7.56573400000000035e-02
0.00000000000000000e+00  6.00000000000000012e-03  1.52458600000000000e-02
0.00000000000000000e+00  5.99999899999999978e-03  2.76822099999999988e-02
0.00000000000000000e+00  5.99999899999999978e-03  3.99985900000000005e-02
0.00000000000000000e+00  5.99999800000000031e-03  5.22986000000000006e-02
0.00000000000000000e+00  5.99999800000000031e-03  6.44963600000000026e-02
0.00000000000000000e+00  3.00000000000000006e-03  3.07692300000000007e-03
0.00000000000000000e+00  3.00000000000000006e-03  1.04940499999999996e-02
0.00000000000000000e+00  3.00000000000000006e-03  7.41712199999999995e-03
0.00000000000000000e+00  3.00000000000000006e-03  2.30583799999999998e-02
0.00000000000000000e+00  3.00000000000000006e-03  1.99814599999999995e-02
0.00000000000000000e+00  2.99999900000000016e-03  3.53831699999999985e-02
0.00000000000000000e+00  2.99999900000000016e-03  3.23062400000000000e-02
0.00000000000000000e+00  3.00000000000000006e-03  4.76909699999999992e-02
0.00000000000000000e+00  3.00000000000000006e-03  4.46140500000000023e-02
0.00000000000000000e+00  2.99999699999999991e-03  5.99834799999999987e-02
0.00000000000000000e+00  2.99999699999999991e-03  5.69065600000000019e-02
0.00000000000000000e+00  2.99999900000000016e-03  7.21017199999999941e-02
0.00000000000000000e+00  2.99999900000000016e-03  6.90247900000000025e-02
0.00000000000000000e+00  3.00000000000000006e-03  7.78286700000000026e-02
0.00000000000000000e+00  3.00000000000000006e-03  7.47517500000000057e-02
0.00000000000000000e+00  5.99999899999999978e-03  7.30073100000000058e-02
0.00000000000000000e+00  6.00000000000000012e-03  7.78286700000000026e-02
0.00000000000000000e+00  8.99999999999999932e-03  7.47517500000000057e-02
0.00000000000000000e+00  8.99999999999999932e-03  7.78286700000000026e-02
0.00000000000000000e+00  8.99999999999999932e-03  3.07692300000000007e-03
0.00000000000000000e+00  8.99999999999999932e-03  7.41712199999999995e-03
0.00000000000000000e+00  8.99999999999999932e-03  1.04940499999999996e-02
0.00000000000000000e+00  8.99999999999999932e-03  1.99814599999999995e-02
0.00000000000000000e+00  8.99999999999999932e-03  2.30583799999999998e-02
0.00000000000000000e+00  8.99999899999999985e-03  3.23062400000000000e-02
0.00000000000000000e+00  8.99999899999999985e-03  3.53831699999999985e-02
0.00000000000000000e+00  8.99999999999999932e-03  4.46140500000000023e-02
0.00000000000000000e+00  8.99999999999999932e-03  4.76909699999999992e-02
0.00000000000000000e+00  8.99999699999999916e-03  5.69065600000000019e-02
0.00000000000000000e+00  8.99999699999999916e-03  5.99834799999999987e-02
0.00000000000000000e+00  8.99999899999999985e-03  6.90247900000000025e-02
0.00000000000000000e+00  8.99999899999999985e-03  7.21017199999999941e-02
0.00000000000000000e+00  6.00000000000000012e-03  4.34019900000000031e-03
0.00000000000000000e+00  3.00000000000000006e-03  1.37767800000000006e-02
0.00000000000000000e+00  6.00000000000000012e-03  1.19631300000000006e-02
0.00000000000000000e+00  3.00000000000000006e-03  1.68536999999999992e-02
0.00000000000000000e+00  6.00000000000000012e-03  1.83736200000000002e-02
0.00000000000000000e+00  5.99999800000000031e-03  3.07627299999999985e-02
0.00000000000000000e+00  3.00000000000000006e-03  2.92257200000000002e-02
0.00000000000000000e+00  3.00000000000000006e-03  2.61487999999999998e-02
0.00000000000000000e+00  8.99999999999999932e-03  2.92257200000000002e-02
0.00000000000000000e+00  6.00000000000000012e-03  4.30748800000000029e-02
0.00000000000000000e+00  2.99999900000000016e-03  4.15377600000000000e-02
0.00000000000000000e+00  2.99999900000000016e-03  3.84608300000000014e-02
0.00000000000000000e+00  8.99999899999999985e-03  4.15377600000000000e-02
0.00000000000000000e+00  5.99999599999999963e-03  5.53635499999999975e-02
0.00000000000000000e+00  2.99999900000000016e-03  5.38416099999999981e-02
0.00000000000000000e+00  2.99999900000000016e-03  5.07646799999999995e-02
0.00000000000000000e+00  8.99999899999999985e-03  5.38416099999999981e-02
0.00000000000000000e+00  5.99999800000000031e-03  6.74268199999999984e-02
0.00000000000000000e+00  2.99999900000000016e-03  6.60943300000000067e-02
0.00000000000000000e+00  2.99999900000000016e-03  6.30174099999999959e-02
0.00000000000000000e+00  8.99999899999999985e-03  6.60943300000000067e-02
0.00000000000000000e+00  5.99999899999999978e-03  4.92248900000000003e-02
0.00000000000000000e+00  8.99999999999999932e-03  1.68536999999999992e-02
0.00000000000000000e+00  5.99999899999999978e-03  2.45917899999999988e-02
0.00000000000000000e+00  8.99999999999999932e-03  2.61487999999999998e-02
0.00000000000000000e+00  8.99999999999999932e-03  1.37767800000000006e-02
0.00000000000000000e+00  5.99999800000000031e-03  3.69209200000000029e-02
0.00000000000000000e+00  8.99999899999999985e-03  3.84608300000000014e-02
0.00000000000000000e+00  8.99999899999999985e-03  5.07646799999999995e-02
0.00000000000000000e+00  5.99999599999999963e-03  6.14624299999999985e-02
0.00000000000000000e+00  8.99999899999999985e-03  6.30174099999999959e-02
1.20000000000000002e-02  1.20000000000000002e-02  8.00000000000000017e-02
0.00000000000000000e+00  0.00000000000000000e+00  8.00000000000000017e-02
1.20000000000000002e-02  6.00000000000000012e-03  0.00000000000000000e+00
1.20000000000000002e-02  3.00000000000000006e-03  0.00000000000000000e+00
1.20000000000000002e-02  8.99999999999999932e-03  0.00000000000000000e+00
1.20000000000000002e-02  0.00000000000000000e+00  8.00000000000000017e-02
1.20000000000000002e-02  0.00000000000000000e+00  0.00000000000000000e+00
0.00000000000000000e+00  1.20000000000000002e-02  0.00000000000000000e+00
1.20000000000000002e-02  5.99999899999999978e-03  8.68039699999999942e-03
1.20000000000000002e-02  5.99999899999999978e-03  1.52458600000000000e-02
1.20000000000000002e-02  5.99999899999999978e-03  2.15013699999999988e-02
1.20000000000000002e-02  6.00000000000000012e-03  2.76822099999999988e-02
1.20000000000000002e-02  5.99999899999999978e-03  3.38432399999999967e-02
1.20000000000000002e-02  5.99999800000000031e-03  3.99985900000000005e-02
1.20000000000000002e-02  5.99999699999999997e-03  4.61511800000000000e-02
1.20000000000000002e-02  5.99999300000000034e-03  5.22986100000000023e-02
1.20000000000000002e-02  5.99998599999999969e-03  5.84285400000000010e-02
1.20000000000000002e-02  5.99997800000000043e-03  6.44963800000000059e-02
1.20000000000000002e-02  5.99997500000000027e-03  7.03572999999999976e-02
1.20000000000000002e-02  5.99997500000000027e-03  7.56573600000000068e-02
1.20000000000000002e-02  3.00000000000000006e-03  3.07692300000000007e-03
1.20000000000000002e-02  3.00000000000000006e-03  7.41712099999999961e-03
1.20000000000000002e-02  3.00000000000000006e-03  1.04940399999999996e-02
1.20000000000000002e-02  2.99999900000000016e-03  1.37767800000000006e-02
1.20000000000000002e-02  2.99999900000000016e-03  1.68536999999999992e-02
1.20000000000000002e-02  5.99999899999999978e-03  1.19631300000000006e-02
1.20000000000000002e-02  3.00000000000000006e-03  1.99814500000000013e-02
1.20000000000000002e-02  3.00000000000000006e-03  2.30583799999999998e-02
1.20000000000000002e-02  5.99999899999999978e-03  1.83736099999999986e-02
1.20000000000000002e-02  3.00000000000000006e-03  2.61487999999999998e-02
1.20000000000000002e-02  3.00000000000000006e-03  2.92257200000000002e-02
1.20000000000000002e-02  5.99999899999999978e-03  2.45917899999999988e-02
1.20000000000000002e-02  3.00000000000000006e-03  3.23062299999999983e-02
1.20000000000000002e-02  3.00000000000000006e-03  3.53831599999999968e-02
1.20000000000000002e-02  5.99999899999999978e-03  3.07627200000000003e-02
1.20000000000000002e-02  2.99999900000000016e-03  3.84608300000000014e-02
1.20000000000000002e-02  2.99999900000000016e-03  4.15377499999999983e-02
1.20000000000000002e-02  5.99999899999999978e-03  3.69209100000000012e-02
1.20000000000000002e-02  2.99999799999999981e-03  4.46140500000000023e-02
1.20000000000000002e-02  2.99999799999999981e-03  4.76909800000000009e-02
1.20000000000000002e-02  5.99999800000000031e-03  4.30748800000000029e-02
1.20000000000000002e-02  2.99999699999999991e-03  5.07646900000000012e-02
1.20000000000000002e-02  2.99999699999999991e-03  5.38416099999999981e-02
1.20000000000000002e-02  5.99999500000000015e-03  4.92249000000000020e-02
1.20000000000000002e-02  2.99999299999999984e-03  5.69065799999999983e-02
1.20000000000000002e-02  2.99999299999999984e-03  5.99835000000000021e-02
1.20000000000000002e-02  5.99999000000000018e-03  5.53635800000000025e-02
1.20000000000000002e-02  2.99998900000000021e-03  6.30174200000000045e-02
1.20000000000000002e-02  2.99998900000000021e-03  6.60943499999999962e-02
1.20000000000000002e-02  5.99998200000000006e-03  6.14624599999999965e-02
1.20000000000000002e-02  2.99998799999999987e-03  6.90248100000000059e-02
1.20000000000000002e-02  2.99998799999999987e-03  7.21017300000000028e-02
1.20000000000000002e-02  5.99997700000000009e-03  6.74268400000000018e-02
1.20000000000000002e-02  2.99998699999999997e-03  7.47517600000000004e-02
1.20000000000000002e-02  2.99998699999999997e-03  7.78286799999999973e-02
1.20000000000000002e-02  5.99998700000000003e-03  7.78286799999999973e-02
1.20000000000000002e-02  5.99997500000000027e-03  7.30073299999999953e-02
1.20000000000000002e-02  8.99998699999999922e-03  7.78286799999999973e-02
1.20000000000000002e-02  8.99999999999999932e-03  3.07692300000000007e-03
[...]
POINT_DATA 281

SCALARS Rank unsigned_int
LOOKUP_TABLE default
0 0 0 0 0 0 0 0 0 0 0 0 0 0 0 0 0 0 0 0 0 0 0 0 0 0 0 0 0 0 0 0 0 0 0 0 0 0 0 0 0 0 0 0 0 0 0 0 0 0 0 0 0 0 0 0 0 0 0 0 0 0 0 0 0 0 0 0 0 0 0 0 0 0 0 0 0 0 0 0 0 0 0 0 0 0 0 0 0 0 0 0 0 0 0 0 0 0 0 0 0 0 0 0 0 0 0 0 0 0 0 0 0 0 0 0 0 0 0 0 0 0 0 0 0 0 0 0 0 0 0 0 0 0 0 0 0 0 0 0 0 0 0 0 0 0 0 0 0 0 0 0 0 0 0 0 0 0 0 0 0 0 0 0 0 0 0 0 0 0 0 0 0 0 0 0 0 0 0 0 0 0 0 0 0 0 0 0 0 0 0 0 0 0 0 0 0 0 0 0 0 0 0 0 0 0 0 0 0 0 0 0 0 0 0 0 0 0 0 0 0 0 0 0 0 0 0 0 0 0 0 0 0 0 0 0 0 0 0 0 0 0 0 0 0 0 0 0 0 0 0 0 0 0 0 0 0 0 0 0 0 0 0 0 0 0 0 0 0 0 0 0 0 0 0 0 0 0 0 0 0 

VECTORS Forces0 double
1.60032477708694602e-02 0.00000000000000000e+00 -9.28786143318959423e-05 
2.15421329170850271e-03 0.00000000000000000e+00 7.56508364545962090e-06 
-4.35256919510985496e-04 0.00000000000000000e+00 -2.45186704304918516e-07 
3.11279500491528456e-04 0.00000000000000000e+00 -1.10637788615114683e-06 
9.45090712460016242e-05 0.00000000000000000e+00 8.70534886863596984e-07 
-6.79310341712461115e-05 0.00000000000000000e+00 -1.41772826403871579e-06 
-1.14900648602323679e-04 0.00000000000000000e+00 4.85991208852246989e-06 
8.97623975482707108e-03 0.00000000000000000e+00 -2.26904824513981722e-05 
-3.89165885011467558e-04 0.00000000000000000e+00 5.86213467657594192e-06 
7.31599965652729938e-05 0.00000000000000000e+00 -2.23461292764383414e-06 
2.48792253619988630e-04 0.00000000000000000e+00 6.10875247344657010e-07 
-1.27869388295570229e-05 0.00000000000000000e+00 -9.23724616353730148e-07 
1.77852894315937045e-02 0.00000000000000000e+00 -1.42892971676481613e-04 
1.49430057476574486e-02 0.00000000000000000e+00 -7.22472060141569341e-05 
1.68531097329047419e-02 0.00000000000000000e+00 -1.09779481915305629e-04 
1.11935622211488590e-03 0.00000000000000000e+00 8.61067492955950380e-06 
3.43359941581891301e-03 0.00000000000000000e+00 4.63149691088938761e-06 
-3.02246312712402515e-04 0.00000000000000000e+00 -1.14453785941420061e-06 
-5.36313683659998038e-04 0.00000000000000000e+00 9.65840349899413538e-07 
3.15240528107075212e-04 0.00000000000000000e+00 -6.47356283491978293e-07 
2.87931922289080182e-04 0.00000000000000000e+00 -1.52797638298041004e-06 
6.08479454233389020e-05 0.00000000000000000e+00 5.69126400151359208e-07 
1.31191465456470877e-04 0.00000000000000000e+00 1.01219225013253596e-06 
-8.23954079231404023e-05 0.00000000000000000e+00 -2.98667619381836741e-07 
-5.70927822427485845e-05 0.00000000000000000e+00 -1.75385180900968905e-06 
-1.35217357284344176e-04 0.00000000000000000e+00 9.70756304761476161e-06 
-1.06342013776605486e-04 0.00000000000000000e+00 3.16854820178214225e-06 
-9.02825759985471856e-05 0.00000000000000000e+00 6.35454559434185499e-07 
-1.35217357276051114e-04 0.00000000000000000e+00 9.70756304757594378e-06 
-1.06342013777215242e-04 0.00000000000000000e+00 3.16854820167751505e-06 
-1.35217357295612940e-04 0.00000000000000000e+00 9.70756304773567725e-06 
1.77852894316011950e-02 0.00000000000000000e+00 -1.42892971676512404e-04 
1.68531097328916621e-02 0.00000000000000000e+00 -1.09779481915358904e-04 
1.49430057476598356e-02 0.00000000000000000e+00 -7.22472060141543727e-05 
3.43359941582553705e-03 0.00000000000000000e+00 4.63149691095684193e-06 
1.11935622210532324e-03 0.00000000000000000e+00 8.61067492955011359e-06 
-5.36313683659926481e-04 0.00000000000000000e+00 9.65840349930422991e-07 
-3.02246312704364240e-04 0.00000000000000000e+00 -1.14453785946318410e-06 
2.87931922288603567e-04 0.00000000000000000e+00 -1.52797638294376316e-06 
3.15240528124912940e-04 0.00000000000000000e+00 -6.47356283523545940e-07 
1.31191465447738929e-04 0.00000000000000000e+00 1.01219225011429171e-06 
6.08479454299967707e-05 0.00000000000000000e+00 5.69126400140298652e-07 
-5.70927822485748702e-05 0.00000000000000000e+00 -1.75385180897180804e-06 
-8.23954079274041357e-05 0.00000000000000000e+00 -2.98667619472313412e-07 
1.85915636197386443e-02 0.00000000000000000e+00 -1.47061218514179631e-04 
1.12688663329198937e-02 0.00000000000000000e+00 -3.73540405179886040e-05 
1.38787909586238559e-02 0.00000000000000000e+00 -5.76363313527262106e-05 
6.73706385227073115e-03 0.00000000000000000e+00 -1.00617967750985843e-05 
4.96142649931845259e-03 0.00000000000000000e+00 -1.35223732960423364e-06 
-5.80289323835369436e-04 0.00000000000000000e+00 2.46037655951964113e-06 
-5.37404153447147573e-04 0.00000000000000000e+00 4.15311768266225406e-06 
-1.08815327972468500e-04 0.00000000000000000e+00 7.32650642918846186e-06 
-5.37404153453484084e-04 0.00000000000000000e+00 4.15311768269265661e-06 
2.40169554372921792e-04 0.00000000000000000e+00 -1.88798885807205942e-06 
1.67548924973785665e-04 0.00000000000000000e+00 -2.14062918063140532e-06 
-3.96657888378752568e-05 0.00000000000000000e+00 -2.12119675667857652e-06 
1.67548924967771378e-04 0.00000000000000000e+00 -2.14062918063463887e-06 
1.70834360862823806e-04 0.00000000000000000e+00 1.01003675809466102e-06 
2.10632736372259270e-04 0.00000000000000000e+00 8.70521195220644125e-07 
2.80670515868166064e-04 0.00000000000000000e+00 2.46959449292540082e-07 
2.10632736371549551e-04 0.00000000000000000e+00 8.70521195122385762e-07 
-4.35007235594754037e-05 0.00000000000000000e+00 -1.71765997062581244e-06 
-3.06998298556567385e-05 0.00000000000000000e+00 -1.43718403156183396e-06 
7.31106124848177647e-06 0.00000000000000000e+00 -3.88845757490352196e-07 
-3.06998298629067984e-05 0.00000000000000000e+00 -1.43718403177903819e-06 
3.03883137269410700e-04 0.00000000000000000e+00 -1.85695090890668384e-07 
6.73706385226543591e-03 0.00000000000000000e+00 -1.00617967750600748e-05 
3.79670171498566408e-04 0.00000000000000000e+00 8.36979070353956395e-06 
-1.08815327976424537e-04 0.00000000000000000e+00 7.32650642922668676e-06 
1.12688663329289940e-02 0.00000000000000000e+00 -3.73540405180147400e-05 
-1.66189469585129181e-04 0.00000000000000000e+00 -1.76522780425991768e-06 
-3.96657888328415229e-05 0.00000000000000000e+00 -2.12119675667375436e-06 
2.80670515863097202e-04 0.00000000000000000e+00 2.46959449366954468e-07 
3.25428792111541115e-05 0.00000000000000000e+00 1.50551627523145131e-07 
7.31106124873157665e-06 0.00000000000000000e+00 -3.88845757495515709e-07 
6.80317008921677496e-05 0.00000000000000000e+00 1.53742944284633525e-05 
-1.52711815766508633e-04 0.00000000000000000e+00 1.55236407866593875e-05 
-1.28286753823080219e-03 0.00000000000000000e+00 6.94671386622095535e-06 
-1.28286753820783445e-03 0.00000000000000000e+00 6.94671386624117572e-06 
-1.28286753822048059e-03 0.00000000000000000e+00 6.94671386628618366e-06 
6.80317009013860701e-05 0.00000000000000000e+00 1.53742944283818306e-05 
-1.28286753823152991e-03 0.00000000000000000e+00 6.94671386620270687e-06 
1.41207333358901004e-02 0.00000000000000000e+00 -1.09595684393884321e-04 
4.60602984666834024e-04 0.00000000000000000e+00 -2.46482358895899938e-06 
3.06491599372870174e-04 0.00000000000000000e+00 2.92059567808801996e-08 
-1.46329700346691123e-04 0.00000000000000000e+00 5.96982178310743568e-07 
-9.64659191075221652e-05 0.00000000000000000e+00 -1.05652516329636378e-06 
1.87592398700267018e-04 0.00000000000000000e+00 -1.61717612955402865e-06 
2.69712832689687732e-04 0.00000000000000000e+00 -6.21944589721033507e-07 
9.43023674028227167e-05 0.00000000000000000e+00 7.01534038026030692e-07 
-1.26646447856651050e-04 0.00000000000000000e+00 1.40786034746334221e-06 
-1.96268323732895809e-04 0.00000000000000000e+00 6.78073321220519958e-07 
-8.15103519142961494e-05 0.00000000000000000e+00 -1.65876459819764838e-06 
9.31973921298109718e-05 0.00000000000000000e+00 -2.31434689029681524e-06 
1.61152662504434089e-04 0.00000000000000000e+00 4.11732659609571628e-06 
-4.89107621462630724e-04 0.00000000000000000e+00 1.71325000142916700e-06 
3.43244639662179652e-04 0.00000000000000000e+00 -2.34605353892788530e-06 
5.32408221042642796e-04 0.00000000000000000e+00 -2.06953983198604081e-06 
4.21374339211012816e-04 0.00000000000000000e+00 -5.97278688151456761e-07 
1.65600818399419129e-04 0.00000000000000000e+00 5.41254775904689490e-07 
5.15301246219382033e-04 0.00000000000000000e+00 -1.46009775111662648e-06 
-7.36956821220355373e-05 0.00000000000000000e+00 8.02917998460997929e-07 
-1.84189665916570931e-04 0.00000000000000000e+00 2.46009595709711573e-07 
3.81510506971282796e-05 0.00000000000000000e+00 7.85854821610158255e-07 
-1.52583713189413423e-04 0.00000000000000000e+00 -6.46736302150434705e-07 
-2.65781837012137411e-05 0.00000000000000000e+00 -1.37244613744914637e-06 
-1.83870957137120361e-04 0.00000000000000000e+00 -1.95275838249194131e-07 
1.23161278075229695e-04 0.00000000000000000e+00 -1.65657510438282845e-06 
2.36318956506446567e-04 0.00000000000000000e+00 -1.47036821898776795e-06 
4.99862416598455080e-05 0.00000000000000000e+00 -1.57895238053828551e-06 
2.77804012521308357e-04 0.00000000000000000e+00 -9.50438241710552068e-07 
2.43905013892041831e-04 0.00000000000000000e+00 -2.76227047234245758e-07 
2.67295257786820937e-04 0.00000000000000000e+00 -1.24100885651300868e-06 
1.52658201916725813e-04 0.00000000000000000e+00 3.99359553148349156e-07 
3.32690739847180740e-05 0.00000000000000000e+00 9.65540994783338142e-07 
2.03985335242594785e-04 0.00000000000000000e+00 6.92667310754270376e-08 
-8.03026966973153220e-05 0.00000000000000000e+00 1.33160687845769748e-06 
-1.63157348489330827e-04 0.00000000000000000e+00 1.39319853655436066e-06 
-2.60224039890901083e-05 0.00000000000000000e+00 1.17904341987113751e-06 
-1.98399160105746703e-04 0.00000000000000000e+00 1.03569738211704611e-06 
-1.81295122913137396e-04 0.00000000000000000e+00 1.88110768476075439e-07 
-1.87315181486487478e-04 0.00000000000000000e+00 1.27472489879388603e-06 
-1.21949189647519010e-04 0.00000000000000000e+00 -1.03189221465579741e-06 
-3.28662818510354850e-05 0.00000000000000000e+00 -2.24913137646222428e-06 
-1.57007997324211683e-04 0.00000000000000000e+00 -3.73527055135993887e-07 
5.71699170012417125e-05 0.00000000000000000e+00 -2.64426782610740823e-06 
1.31572336523016857e-04 0.00000000000000000e+00 -1.18140922837407605e-06 
9.12149632905336515e-06 0.00000000000000000e+00 -2.57782083584672039e-06 
1.61405837329912699e-04 0.00000000000000000e+00 2.36996997934534149e-06 
1.34587873464510848e-04 0.00000000000000000e+00 9.18453011078351910e-06 
1.34587873467709895e-04 0.00000000000000000e+00 9.18453011063947776e-06 
1.46226441441296798e-04 0.00000000000000000e+00 -2.28743162745043885e-07 
1.34587873467043327e-04 0.00000000000000000e+00 9.18453011064599822e-06 
-4.89107621471144747e-04 0.00000000000000000e+00 1.71325000141016974e-06 
5.32408221029069453e-04 0.00000000000000000e+00 -2.06953983201586018e-06 
3.43244639656792034e-04 0.00000000000000000e+00 -2.34605353886591298e-06 
1.65600818389742733e-04 0.00000000000000000e+00 5.41254775844892352e-07 
4.21374339208116695e-04 0.00000000000000000e+00 -5.97278688035828293e-07 
-1.84189665914093854e-04 0.00000000000000000e+00 2.46009595711747840e-07 
-7.36956821243221196e-05 0.00000000000000000e+00 8.02917998505436666e-07 
-2.65781836947564498e-05 0.00000000000000000e+00 -1.37244613743494671e-06 
-1.52583713185311235e-04 0.00000000000000000e+00 -6.46736302163631478e-07 
2.36318956507346889e-04 0.00000000000000000e+00 -1.47036821894794723e-06 
1.23161278078106733e-04 0.00000000000000000e+00 -1.65657510434066315e-06 
2.43905013895647887e-04 0.00000000000000000e+00 -2.76227047224382483e-07 
2.77804012519730626e-04 0.00000000000000000e+00 -9.50438241682530524e-07 
3.32690739839010193e-05 0.00000000000000000e+00 9.65540994836739334e-07 
1.52658201915197955e-04 0.00000000000000000e+00 3.99359553156429003e-07 
-1.63157348488670548e-04 0.00000000000000000e+00 1.39319853663109168e-06 
-8.03026966938285278e-05 0.00000000000000000e+00 1.33160687846145153e-06 
-1.81295122904178417e-04 0.00000000000000000e+00 1.88110768378858079e-07 
-1.98399160102171222e-04 0.00000000000000000e+00 1.03569738213768660e-06 
-3.28662818560690020e-05 0.00000000000000000e+00 -2.24913137639993093e-06 
-1.21949189646052301e-04 0.00000000000000000e+00 -1.03189221479327425e-06 
1.31572336525912544e-04 0.00000000000000000e+00 -1.18140922823907425e-06 
5.71699170088521612e-05 0.00000000000000000e+00 -2.64426782612875261e-06 
-1.85262077080751452e-04 0.00000000000000000e+00 -7.74423454616183254e-08 
1.61405837319727921e-04 0.00000000000000000e+00 2.36996997935358735e-06 
-1.52711815766202888e-04 0.00000000000000000e+00 1.55236407866507782e-05 
1.77518613571091173e-02 0.00000000000000000e+00 -1.27484703496682920e-04 
1.34632592136120846e-02 0.00000000000000000e+00 -5.38378745918673590e-05 
4.86932403536454589e-03 0.00000000000000000e+00 -9.40672330006969546e-07 
3.70384465434011126e-04 0.00000000000000000e+00 8.35896888715491241e-06 
-5.80269422267802983e-04 0.00000000000000000e+00 2.45356477144679792e-06 
-1.66005209637358844e-04 0.00000000000000000e+00 -1.76591514720057031e-06 
2.40250291137608310e-04 0.00000000000000000e+00 -1.88756941721197980e-06 
3.03814892701967214e-04 0.00000000000000000e+00 -1.83962742893679854e-07 
1.70283110995619159e-04 0.00000000000000000e+00 1.01104199215677839e-06 
3.11995275838643292e-05 0.00000000000000000e+00 1.26102996767641912e-07 
-4.58729062317182317e-05 0.00000000000000000e+00 -1.74950683395781686e-06 
-9.79113888802326404e-05 0.00000000000000000e+00 1.72902359680911057e-06 
1.77852894315966431e-02 0.00000000000000000e+00 -1.42892971676419515e-04 
1.56633571818536668e-02 0.00000000000000000e+00 -8.60930224014298904e-05 
8.76860601830074284e-03 0.00000000000000000e+00 -2.14500837404386620e-05 
2.12600710978635456e-03 0.00000000000000000e+00 7.61024866536424559e-06 
-3.90487261781995837e-04 0.00000000000000000e+00 5.85160134057975276e-06 
-4.35028552436217170e-04 0.00000000000000000e+00 -2.47177288866721252e-07 
7.32555530173079072e-05 0.00000000000000000e+00 -2.23461570791513193e-06 
3.11302042985437267e-04 0.00000000000000000e+00 -1.10560505892228905e-06 
2.48580942269957083e-04 0.00000000000000000e+00 6.12728846131720616e-07 
9.37513408001763323e-05 0.00000000000000000e+00 8.65770297751464729e-07 
-1.42489555926580422e-05 0.00000000000000000e+00 -9.65519333993377842e-07 
-7.13020765432709647e-05 0.00000000000000000e+00 -1.22868663293257924e-06 
-1.26966573442943253e-04 0.00000000000000000e+00 7.54850198377161728e-06 
-9.10640074771288549e-05 0.00000000000000000e+00 2.91178755787143322e-05 
-9.10640074890609334e-05 0.00000000000000000e+00 2.91178755786316787e-05 
8.39046251466289499e-05 0.00000000000000000e+00 2.87396614490401906e-05 
8.39046251312589746e-05 0.00000000000000000e+00 2.87396614490728826e-05 
9.52160681798599726e-06 0.00000000000000000e+00 3.97803417189485024e-05 
9.52160682413057755e-06 0.00000000000000000e+00 3.97803417188801638e-05 
-9.10640074811962393e-05 0.00000000000000000e+00 2.91178755785981836e-05 
8.39046251563441603e-05 0.00000000000000000e+00 2.87396614491771321e-05 
6.80317008829301302e-05 0.00000000000000000e+00 1.53742944285931620e-05 
6.80317008850657917e-05 0.00000000000000000e+00 1.53742944283928963e-05 
6.80317009034887718e-05 0.00000000000000000e+00 1.53742944284950688e-05 
-1.52711815760093843e-04 0.00000000000000000e+00 1.55236407866807632e-05 
-1.52711815755404452e-04 0.00000000000000000e+00 1.55236407866915069e-05 
-1.52711815770057661e-04 0.00000000000000000e+00 1.55236407867620275e-05 
1.67625320493108420e-04 0.00000000000000000e+00 -1.78814208554287037e-06 
5.02729923424598550e-04 0.00000000000000000e+00 -1.29788522552074228e-06 
3.12851297455848639e-05 0.00000000000000000e+00 7.92998895441759005e-07 
-1.83612569272020138e-04 0.00000000000000000e+00 -2.02288183022361584e-07 
5.03085896940620543e-05 0.00000000000000000e+00 -1.57956009820438818e-06 
2.67324645847259940e-04 0.00000000000000000e+00 -1.24063762901016889e-06 
2.03924216994880392e-04 0.00000000000000000e+00 6.97179576863815738e-08 
-2.62412516282504745e-05 0.00000000000000000e+00 1.17975093892127965e-06 
-1.87558651437384066e-04 0.00000000000000000e+00 1.27228986176077751e-06 
-1.55510408534558620e-04 0.00000000000000000e+00 -4.04475023343836009e-07 
1.73979540965823991e-05 0.00000000000000000e+00 -2.61718741247157435e-06 
1.55924694530889038e-04 0.00000000000000000e+00 8.90349491233909454e-07 
-4.89107621477336842e-04 0.00000000000000000e+00 1.71325000147572332e-06 
4.93671835106120104e-04 0.00000000000000000e+00 -2.40153704274994276e-06 
2.94601833834475392e-04 0.00000000000000000e+00 8.16873323264717058e-08 
-1.47670289535789794e-04 0.00000000000000000e+00 5.89967130428339320e-07 
-9.60412286124656662e-05 0.00000000000000000e+00 -1.05895562173518182e-06 
1.87701032664953964e-04 0.00000000000000000e+00 -1.61699588583416052e-06 
2.69697023927532485e-04 0.00000000000000000e+00 -6.21632802257481699e-07 
9.41976046054558220e-05 0.00000000000000000e+00 7.02028699145199380e-07 
-1.26893718690140108e-04 0.00000000000000000e+00 1.40805596122366025e-06 
-1.96080505572679268e-04 0.00000000000000000e+00 6.68941405552559741e-07 
-7.80285721418177476e-05 0.00000000000000000e+00 -1.70709325703665655e-06 
1.03308305861201256e-04 0.00000000000000000e+00 -2.12448883190019399e-06 
1.50434583282182526e-04 0.00000000000000000e+00 6.91683635360609659e-06 
1.41207333358801014e-02 0.00000000000000000e+00 -1.09595684393905694e-04 
1.41207333358905306e-02 0.00000000000000000e+00 -1.09595684393878535e-04 
1.41207333358913476e-02 0.00000000000000000e+00 -1.09595684393920276e-04 
9.52160682289952019e-06 0.00000000000000000e+00 3.97803417189262356e-05 
-9.10640074873766254e-05 0.00000000000000000e+00 2.91178755787112693e-05 
8.39046251417530759e-05 0.00000000000000000e+00 2.87396614491094575e-05 
1.67625320492300906e-04 0.00000000000000000e+00 -1.78814208554368013e-06 
5.02729923419593331e-04 0.00000000000000000e+00 -1.29788522550665273e-06 
3.12851297394073781e-05 0.00000000000000000e+00 7.92998895438187914e-07 
-1.83612569269458385e-04 0.00000000000000000e+00 -2.02288183024628244e-07 
5.03085896983865031e-05 0.00000000000000000e+00 -1.57956009820969738e-06 
2.67324645847642880e-04 0.00000000000000000e+00 -1.24063762901247960e-06 
2.03924216995260296e-04 0.00000000000000000e+00 6.97179576734666507e-08 
-2.62412516254163700e-05 0.00000000000000000e+00 1.17975093891129821e-06 
-1.87558651436067194e-04 0.00000000000000000e+00 1.27228986174437217e-06 
-1.55510408532600551e-04 0.00000000000000000e+00 -4.04475023333112572e-07 
1.73979541077086987e-05 0.00000000000000000e+00 -2.61718741248980928e-06 
1.55924694533865607e-04 0.00000000000000000e+00 8.90349491214281159e-07 
-4.89107621474070358e-04 0.00000000000000000e+00 1.71325000145145074e-06 
4.93671835104664671e-04 0.00000000000000000e+00 -2.40153704274244567e-06 
2.94601833830093155e-04 0.00000000000000000e+00 8.16873323449725995e-08 
-1.47670289538521875e-04 0.00000000000000000e+00 5.89967130444846298e-07 
-9.60412286116000391e-05 0.00000000000000000e+00 -1.05895562174111444e-06 
1.87701032670274795e-04 0.00000000000000000e+00 -1.61699588585507038e-06 
2.69697023924108574e-04 0.00000000000000000e+00 -6.21632802200453512e-07 
9.41976046067230375e-05 0.00000000000000000e+00 7.02028699142282198e-07 
-1.26893718695949697e-04 0.00000000000000000e+00 1.40805596121893211e-06 
-1.96080505571673345e-04 0.00000000000000000e+00 6.68941405573025751e-07 
-7.80285721387119420e-05 0.00000000000000000e+00 -1.70709325708647818e-06 
1.03308305861459296e-04 0.00000000000000000e+00 -2.12448883201252538e-06 
1.50434583286123601e-04 0.00000000000000000e+00 6.91683635360878253e-06 
1.41207333358878157e-02 0.00000000000000000e+00 -1.09595684393901072e-04 
1.77518613571143735e-02 0.00000000000000000e+00 -1.27484703496625836e-04 
1.34632592136094773e-02 0.00000000000000000e+00 -5.38378745918148227e-05 
4.86932403536398471e-03 0.00000000000000000e+00 -9.40672329974087727e-07 
3.70384465431695270e-04 0.00000000000000000e+00 8.35896888710551514e-06 
-5.80269422272166680e-04 0.00000000000000000e+00 2.45356477146312151e-06 
-1.66005209640692549e-04 0.00000000000000000e+00 -1.76591514722674193e-06 