# vtk DataFile Version 2.0

ASCII

DATASET UNSTRUCTURED_GRID

POINTS 281 double 

0.00000000000000000e+00  6.00000000000000012e-03  8.68039800000000063e-03
0.00000000000000000e+00  6.00000000000000012e-03  2.15013699999999988e-02
0.00000000000000000e+00  5.99999699999999997e-03  3.38432499999999983e-02
0.00000000000000000e+00  6.00000000000000012e-03  4.61511800000000000e-02
0.00000000000000000e+00  5.99999399999999981e-03  5.84285100000000029e-02
0.00000000000000000e+00  5.99999899999999978e-03  7.03572799999999943e-02
0.00000000000000000e+00  6.00000000000000012e-03  7.56573400000000035e-02
0.00000000000000000e+00  6.00000000000000012e-03  1.52458600000000000e-02
0.00000000000000000e+00  5.99999899999999978e-03  2.76822099999999988e-02
0.00000000000000000e+00  5.99999899999999978e-03  3.99985900000000005e-02
0.00000000000000000e+00  5.99999800000000031e-03  5.22986000000000006e-02
0.00000000000000000e+00  5.99999800000000031e-03  6.44963600000000026e-02
0.00000000000000000e+00  3.00000000000000006e-03  3.07692300000000007e-03
0.00000000000000000e+00  3.00000000000000006e-03  1.04940499999999996e-02
0.00000000000000000e+00  3.00000000000000006e-03  7.41712199999999995e-03
0.00000000000000000e+00  3.00000000000000006e-03  2.30583799999999998e-02
0.00000000000000000e+00  3.00000000000000006e-03  1.99814599999999995e-02
0.00000000000000000e+00  2.99999900000000016e-03  3.53831699999999985e-02
0.00000000000000000e+00  2.99999900000000016e-03  3.23062400000000000e-02
0.00000000000000000e+00  3.00000000000000006e-03  4.76909699999999992e-02
0.00000000000000000e+00  3.00000000000000006e-03  4.46140500000000023e-02
0.00000000000000000e+00  2.99999699999999991e-03  5.99834799999999987e-02
0.00000000000000000e+00  2.99999699999999991e-03  5.69065600000000019e-02
0.00000000000000000e+00  2.99999900000000016e-03  7.21017199999999941e-02
0.00000000000000000e+00  2.99999900000000016e-03  6.90247900000000025e-02
0.00000000000000000e+00  3.00000000000000006e-03  7.78286700000000026e-02
0.00000000000000000e+00  3.00000000000000006e-03  7.47517500000000057e-02
0.00000000000000000e+00  5.99999899999999978e-03  7.30073100000000058e-02
0.00000000000000000e+00  6.00000000000000012e-03  7.78286700000000026e-02
0.00000000000000000e+00  8.99999999999999932e-03  7.47517500000000057e-02
0.00000000000000000e+00  8.99999999999999932e-03  7.78286700000000026e-02
0.00000000000000000e+00  8.99999999999999932e-03  3.07692300000000007e-03
0.00000000000000000e+00  8.99999999999999932e-03  7.41712199999999995e-03
0.00000000000000000e+00  8.99999999999999932e-03  1.04940499999999996e-02
0.00000000000000000e+00  8.99999999999999932e-03  1.99814599999999995e-02
0.00000000000000000e+00  8.99999999999999932e-03  2.30583799999999998e-02
0.00000000000000000e+00  8.99999899999999985e-03  3.23062400000000000e-02
0.00000000000000000e+00  8.99999899999999985e-03  3.53831699999999985e-02
0.00000000000000000e+00  8.99999999999999932e-03  4.46140500000000023e-02
0.00000000000000000e+00  8.99999999999999932e-03  4.76909699999999992e-02
0.00000000000000000e+00  8.99999699999999916e-03  5.69065600000000019e-02
0.00000000000000000e+00  8.99999699999999916e-03  5.99834799999999987e-02
0.00000000000000000e+00  8.99999899999999985e-03  6.90247900000000025e-02
0.00000000000000000e+00  8.99999899999999985e-03  7.21017199999999941e-02
0.00000000000000000e+00  6.00000000000000012e-03  4.34019900000000031e-03
0.00000000000000000e+00  3.00000000000000006e-03  1.37767800000000006e-02
0.00000000000000000e+00  6.00000000000000012e-03  1.19631300000000006e-02
0.00000000000000000e+00  3.00000000000000006e-03  1.68536999999999992e-02
0.00000000000000000e+00  6.00000000000000012e-03  1.83736200000000002e-02
0.00000000000000000e+00  5.99999800000000031e-03  3.07627299999999985e-02
0.00000000000000000e+00  3.00000000000000006e-03  2.92257200000000002e-02
0.00000000000000000e+00  3.00000000000000006e-03  2.61487999999999998e-02
0.00000000000000000e+00  8.99999999999999932e-03  2.92257200000000002e-02
0.00000000000000000e+00  6.00000000000000012e-03  4.30748800000000029e-02
0.00000000000000000e+00  2.99999900000000016e-03  4.15377600000000000e-02
0.00000000000000000e+00  2.99999900000000016e-03  3.84608300000000014e-02
0.00000000000000000e+00  8.99999899999999985e-03  4.15377600000000000e-02
0.00000000000000000e+00  5.99999599999999963e-03  5.53635499999999975e-02
0.00000000000000000e+00  2.99999900000000016e-03  5.38416099999999981e-02
0.00000000000000000e+00  2.99999900000000016e-03  5.07646799999999995e-02
0.00000000000000000e+00  8.99999899999999985e-03  5.38416099999999981e-02
0.00000000000000000e+00  5.99999800000000031e-03  6.74268199999999984e-02
0.00000000000000000e+00  2.99999900000000016e-03  6.60943300000000067e-02
0.00000000000000000e+00  2.99999900000000016e-03  6.30174099999999959e-02
0.00000000000000000e+00  8.99999899999999985e-03  6.60943300000000067e-02
0.00000000000000000e+00  5.99999899999999978e-03  4.92248900000000003e-02
0.00000000000000000e+00  8.99999999999999932e-03  1.68536999999999992e-02
0.00000000000000000e+00  5.99999899999999978e-03  2.45917899999999988e-02
0.00000000000000000e+00  8.99999999999999932e-03  2.61487999999999998e-02
0.00000000000000000e+00  8.99999999999999932e-03  1.37767800000000006e-02
0.00000000000000000e+00  5.99999800000000031e-03  3.69209200000000029e-02
0.00000000000000000e+00  8.99999899999999985e-03  3.84608300000000014e-02
0.00000000000000000e+00  8.99999899999999985e-03  5.07646799999999995e-02
0.00000000000000000e+00  5.99999599999999963e-03  6.14624299999999985e-02
0.00000000000000000e+00  8.99999899999999985e-03  6.30174099999999959e-02
1.20000000000000002e-02  1.20000000000000002e-02  8.00000000000000017e-02
0.00000000000000000e+00  0.00000000000000000e+00  8.00000000000000017e-02
1.20000000000000002e-02  6.00000000000000012e-03  0.00000000000000000e+00
1.20000000000000002e-02  3.00000000000000006e-03  0.00000000000000000e+00
1.20000000000000002e-02  8.99999999999999932e-03  0.00000000000000000e+00
1.20000000000000002e-02  0.00000000000000000e+00  8.00000000000000017e-02
1.20000000000000002e-02  0.00000000000000000e+00  0.00000000000000000e+00
0.00000000000000000e+00  1.20000000000000002e-02  0.00000000000000000e+00
1.20000000000000002e-02  5.99999899999999978e-03  8.68039699999999942e-03
1.20000000000000002e-02  5.99999899999999978e-03  1.52458600000000000e-02
1.20000000000000002e-02  5.99999899999999978e-03  2.15013699999999988e-02
1.20000000000000002e-02  6.00000000000000012e-03  2.76822099999999988e-02
1.20000000000000002e-02  5.99999899999999978e-03  3.38432399999999967e-02
1.20000000000000002e-02  5.99999800000000031e-03  3.99985900000000005e-02
1.20000000000000002e-02  5.99999699999999997e-03  4.61511800000000000e-02
1.20000000000000002e-02  5.99999300000000034e-03  5.22986100000000023e-02
1.20000000000000002e-02  5.99998599999999969e-03  5.84285400000000010e-02
1.20000000000000002e-02  5.99997800000000043e-03  6.44963800000000059e-02
1.20000000000000002e-02  5.99997500000000027e-03  7.03572999999999976e-02
1.20000000000000002e-02  5.99997500000000027e-03  7.56573600000000068e-02
1.20000000000000002e-02  3.00000000000000006e-03  3.07692300000000007e-03
1.20000000000000002e-02  3.00000000000000006e-03  7.41712099999999961e-03
1.20000000000000002e-02  3.00000000000000006e-03  1.04940399999999996e-02
1.20000000000000002e-02  2.99999900000000016e-03  1.37767800000000006e-02
1.20000000000000002e-02  2.99999900000000016e-03  1.68536999999999992e-02
1.20000000000000002e-02  5.99999899999999978e-03  1.19631300000000006e-02
1.20000000000000002e-02  3.00000000000000006e-03  1.99814500000000013e-02
1.20000000000000002e-02  3.00000000000000006e-03  2.30583799999999998e-02
1.20000000000000002e-02  5.99999899999999978e-03  1.83736099999999986e-02
1.20000000000000002e-02  3.00000000000000006e-03  2.61487999999999998e-02
1.20000000000000002e-02  3.00000000000000006e-03  2.92257200000000002e-02
1.20000000000000002e-02  5.99999899999999978e-03  2.45917899999999988e-02
1.20000000000000002e-02  3.00000000000000006e-03  3.23062299999999983e-02
1.20000000000000002e-02  3.00000000000000006e-03  3.53831599999999968e-02
1.20000000000000002e-02  5.99999899999999978e-03  3.07627200000000003e-02
1.20000000000000002e-02  2.99999900000000016e-03  3.84608300000000014e-02
1.20000000000000002e-02  2.99999900000000016e-03  4.15377499999999983e-02
1.20000000000000002e-02  5.99999899999999978e-03  3.69209100000000012e-02
1.20000000000000002e-02  2.99999799999999981e-03  4.46140500000000023e-02
1.20000000000000002e-02  2.99999799999999981e-03  4.76909800000000009e-02
1.20000000000000002e-02  5.99999800000000031e-03  4.30748800000000029e-02
1.20000000000000002e-02  2.99999699999999991e-03  5.07646900000000012e-02
1.20000000000000002e-02  2.99999699999999991e-03  5.38416099999999981e-02
1.20000000000000002e-02  5.99999500000000015e-03  4.92249000000000020e-02
1.20000000000000002e-02  2.99999299999999984e-03  5.69065799999999983e-02
1.20000000000000002e-02  2.99999299999999984e-03  5.99835000000000021e-02
1.20000000000000002e-02  5.99999000000000018e-03  5.53635800000000025e-02
1.20000000000000002e-02  2.99998900000000021e-03  6.30174200000000045e-02
1.20000000000000002e-02  2.99998900000000021e-03  6.60943499999999962e-02
1.20000000000000002e-02  5.99998200000000006e-03  6.14624599999999965e-02
1.20000000000000002e-02  2.99998799999999987e-03  6.90248100000000059e-02
1.20000000000000002e-02  2.99998799999999987e-03  7.21017300000000028e-02
1.20000000000000002e-02  5.99997700000000009e-03  6.74268400000000018e-02
1.20000000000000002e-02  2.99998699999999997e-03  7.47517600000000004e-02
1.20000000000000002e-02  2.99998699999999997e-03  7.78286799999999973e-02
1.20000000000000002e-02  5.99998700000000003e-03  7.78286799999999973e-02
1.20000000000000002e-02  5.99997500000000027e-03  7.30073299999999953e-02
1.20000000000000002e-02  8.99998699999999922e-03  7.78286799999999973e-02
1.20000000000000002e-02  8.99999999999999932e-03  3.07692300000000007e-03
[...]
POINT_DATA 281

SCALARS Rank unsigned_int
LOOKUP_TABLE default
0 0 0 0 0 0 0 0 0 0 0 0 0 0 0 0 0 0 0 0 0 0 0 0 0 0 0 0 0 0 0 0 0 0 0 0 0 0 0 0 0 0 0 0 0 0 0 0 0 0 0 0 0 0 0 0 0 0 0 0 0 0 0 0 0 0 0 0 0 0 0 0 0 0 0 0 0 0 0 0 0 0 0 0 0 0 0 0 0 0 0 0 0 0 0 0 0 0 0 0 0 0 0 0 0 0 0 0 0 0 0 0 0 0 0 0 0 0 0 0 0 0 0 0 0 0 0 0 0 0 0 0 0 0 0 0 0 0 0 0 0 0 0 0 0 0 0 0 0 0 0 0 0 0 0 0 0 0 0 0 0 0 0 0 0 0 0 0 0 0 0 0 0 0 0 0 0 0 0 0 0 0 0 0 0 0 0 0 0 0 0 0 0 0 0 0 0 0 0 0 0 0 0 0 0 0 0 0 0 0 0 0 0 0 0 0 0 0 0 0 0 0 0 0 0 0 0 0 0 0 0 0 0 0 0 0 0 0 0 0 0 0 0 0 0 0 0 0 0 0 0 0 0 0 0 0 0 0 0 0 0 0 0 0 0 0 0 0 0 0 0 0 0 0 0 0 0 0 0 0 0 

VECTORS Forces0 double
1.31697160253706179e-05 0.00000000000000000e+00 1.72938284388015054e-07 
1.26034119353586330e-05 0.00000000000000000e+00 -1.19722531017513292e-07 
1.02350551696344886e-05 0.00000000000000000e+00 8.84630046433870402e-08 
7.54143790406347641e-06 0.00000000000000000e+00 -6.48056739708745604e-08 
4.83239746716418878e-06 0.00000000000000000e+00 8.52194816736188346e-08 
2.06916473393291309e-06 0.00000000000000000e+00 -1.87831922891629648e-07 
9.41682564752719411e-07 0.00000000000000000e+00 -5.13430852227062672e-07 
1.31996664217302356e-05 0.00000000000000000e+00 4.10999644662898831e-08 
1.15804195332997960e-05 0.00000000000000000e+00 -9.82055578311114745e-08 
8.86165865030728231e-06 0.00000000000000000e+00 1.59705176600455373e-07 
6.23399134704255663e-06 0.00000000000000000e+00 -2.39952236560965925e-07 
3.41526525756951214e-06 0.00000000000000000e+00 3.94558494493779495e-07 
1.24435936462545035e-05 0.00000000000000000e+00 1.66589981054860652e-08 
1.33371984334701250e-05 0.00000000000000000e+00 1.57861015074450293e-07 
1.30561196335744651e-05 0.00000000000000000e+00 1.67380976691971232e-07 
1.23083561690664280e-05 0.00000000000000000e+00 -1.35453495287055003e-07 
1.28662317274526512e-05 0.00000000000000000e+00 -9.21002823327690841e-08 
9.95951926582079610e-06 0.00000000000000000e+00 1.30186828508287621e-07 
1.05337644576843890e-05 0.00000000000000000e+00 3.91838762537298663e-08 
7.17800033660579297e-06 0.00000000000000000e+00 -1.37769359767278495e-07 
7.92384963076428978e-06 0.00000000000000000e+00 9.91488401828330463e-09 
4.50645103769667287e-06 0.00000000000000000e+00 2.14191538303802959e-07 
5.15253799133562205e-06 0.00000000000000000e+00 -3.73933613780483095e-08 
1.66804989993477160e-06 0.00000000000000000e+00 -4.20218165378121173e-07 
2.38759205014692674e-06 0.00000000000000000e+00 6.76182846508878553e-09 
5.54610462211746057e-07 0.00000000000000000e+00 -1.93557363213571771e-07 
1.11388622391315630e-06 0.00000000000000000e+00 -5.60205343175292045e-07 
1.47053217173704134e-06 0.00000000000000000e+00 -5.07083267569486036e-07 
5.54610462203373136e-07 0.00000000000000000e+00 -1.93557363242005820e-07 
1.11388622391532851e-06 0.00000000000000000e+00 -5.60205343168039749e-07 
5.54610462207077211e-07 0.00000000000000000e+00 -1.93557363219213858e-07 
1.24435936462466075e-05 0.00000000000000000e+00 1.66589981032640860e-08 
1.30561196335715073e-05 0.00000000000000000e+00 1.67380976686379809e-07 
1.33371984334654511e-05 0.00000000000000000e+00 1.57861015053878933e-07 
1.28662317274564391e-05 0.00000000000000000e+00 -9.21002823336660655e-08 
1.23083561690635939e-05 0.00000000000000000e+00 -1.35453495281091494e-07 
1.05337644576831354e-05 0.00000000000000000e+00 3.91838762471082392e-08 
9.95951926582052675e-06 0.00000000000000000e+00 1.30186828513326991e-07 
7.92384963076551120e-06 0.00000000000000000e+00 9.91488400622092018e-09 
7.17800033661021617e-06 0.00000000000000000e+00 -1.37769359776436404e-07 
5.15253799133550855e-06 0.00000000000000000e+00 -3.73933613777956819e-08 
4.50645103769601980e-06 0.00000000000000000e+00 2.14191538308341706e-07 
2.38759205014546095e-06 0.00000000000000000e+00 6.76182848468838677e-09 
1.66804989993400842e-06 0.00000000000000000e+00 -4.20218165380650043e-07 
1.27344162546607402e-05 0.00000000000000000e+00 8.39344271257466760e-08 
1.33237363768369836e-05 0.00000000000000000e+00 8.43226978783443468e-08 
1.34249310371798681e-05 0.00000000000000000e+00 1.30334324100984133e-07 
1.30835598906321987e-05 0.00000000000000000e+00 -7.96271739221988738e-09 
1.29909871817550195e-05 0.00000000000000000e+00 -5.21329625975780010e-08 
1.08739052194663515e-05 0.00000000000000000e+00 -1.20860174861913500e-08 
1.12454479314876914e-05 0.00000000000000000e+00 -5.92844040228119734e-08 
1.18094476558102308e-05 0.00000000000000000e+00 -1.24510803136810216e-07 
1.12454479314870781e-05 0.00000000000000000e+00 -5.92844040158127549e-08 
8.24941452817037001e-06 0.00000000000000000e+00 7.68568056113692887e-08 
8.54157322267458820e-06 0.00000000000000000e+00 1.27950252944885838e-07 
9.22538447679753724e-06 0.00000000000000000e+00 1.69512263562842611e-07 
8.54157322267600953e-06 0.00000000000000000e+00 1.27950252947120946e-07 
5.49712301443640419e-06 0.00000000000000000e+00 -1.40508753662306081e-07 
5.86143733817749325e-06 0.00000000000000000e+00 -2.08536982924734242e-07 
6.54791136340312527e-06 0.00000000000000000e+00 -2.34369459010335625e-07 
5.86143733817801163e-06 0.00000000000000000e+00 -2.08536982917512121e-07 
2.75912928435434894e-06 0.00000000000000000e+00 2.10447295302571805e-07 
3.05378672358757585e-06 0.00000000000000000e+00 3.26614994007173093e-07 
3.76664813341559849e-06 0.00000000000000000e+00 3.85658127586819564e-07 
3.05378672358590889e-06 0.00000000000000000e+00 3.26614994022470932e-07 
6.84867694441181257e-06 0.00000000000000000e+00 -1.97736501017529170e-07 
1.30835598906331795e-05 0.00000000000000000e+00 -7.96271737849019799e-09 
1.20425432027693974e-05 0.00000000000000000e+00 -1.37353087652771920e-07 
1.18094476558105476e-05 0.00000000000000000e+00 -1.24510803126433454e-07 
1.33237363768345746e-05 0.00000000000000000e+00 8.43226978951405866e-08 
9.61497781861409810e-06 0.00000000000000000e+00 1.58849016721922184e-07 
9.22538447679600411e-06 0.00000000000000000e+00 1.69512263559996157e-07 
6.54791136340527334e-06 0.00000000000000000e+00 -2.34369459025024659e-07 
4.14827452505071141e-06 0.00000000000000000e+00 3.18105463520897404e-07 
3.76664813341133325e-06 0.00000000000000000e+00 3.85658127578123395e-07 
1.52329378020126115e-06 0.00000000000000000e+00 6.16502902656469050e-07 
2.28881334286377648e-07 0.00000000000000000e+00 6.23197088756880524e-07 
-1.24778677376204349e-06 0.00000000000000000e+00 -2.44256754562509414e-07 
-1.24778677376031469e-06 0.00000000000000000e+00 -2.44256754588496915e-07 
-1.24778677376267029e-06 0.00000000000000000e+00 -2.44256754582243800e-07 
1.52329378020508635e-06 0.00000000000000000e+00 6.16502902655738060e-07 
-1.24778677376179022e-06 0.00000000000000000e+00 -2.44256754557691173e-07 
1.15522339633356052e-05 0.00000000000000000e+00 -2.42209708921420806e-07 
-9.64797516254984392e-07 0.00000000000000000e+00 1.72331483679631088e-07 
-6.38510621546512110e-07 0.00000000000000000e+00 4.13698248748434371e-08 
-3.05768929094854452e-07 0.00000000000000000e+00 -1.18090428737199507e-07 
8.41084311073839150e-08 0.00000000000000000e+00 -9.60325015059197696e-08 
5.66513813029904415e-07 0.00000000000000000e+00 9.03585980371141180e-08 
1.15942565375057268e-06 0.00000000000000000e+00 1.61082082065975177e-07 
1.84136499683010323e-06 0.00000000000000000e+00 -6.53072692649864756e-08 
2.52616742918401998e-06 0.00000000000000000e+00 -2.44524678965080538e-07 
3.04276485614055909e-06 0.00000000000000000e+00 7.81550088729952647e-08 
3.24387389046409774e-06 0.00000000000000000e+00 3.85893839197162456e-07 
3.03383705400942496e-06 0.00000000000000000e+00 -2.01059168003527179e-07 
2.42189752369201879e-06 0.00000000000000000e+00 -5.31899332018299251e-07 
-1.20089499338934818e-06 0.00000000000000000e+00 1.57755914103209978e-08 
-1.02380396531383262e-06 0.00000000000000000e+00 1.66626257698103543e-07 
-8.81032862033307878e-07 0.00000000000000000e+00 1.57840589863616246e-07 
-7.16671379145610255e-07 0.00000000000000000e+00 8.46770634447410560e-08 
-5.53693588767067765e-07 0.00000000000000000e+00 -7.44905888611082355e-09 
-8.12186483078849261e-07 0.00000000000000000e+00 1.30828915101297645e-07 
-3.90008547889797265e-07 0.00000000000000000e+00 -9.04771396611316334e-08 
-2.14785547337352708e-07 0.00000000000000000e+00 -1.33866919844824746e-07 
-4.74900119842449181e-07 0.00000000000000000e+00 -5.11077230912697501e-08 
-2.01695976064674857e-08 0.00000000000000000e+00 -1.22613287657555300e-07 
1.92728081175537764e-07 0.00000000000000000e+00 -5.69958409877830670e-08 
-1.21156527005700620e-07 0.00000000000000000e+00 -1.35686663913192611e-07 
4.32052061843048894e-07 0.00000000000000000e+00 4.13186124777897090e-08 
7.10494835910629684e-07 0.00000000000000000e+00 1.31772425118376908e-07 
3.06986640156770988e-07 0.00000000000000000e+00 -9.82027625491620980e-09 
1.00215740958546800e-06 0.00000000000000000e+00 1.71147279021155386e-07 
1.32842605739445714e-06 0.00000000000000000e+00 1.28607594673863697e-07 
8.54436075369037031e-07 0.00000000000000000e+00 1.60420397534541860e-07 
1.67756501663405560e-06 0.00000000000000000e+00 9.10732746937617256e-09 
2.01022239475451827e-06 0.00000000000000000e+00 -1.38494609935215306e-07 
1.50473574896301065e-06 0.00000000000000000e+00 7.65173816764408444e-08 
2.36137353806945024e-06 0.00000000000000000e+00 -2.37793085278599573e-07 
2.66566038969289745e-06 0.00000000000000000e+00 -2.12518540432731660e-07 
2.18409256772478556e-06 0.00000000000000000e+00 -1.99457297227489971e-07 
2.92338724367573899e-06 0.00000000000000000e+00 -4.23120814527199508e-08 
3.14504305166195832e-06 0.00000000000000000e+00 2.04894929649976731e-07 
2.79522834095597349e-06 0.00000000000000000e+00 -1.44325987128573617e-07 
3.22858282526962345e-06 0.00000000000000000e+00 3.77765324714366523e-07 
3.24401684060246984e-06 0.00000000000000000e+00 3.15307265617082733e-07 
3.19750984419811975e-06 0.00000000000000000e+00 3.09581299536298590e-07 
3.14133286774162330e-06 0.00000000000000000e+00 -7.64221510450106917e-09 
2.86505108227264731e-06 0.00000000000000000e+00 -4.33439992371331587e-07 
3.22297598893813052e-06 0.00000000000000000e+00 1.96386088881600306e-07 
2.55271849571960150e-06 0.00000000000000000e+00 -5.77379388144838454e-07 
2.00380252653303385e-06 0.00000000000000000e+00 -2.06699787255372400e-07 
2.00380252653497186e-06 0.00000000000000000e+00 -2.06699787237535156e-07 
2.76682069310477789e-06 0.00000000000000000e+00 -5.21248125047202883e-07 
2.00380252653583711e-06 0.00000000000000000e+00 -2.06699787238823917e-07 
-1.20089499339451339e-06 0.00000000000000000e+00 1.57755913993100194e-08 
-8.81032862028912624e-07 0.00000000000000000e+00 1.57840589849343900e-07 
-1.02380396531664392e-06 0.00000000000000000e+00 1.66626257721467729e-07 
-5.53693588768325186e-07 0.00000000000000000e+00 -7.44905890867705181e-09 
-7.16671379149364305e-07 0.00000000000000000e+00 8.46770634597822436e-08 
-2.14785547335671772e-07 0.00000000000000000e+00 -1.33866919829592976e-07 
-3.90008547894383525e-07 0.00000000000000000e+00 -9.04771396479504243e-08 
1.92728081177696428e-07 0.00000000000000000e+00 -5.69958409891878712e-08 
-2.01695976035405634e-08 0.00000000000000000e+00 -1.22613287662781916e-07 
7.10494835910440160e-07 0.00000000000000000e+00 1.31772425099939594e-07 
4.32052061840233780e-07 0.00000000000000000e+00 4.13186124433907481e-08 
1.32842605739381318e-06 0.00000000000000000e+00 1.28607594667866572e-07 
1.00215740958568844e-06 0.00000000000000000e+00 1.71147279015804043e-07 
2.01022239475308128e-06 0.00000000000000000e+00 -1.38494609940373842e-07 
1.67756501663446302e-06 0.00000000000000000e+00 9.10732747585840983e-09 
2.66566038969445006e-06 0.00000000000000000e+00 -2.12518540430638086e-07 
2.36137353806792897e-06 0.00000000000000000e+00 -2.37793085274326927e-07 
3.14504305166037522e-06 0.00000000000000000e+00 2.04894929642806597e-07 
2.92338724367950236e-06 0.00000000000000000e+00 -4.23120814561034768e-08 
3.24401684059980593e-06 0.00000000000000000e+00 3.15307265599328076e-07 
3.22858282526924017e-06 0.00000000000000000e+00 3.77765324730521136e-07 
2.86505108227133229e-06 0.00000000000000000e+00 -4.33439992376975685e-07 
3.14133286774225265e-06 0.00000000000000000e+00 -7.64221512111583219e-09 
-1.16196290826926603e-06 0.00000000000000000e+00 8.34075668241753153e-08 
2.55271849572144041e-06 0.00000000000000000e+00 -5.77379388154438196e-07 
2.28881334291418341e-07 0.00000000000000000e+00 6.23197088756369763e-07 
1.29442638134391678e-05 0.00000000000000000e+00 1.46007494831445143e-07 
1.34192183965169099e-05 0.00000000000000000e+00 1.22460881649617194e-07 
1.29856759567795927e-05 0.00000000000000000e+00 -5.45367275776967686e-08 
1.20387563847734614e-05 0.00000000000000000e+00 -1.37269792129181336e-07 
1.08723838957346630e-05 0.00000000000000000e+00 -1.18747911204357121e-08 
9.61443060176369608e-06 0.00000000000000000e+00 1.58877450858086031e-07 
8.24903082903882211e-06 0.00000000000000000e+00 7.67774162438294719e-08 
6.84748228066007178e-06 0.00000000000000000e+00 -1.97926974303763916e-07 
5.49223362080661518e-06 0.00000000000000000e+00 -1.39314818104807015e-07 
4.12943699641495018e-06 0.00000000000000000e+00 3.22554512780683899e-07 
2.69992539452575905e-06 0.00000000000000000e+00 1.81154494267854053e-07 
1.29475826275619679e-06 0.00000000000000000e+00 -5.55059675906265254e-07 
1.24435936462509731e-05 0.00000000000000000e+00 1.66589980918246943e-08 
1.32207089069430291e-05 0.00000000000000000e+00 1.70999547823211635e-07 
1.31884760837628105e-05 0.00000000000000000e+00 3.68791525287905501e-08 
1.25963017873202291e-05 0.00000000000000000e+00 -1.20251895347674123e-07 
1.15787322462512639e-05 0.00000000000000000e+00 -9.79892585922121388e-08 
1.02345262552842643e-05 0.00000000000000000e+00 8.85504778288321336e-08 
8.86134515212269661e-06 0.00000000000000000e+00 1.59686045176917782e-07 
7.54078137366045272e-06 0.00000000000000000e+00 -6.49366886044878430e-08 
6.23187759509207136e-06 0.00000000000000000e+00 -2.39880573735632830e-07 
4.82559144507402496e-06 0.00000000000000000e+00 8.79904688697722343e-08 
3.38769283838392684e-06 0.00000000000000000e+00 3.92382693279229015e-07 
1.97220193078613292e-06 0.00000000000000000e+00 -2.46974569920842867e-07 
7.10086120798860524e-07 0.00000000000000000e+00 -3.76093627725118280e-07 
4.47589301530197208e-07 0.00000000000000000e+00 8.89542100802218503e-06 
4.47589301530392026e-07 0.00000000000000000e+00 8.89542100802122788e-06 
1.26934709854332825e-06 0.00000000000000000e+00 8.89248117564232540e-06 
1.26934709854183324e-06 0.00000000000000000e+00 8.89248117563941500e-06 
8.51241292801081270e-07 0.00000000000000000e+00 1.59066415569950493e-05 
8.51241292799062791e-07 0.00000000000000000e+00 1.59066415569988067e-05 
4.47589301530906175e-07 0.00000000000000000e+00 8.89542100804524465e-06 
1.26934709854079647e-06 0.00000000000000000e+00 8.89248117564268793e-06 
1.52329378020286458e-06 0.00000000000000000e+00 6.16502902655259063e-07 
1.52329378020483732e-06 0.00000000000000000e+00 6.16502902645192924e-07 
1.52329378020595032e-06 0.00000000000000000e+00 6.16502902642085160e-07 
2.28881334288189451e-07 0.00000000000000000e+00 6.23197088765546942e-07 
2.28881334291780871e-07 0.00000000000000000e+00 6.23197088748575790e-07 
2.28881334290819489e-07 0.00000000000000000e+00 6.23197088760320749e-07 
-1.08274916028335079e-06 0.00000000000000000e+00 1.45310950437368719e-07 
-7.94763966212260677e-07 0.00000000000000000e+00 1.22971482233628308e-07 
-4.70332523119348422e-07 0.00000000000000000e+00 -5.34765456341112844e-08 
-1.19673175704769226e-07 0.00000000000000000e+00 -1.35600916983342211e-07 
3.07491170494253696e-07 0.00000000000000000e+00 -9.60905005630599366e-09 
8.54638562213037528e-07 0.00000000000000000e+00 1.60449171112731901e-07 
1.50497208278726963e-06 0.00000000000000000e+00 7.64366477076541140e-08 
2.18476732505772125e-06 0.00000000000000000e+00 -1.99652879730001110e-07 
2.79699707401060172e-06 0.00000000000000000e+00 -1.43139540949927435e-07 
3.19945263728841647e-06 0.00000000000000000e+00 3.14084648684523525e-07 
3.21500577314643570e-06 0.00000000000000000e+00 1.66651744081947447e-07 
2.66862453059072289e-06 0.00000000000000000e+00 -5.70538892801124850e-07 
-1.20089499338854180e-06 0.00000000000000000e+00 1.57755914153643643e-08 
-9.39381842911390136e-07 0.00000000000000000e+00 1.70526702319599275e-07 
-6.31168989751727598e-07 0.00000000000000000e+00 3.71546110439374346e-08 
-3.03657922528247584e-07 0.00000000000000000e+00 -1.18621826376181062e-07 
8.48109911512869381e-08 0.00000000000000000e+00 -9.58146219303734483e-08 
5.66778190875015418e-07 0.00000000000000000e+00 9.04458120150734883e-08 
1.15957530529539975e-06 0.00000000000000000e+00 1.61062500260972999e-07 
1.84165220660001351e-06 0.00000000000000000e+00 -6.54380468874325293e-08 
2.52703938304232702e-06 0.00000000000000000e+00 -2.44451691736873495e-07 
3.04521613445744391e-06 0.00000000000000000e+00 8.08688789583849062e-08 
3.24453133000493689e-06 0.00000000000000000e+00 3.83583308741319827e-07 
2.99647565036147216e-06 0.00000000000000000e+00 -2.59979147364553404e-07 
2.19201598008346100e-06 0.00000000000000000e+00 -3.92344177033676061e-07 
1.15522339633341195e-05 0.00000000000000000e+00 -2.42209708920628830e-07 
1.15522339633349852e-05 0.00000000000000000e+00 -2.42209708926204530e-07 
1.15522339633316174e-05 0.00000000000000000e+00 -2.42209708925319910e-07 
8.51241292803022670e-07 0.00000000000000000e+00 1.59066415569956253e-05 
4.47589301528874143e-07 0.00000000000000000e+00 8.89542100804361666e-06 
1.26934709854031112e-06 0.00000000000000000e+00 8.89248117563884579e-06 
-1.08274916028192015e-06 0.00000000000000000e+00 1.45310950446947020e-07 
-7.94763966210713995e-07 0.00000000000000000e+00 1.22971482233527723e-07 
-4.70332523119769397e-07 0.00000000000000000e+00 -5.34765456422969050e-08 
-1.19673175704508763e-07 0.00000000000000000e+00 -1.35600916972433274e-07 
3.07491170493125024e-07 0.00000000000000000e+00 -9.60905005899002931e-09 
8.54638562213866138e-07 0.00000000000000000e+00 1.60449171125663500e-07 
1.50497208278588854e-06 0.00000000000000000e+00 7.64366477052292969e-08 
2.18476732505649771e-06 0.00000000000000000e+00 -1.99652879727810630e-07 
2.79699707401038234e-06 0.00000000000000000e+00 -1.43139540953535160e-07 
3.19945263728792477e-06 0.00000000000000000e+00 3.14084648687812554e-07 
3.21500577314514186e-06 0.00000000000000000e+00 1.66651744083899646e-07 
2.66862453058939898e-06 0.00000000000000000e+00 -5.70538892792614710e-07 
-1.20089499339090248e-06 0.00000000000000000e+00 1.57755914283400885e-08 
-9.39381842912742848e-07 0.00000000000000000e+00 1.70526702313006818e-07 
-6.31168989749563429e-07 0.00000000000000000e+00 3.71546110250421412e-08 
-3.03657922527007952e-07 0.00000000000000000e+00 -1.18621826380367523e-07 
8.48109911505898299e-08 0.00000000000000000e+00 -9.58146219306431224e-08 
5.66778190875019229e-07 0.00000000000000000e+00 9.04458120201053934e-08 
1.15957530529416965e-06 0.00000000000000000e+00 1.61062500260613486e-07 
1.84165220659753043e-06 0.00000000000000000e+00 -6.54380468897364589e-08 
2.52703938304262306e-06 0.00000000000000000e+00 -2.44451691735623486e-07 
3.04521613445766837e-06 0.00000000000000000e+00 8.08688789578072297e-08 
3.24453133000702144e-06 0.00000000000000000e+00 3.83583308733981981e-07 
2.99647565036360498e-06 0.00000000000000000e+00 -2.59979147380179256e-07 
2.19201598008648110e-06 0.00000000000000000e+00 -3.92344177034899388e-07 
1.15522339633352529e-05 0.00000000000000000e+00 -2.42209708905951020e-07 
1.29442638134393677e-05 0.00000000000000000e+00 1.46007494856879954e-07 
1.34192183965159494e-05 0.00000000000000000e+00 1.22460881656080850e-07 
1.29856759567770075e-05 0.00000000000000000e+00 -5.45367275618761784e-08 
1.20387563847752486e-05 0.00000000000000000e+00 -1.37269792126492536e-07 
1.08723838957337448e-05 0.00000000000000000e+00 -1.18747911279765818e-08 
9.61443060176459732e-06 0.00000000000000000e+00 1.58877450849218284e-07 
8.24903082903756681e-06 0.00000000000000000e+00 7.67774162500250944e-08 