# vtk DataFile Version 2.0

ASCII

DATASET UNSTRUCTURED_GRID

POINTS 281 double 

0.00000000000000000e+00  6.00000000000000012e-03  8.68039800000000063e-03
0.00000000000000000e+00  6.00000000000000012e-03  2.15013699999999988e-02
0.00000000000000000e+00  5.99999699999999997e-03  3.38432499999999983e-02
0.00000000000000000e+00  6.00000000000000012e-03  4.61511800000000000e-02
0.00000000000000000e+00  5.99999399999999981e-03  5.84285100000000029e-02
0.00000000000000000e+00  5.99999899999999978e-03  7.03572799999999943e-02
0.00000000000000000e+00  6.00000000000000012e-03  7.56573400000000035e-02
0.00000000000000000e+00  6.00000000000000012e-03  1.52458600000000000e-02
0.00000000000000000e+00  5.99999899999999978e-03  2.76822099999999988e-02
0.00000000000000000e+00  5.99999899999999978e-03  3.99985900000000005e-02
0.00000000000000000e+00  5.99999800000000031e-03  5.22986000000000006e-02
0.00000000000000000e+00  5.99999800000000031e-03  6.44963600000000026e-02
0.00000000000000000e+00  3.00000000000000006e-03  3.07692300000000007e-03
0.00000000000000000e+00  3.00000000000000006e-03  1.04940499999999996e-02
0.00000000000000000e+00  3.00000000000000006e-03  7.41712199999999995e-03
0.00000000000000000e+00  3.00000000000000006e-03  2.30583799999999998e-02
0.00000000000000000e+00  3.00000000000000006e-03  1.99814599999999995e-02
0.00000000000000000e+00  2.99999900000000016e-03  3.53831699999999985e-02
0.00000000000000000e+00  2.99999900000000016e-03  3.23062400000000000e-02
0.00000000000000000e+00  3.00000000000000006e-03  4.76909699999999992e-02
0.00000000000000000e+00  3.00000000000000006e-03  4.46140500000000023e-02
0.00000000000000000e+00  2.99999699999999991e-03  5.99834799999999987e-02
0.00000000000000000e+00  2.99999699999999991e-03  5.69065600000000019e-02
0.00000000000000000e+00  2.99999900000000016e-03  7.21017199999999941e-02
0.00000000000000000e+00  2.99999900000000016e-03  6.90247900000000025e-02
0.00000000000000000e+00  3.00000000000000006e-03  7.78286700000000026e-02
0.00000000000000000e+00  3.00000000000000006e-03  7.47517500000000057e-02
0.00000000000000000e+00  5.99999899999999978e-03  7.30073100000000058e-02
0.00000000000000000e+00  6.00000000000000012e-03  7.78286700000000026e-02
0.00000000000000000e+00  8.99999999999999932e-03  7.47517500000000057e-02
0.00000000000000000e+00  8.99999999999999932e-03  7.78286700000000026e-02
0.00000000000000000e+00  8.99999999999999932e-03  3.07692300000000007e-03
0.00000000000000000e+00  8.99999999999999932e-03  7.41712199999999995e-03
0.00000000000000000e+00  8.99999999999999932e-03  1.04940499999999996e-02
0.00000000000000000e+00  8.99999999999999932e-03  1.99814599999999995e-02
0.00000000000000000e+00  8.99999999999999932e-03  2.30583799999999998e-02
0.00000000000000000e+00  8.99999899999999985e-03  3.23062400000000000e-02
0.00000000000000000e+00  8.99999899999999985e-03  3.53831699999999985e-02
0.00000000000000000e+00  8.99999999999999932e-03  4.46140500000000023e-02
0.00000000000000000e+00  8.99999999999999932e-03  4.76909699999999992e-02
0.00000000000000000e+00  8.99999699999999916e-03  5.69065600000000019e-02
0.00000000000000000e+00  8.99999699999999916e-03  5.99834799999999987e-02
0.00000000000000000e+00  8.99999899999999985e-03  6.90247900000000025e-02
0.00000000000000000e+00  8.99999899999999985e-03  7.21017199999999941e-02
0.00000000000000000e+00  6.00000000000000012e-03  4.34019900000000031e-03
0.00000000000000000e+00  3.00000000000000006e-03  1.37767800000000006e-02
0.00000000000000000e+00  6.00000000000000012e-03  1.19631300000000006e-02
0.00000000000000000e+00  3.00000000000000006e-03  1.68536999999999992e-02
0.00000000000000000e+00  6.00000000000000012e-03  1.83736200000000002e-02
0.00000000000000000e+00  5.99999800000000031e-03  3.07627299999999985e-02
0.00000000000000000e+00  3.00000000000000006e-03  2.92257200000000002e-02
0.00000000000000000e+00  3.00000000000000006e-03  2.61487999999999998e-02
0.00000000000000000e+00  8.99999999999999932e-03  2.92257200000000002e-02
0.00000000000000000e+00  6.00000000000000012e-03  4.30748800000000029e-02
0.00000000000000000e+00  2.99999900000000016e-03  4.15377600000000000e-02
0.00000000000000000e+00  2.99999900000000016e-03  3.84608300000000014e-02
0.00000000000000000e+00  8.99999899999999985e-03  4.15377600000000000e-02
0.00000000000000000e+00  5.99999599999999963e-03  5.53635499999999975e-02
0.00000000000000000e+00  2.99999900000000016e-03  5.38416099999999981e-02
0.00000000000000000e+00  2.99999900000000016e-03  5.07646799999999995e-02
0.00000000000000000e+00  8.99999899999999985e-03  5.38416099999999981e-02
0.00000000000000000e+00  5.99999800000000031e-03  6.74268199999999984e-02
0.00000000000000000e+00  2.99999900000000016e-03  6.60943300000000067e-02
0.00000000000000000e+00  2.99999900000000016e-03  6.30174099999999959e-02
0.00000000000000000e+00  8.99999899999999985e-03  6.60943300000000067e-02
0.00000000000000000e+00  5.99999899999999978e-03  4.92248900000000003e-02
0.00000000000000000e+00  8.99999999999999932e-03  1.68536999999999992e-02
0.00000000000000000e+00  5.99999899999999978e-03  2.45917899999999988e-02
0.00000000000000000e+00  8.99999999999999932e-03  2.61487999999999998e-02
0.00000000000000000e+00  8.99999999999999932e-03  1.37767800000000006e-02
0.00000000000000000e+00  5.99999800000000031e-03  3.69209200000000029e-02
0.00000000000000000e+00  8.99999899999999985e-03  3.84608300000000014e-02
0.00000000000000000e+00  8.99999899999999985e-03  5.07646799999999995e-02
0.00000000000000000e+00  5.99999599999999963e-03  6.14624299999999985e-02
0.00000000000000000e+00  8.99999899999999985e-03  6.30174099999999959e-02
1.20000000000000002e-02  1.20000000000000002e-02  8.00000000000000017e-02
0.00000000000000000e+00  0.00000000000000000e+00  8.00000000000000017e-02
1.20000000000000002e-02  6.00000000000000012e-03  0.00000000000000000e+00
1.20000000000000002e-02  3.00000000000000006e-03  0.00000000000000000e+00
1.20000000000000002e-02  8.99999999999999932e-03  0.00000000000000000e+00
1.20000000000000002e-02  0.00000000000000000e+00  8.00000000000000017e-02
1.20000000000000002e-02  0.00000000000000000e+00  0.00000000000000000e+00
0.00000000000000000e+00  1.20000000000000002e-02  0.00000000000000000e+00
1.20000000000000002e-02  5.99999899999999978e-03  8.68039699999999942e-03
1.20000000000000002e-02  5.99999899999999978e-03  1.52458600000000000e-02
1.20000000000000002e-02  5.99999899999999978e-03  2.15013699999999988e-02
1.20000000000000002e-02  6.00000000000000012e-03  2.76822099999999988e-02
1.20000000000000002e-02  5.99999899999999978e-03  3.38432399999999967e-02
1.20000000000000002e-02  5.99999800000000031e-03  3.99985900000000005e-02
1.20000000000000002e-02  5.99999699999999997e-03  4.61511800000000000e-02
1.20000000000000002e-02  5.99999300000000034e-03  5.22986100000000023e-02
1.20000000000000002e-02  5.99998599999999969e-03  5.84285400000000010e-02
1.20000000000000002e-02  5.99997800000000043e-03  6.44963800000000059e-02
1.20000000000000002e-02  5.99997500000000027e-03  7.03572999999999976e-02
1.20000000000000002e-02  5.99997500000000027e-03  7.56573600000000068e-02
1.20000000000000002e-02  3.00000000000000006e-03  3.07692300000000007e-03
1.20000000000000002e-02  3.00000000000000006e-03  7.41712099999999961e-03
1.20000000000000002e-02  3.00000000000000006e-03  1.04940399999999996e-02
1.20000000000000002e-02  2.99999900000000016e-03  1.37767800000000006e-02
1.20000000000000002e-02  2.99999900000000016e-03  1.68536999999999992e-02
1.20000000000000002e-02  5.99999899999999978e-03  1.19631300000000006e-02
1.20000000000000002e-02  3.00000000000000006e-03  1.99814500000000013e-02
1.20000000000000002e-02  3.00000000000000006e-03  2.30583799999999998e-02
1.20000000000000002e-02  5.99999899999999978e-03  1.83736099999999986e-02
1.20000000000000002e-02  3.00000000000000006e-03  2.61487999999999998e-02
1.20000000000000002e-02  3.00000000000000006e-03  2.92257200000000002e-02
1.20000000000000002e-02  5.99999899999999978e-03  2.45917899999999988e-02
1.20000000000000002e-02  3.00000000000000006e-03  3.23062299999999983e-02
1.20000000000000002e-02  3.00000000000000006e-03  3.53831599999999968e-02
1.20000000000000002e-02  5.99999899999999978e-03  3.07627200000000003e-02
1.20000000000000002e-02  2.99999900000000016e-03  3.84608300000000014e-02
1.20000000000000002e-02  2.99999900000000016e-03  4.15377499999999983e-02
1.20000000000000002e-02  5.99999899999999978e-03  3.69209100000000012e-02
1.20000000000000002e-02  2.99999799999999981e-03  4.46140500000000023e-02
1.20000000000000002e-02  2.99999799999999981e-03  4.76909800000000009e-02
1.20000000000000002e-02  5.99999800000000031e-03  4.30748800000000029e-02
1.20000000000000002e-02  2.99999699999999991e-03  5.07646900000000012e-02
1.20000000000000002e-02  2.99999699999999991e-03  5.38416099999999981e-02
1.20000000000000002e-02  5.99999500000000015e-03  4.92249000000000020e-02
1.20000000000000002e-02  2.99999299999999984e-03  5.69065799999999983e-02
1.20000000000000002e-02  2.99999299999999984e-03  5.99835000000000021e-02
1.20000000000000002e-02  5.99999000000000018e-03  5.53635800000000025e-02
1.20000000000000002e-02  2.99998900000000021e-03  6.30174200000000045e-02
1.20000000000000002e-02  2.99998900000000021e-03  6.60943499999999962e-02
1.20000000000000002e-02  5.99998200000000006e-03  6.14624599999999965e-02
1.20000000000000002e-02  2.99998799999999987e-03  6.90248100000000059e-02
1.20000000000000002e-02  2.99998799999999987e-03  7.21017300000000028e-02
1.20000000000000002e-02  5.99997700000000009e-03  6.74268400000000018e-02
1.20000000000000002e-02  2.99998699999999997e-03  7.47517600000000004e-02
1.20000000000000002e-02  2.99998699999999997e-03  7.78286799999999973e-02
1.20000000000000002e-02  5.99998700000000003e-03  7.78286799999999973e-02
1.20000000000000002e-02  5.99997500000000027e-03  7.30073299999999953e-02
1.20000000000000002e-02  8.99998699999999922e-03  7.78286799999999973e-02
1.20000000000000002e-02  8.99999999999999932e-03  3.07692300000000007e-03
[...]
POINT_DATA 281

SCALARS Rank unsigned_int
LOOKUP_TABLE default
0 0 0 0 0 0 0 0 0 0 0 0 0 0 0 0 0 0 0 0 0 0 0 0 0 0 0 0 0 0 0 0 0 0 0 0 0 0 0 0 0 0 0 0 0 0 0 0 0 0 0 0 0 0 0 0 0 0 0 0 0 0 0 0 0 0 0 0 0 0 0 0 0 0 0 0 0 0 0 0 0 0 0 0 0 0 0 0 0 0 0 0 0 0 0 0 0 0 0 0 0 0 0 0 0 0 0 0 0 0 0 0 0 0 0 0 0 0 0 0 0 0 0 0 0 0 0 0 0 0 0 0 0 0 0 0 0 0 0 0 0 0 0 0 0 0 0 0 0 0 0 0 0 0 0 0 0 0 0 0 0 0 0 0 0 0 0 0 0 0 0 0 0 0 0 0 0 0 0 0 0 0 0 0 0 0 0 0 0 0 0 0 0 0 0 0 0 0 0 0 0 0 0 0 0 0 0 0 0 0 0 0 0 0 0 0 0 0 0 0 0 0 0 0 0 0 0 0 0 0 0 0 0 0 0 0 0 0 0 0 0 0 0 0 0 0 0 0 0 0 0 0 0 0 0 0 0 0 0 0 0 0 0 0 0 0 0 0 0 0 0 0 0 0 0 0 0 0 0 0 0 

VECTORS Forces0 double
1.79199071275442691e-02 0.00000000000000000e+00 -4.50997904892950184e-03 
1.51873483688305163e-02 0.00000000000000000e+00 -7.14820195477780095e-03 
9.42074220966886491e-03 0.00000000000000000e+00 -6.08868797857899276e-03 
5.45320294874906790e-03 0.00000000000000000e+00 -4.30497923526570233e-03 
3.68889368632394164e-03 0.00000000000000000e+00 -3.28719028259718020e-03 
2.58996944694753987e-03 0.00000000000000000e+00 -2.58816940634203465e-03 
2.02326051934129461e-03 0.00000000000000000e+00 -2.12595352547493427e-03 
1.72020664019450972e-02 0.00000000000000000e+00 -6.23023686672242484e-03 
1.23963530126617212e-02 0.00000000000000000e+00 -7.06196765477170099e-03 
7.06359680902171605e-03 0.00000000000000000e+00 -5.07190029957464879e-03 
4.43092238470981122e-03 0.00000000000000000e+00 -3.77955320860592567e-03 
3.12189049171249493e-03 0.00000000000000000e+00 -2.91906017312386487e-03 
1.70498926807983314e-02 0.00000000000000000e+00 -2.81052545084270466e-03 
1.80830523128944140e-02 0.00000000000000000e+00 -5.16098915828861783e-03 
1.78247603235813130e-02 0.00000000000000000e+00 -4.09275221623431763e-03 
1.43838954201729510e-02 0.00000000000000000e+00 -7.06520598098462228e-03 
1.59235331584855581e-02 0.00000000000000000e+00 -7.17147853842308326e-03 
8.86608155574997864e-03 0.00000000000000000e+00 -5.96275410944076094e-03 
1.00552835695379081e-02 0.00000000000000000e+00 -6.26473912684422356e-03 
5.10756213737851867e-03 0.00000000000000000e+00 -4.08599157447310166e-03 
5.85811660999870001e-03 0.00000000000000000e+00 -4.57427574548619192e-03 
3.57638831408782065e-03 0.00000000000000000e+00 -3.25422937673336887e-03 
3.81302535034568155e-03 0.00000000000000000e+00 -3.33289664342679851e-03 
2.38930508934831866e-03 0.00000000000000000e+00 -2.41855119787973659e-03 
2.74987773302282643e-03 0.00000000000000000e+00 -2.72860272219158095e-03 
1.71493767944142796e-03 0.00000000000000000e+00 -1.76929049398486492e-03 
2.11735013804688560e-03 0.00000000000000000e+00 -2.20669612757413026e-03 
2.29291600661463060e-03 0.00000000000000000e+00 -2.34236994894797615e-03 
1.71493767944554121e-03 0.00000000000000000e+00 -1.76929049398632013e-03 
2.11735013804079455e-03 0.00000000000000000e+00 -2.20669612758862604e-03 
1.71493767943964055e-03 0.00000000000000000e+00 -1.76929049398227020e-03 
1.70498926807996012e-02 0.00000000000000000e+00 -2.81052545085071995e-03 
1.78247603235890360e-02 0.00000000000000000e+00 -4.09275221623071114e-03 
1.80830523129039064e-02 0.00000000000000000e+00 -5.16098915828364178e-03 
1.59235331584834695e-02 0.00000000000000000e+00 -7.17147853842041959e-03 
1.43838954201784084e-02 0.00000000000000000e+00 -7.06520598098277653e-03 
1.00552835695370216e-02 0.00000000000000000e+00 -6.26473912684770429e-03 
8.86608155575086335e-03 0.00000000000000000e+00 -5.96275410943909647e-03 
5.85811661000103234e-03 0.00000000000000000e+00 -4.57427574548575563e-03 
5.10756213738163510e-03 0.00000000000000000e+00 -4.08599157447906303e-03 
3.81302535034482373e-03 0.00000000000000000e+00 -3.33289664342522295e-03 
3.57638831408851453e-03 0.00000000000000000e+00 -3.25422937673278210e-03 
2.74987773301859240e-03 0.00000000000000000e+00 -2.72860272219513150e-03 
2.38930508935275001e-03 0.00000000000000000e+00 -2.41855119787699399e-03 
1.75285215670984186e-02 0.00000000000000000e+00 -3.20644481880711946e-03 
1.76615074976008979e-02 0.00000000000000000e+00 -5.98996294062097753e-03 
1.81124388468604999e-02 0.00000000000000000e+00 -5.65100844393739716e-03 
1.67517376748216283e-02 0.00000000000000000e+00 -6.54611459571722860e-03 
1.63729179867525380e-02 0.00000000000000000e+00 -6.87901301405423327e-03 
1.07943104967762743e-02 0.00000000000000000e+00 -6.52113037211350059e-03 
1.16161974752641162e-02 0.00000000000000000e+00 -6.83759490886542802e-03 
1.30072363920918036e-02 0.00000000000000000e+00 -7.04997726010466331e-03 
1.16161974752625238e-02 0.00000000000000000e+00 -6.83759490886788959e-03 
6.23185824856527845e-03 0.00000000000000000e+00 -4.75050375699590834e-03 
6.60794216637890230e-03 0.00000000000000000e+00 -4.87886160509078386e-03 
7.62094974332055454e-03 0.00000000000000000e+00 -5.35914443042961354e-03 
6.60794216637832638e-03 0.00000000000000000e+00 -4.87886160509076738e-03 
3.97898229083763419e-03 0.00000000000000000e+00 -3.43322975026968740e-03 
4.19073768303532008e-03 0.00000000000000000e+00 -3.59458001042839946e-03 
4.62751301457066128e-03 0.00000000000000000e+00 -3.86836383640948647e-03 
4.19073768303643117e-03 0.00000000000000000e+00 -3.59458001042964499e-03 
2.90889749200011916e-03 0.00000000000000000e+00 -2.84197170970265905e-03 
3.00309272997517553e-03 0.00000000000000000e+00 -2.87163153994374242e-03 
3.25575140816848066e-03 0.00000000000000000e+00 -3.00440604244275747e-03 
3.00309272997484940e-03 0.00000000000000000e+00 -2.87163153994415225e-03 
4.83502743988646708e-03 0.00000000000000000e+00 -3.94278865731105804e-03 
1.67517376748279496e-02 0.00000000000000000e+00 -6.54611459571531693e-03 
1.36545389573778618e-02 0.00000000000000000e+00 -7.02510070799964963e-03 
1.30072363920879334e-02 0.00000000000000000e+00 -7.04997726010960640e-03 
1.76615074976037810e-02 0.00000000000000000e+00 -5.98996294061594336e-03 
8.25503436358625275e-03 0.00000000000000000e+00 -5.70280123000494951e-03 
7.62094974331827772e-03 0.00000000000000000e+00 -5.35914443043360514e-03 
4.62751301457195192e-03 0.00000000000000000e+00 -3.86836383641139987e-03 
3.41872608594631514e-03 0.00000000000000000e+00 -3.13169281181183059e-03 
3.25575140816442140e-03 0.00000000000000000e+00 -3.00440604244461449e-03 
-5.48772702448044282e-04 0.00000000000000000e+00 4.33175103615202138e-04 
1.41547318488919769e-03 0.00000000000000000e+00 -1.38549611383300721e-03 
-3.59098191418462647e-04 0.00000000000000000e+00 9.46327774764633262e-04 
-3.59098191422247814e-04 0.00000000000000000e+00 9.46327774766642722e-04 
-3.59098191423425691e-04 0.00000000000000000e+00 9.46327774758374597e-04 
-5.48772702452345095e-04 0.00000000000000000e+00 4.33175103614397009e-04 
-3.59098191426782381e-04 0.00000000000000000e+00 9.46327774758401051e-04 
1.55123079387114119e-02 0.00000000000000000e+00 -1.88895287379755423e-03 
2.53266688248535621e-04 0.00000000000000000e+00 -8.84586234358842964e-05 
3.64627738170525753e-04 0.00000000000000000e+00 -3.87878382905623145e-04 
1.18867279158184320e-04 0.00000000000000000e+00 -3.60012356678190016e-04 
-2.56481305927161994e-04 0.00000000000000000e+00 -1.54060192470112790e-04 
-5.30906136183326486e-04 0.00000000000000000e+00 7.65306435687313071e-05 
-5.64134546727163206e-04 0.00000000000000000e+00 2.11053886794623465e-04 
-3.50382461585509880e-04 0.00000000000000000e+00 2.07027972579595915e-04 
3.66885501752799494e-06 0.00000000000000000e+00 9.46241894897264076e-05 
3.40163563367993521e-04 0.00000000000000000e+00 -6.36577896843171952e-05 
5.03673896684503830e-04 0.00000000000000000e+00 -1.90774051532250011e-04 
3.80549087181525391e-04 0.00000000000000000e+00 -1.81409475738035877e-04 
-2.52593146969955505e-05 0.00000000000000000e+00 4.69090760296531824e-05 
-1.35835106660662375e-04 0.00000000000000000e+00 4.90298576170583264e-04 
1.84075828719919662e-04 0.00000000000000000e+00 1.52119423839670220e-05 
3.27861555112840661e-04 0.00000000000000000e+00 -2.10443554461390799e-04 
3.78079360099200102e-04 0.00000000000000000e+00 -3.53899459749038557e-04 
3.28195375762192179e-04 0.00000000000000000e+00 -4.06037711058084526e-04 
3.63976256084397678e-04 0.00000000000000000e+00 -2.86494964363792366e-04 
2.00800560472890729e-04 0.00000000000000000e+00 -3.89295775328451891e-04 
2.71959658978244744e-05 0.00000000000000000e+00 -3.19227937878239316e-04 
2.74085872470003879e-04 0.00000000000000000e+00 -4.05662650400551010e-04 
-1.64377874235119466e-04 0.00000000000000000e+00 -2.13685537720140304e-04 
-3.42012162004746089e-04 0.00000000000000000e+00 -9.32321395330855298e-05 
-6.79129984983951955e-05 0.00000000000000000e+00 -2.69773016295327345e-04 
-4.81547320291565706e-04 0.00000000000000000e+00 2.40981780846990585e-05 
-5.64492126489310334e-04 0.00000000000000000e+00 1.22303174361446381e-04 
-4.17826152270498125e-04 0.00000000000000000e+00 -3.30155750671415313e-05 
-5.81087605720679331e-04 0.00000000000000000e+00 1.90129205303141250e-04 
-5.31295379741965833e-04 0.00000000000000000e+00 2.22826492054868717e-04 
-5.81295361854115584e-04 0.00000000000000000e+00 1.60573717842046773e-04 
-4.22714490425285701e-04 0.00000000000000000e+00 2.20370573782886878e-04 
-2.69180161752599319e-04 0.00000000000000000e+00 1.86760098901287883e-04 
-4.83580936171230057e-04 0.00000000000000000e+00 2.25911924661593495e-04 
-8.96416769771250788e-05 0.00000000000000000e+00 1.29597868778278172e-04 
9.62382424988460591e-05 0.00000000000000000e+00 5.63573958282113160e-05 
-1.81466910205043661e-04 0.00000000000000000e+00 1.60697740102484272e-04 
2.66852982074770287e-04 0.00000000000000000e+00 -2.39137736253314660e-05 
4.03610287866141128e-04 0.00000000000000000e+00 -1.02488279984578977e-04 
1.84220345642759851e-04 0.00000000000000000e+00 1.68162987519654402e-05 
4.86736919831442117e-04 0.00000000000000000e+00 -1.67676316104924122e-04 
5.01496710573867037e-04 0.00000000000000000e+00 -2.06396793472688264e-04 
4.51822207351724060e-04 0.00000000000000000e+00 -1.36651826556620189e-04 
4.37355659818597061e-04 0.00000000000000000e+00 -2.01589762850411648e-04 
2.78723400639155621e-04 0.00000000000000000e+00 -1.34151553829616659e-04 
4.82557519011543536e-04 0.00000000000000000e+00 -2.10260940600530714e-04 
6.42490899286589080e-05 0.00000000000000000e+00 -1.07844833096798347e-05 
-2.68479794572074439e-04 0.00000000000000000e+00 2.17272530300908427e-04 
-2.68479794575908937e-04 0.00000000000000000e+00 2.17272530301752044e-04 
2.13467559282362807e-04 0.00000000000000000e+00 -9.93368049005953924e-05 
-2.68479794579685321e-04 0.00000000000000000e+00 2.17272530298954586e-04 
-1.35835106663963553e-04 0.00000000000000000e+00 4.90298576167363942e-04 
3.27861555109402439e-04 0.00000000000000000e+00 -2.10443554463371637e-04 
1.84075828717945546e-04 0.00000000000000000e+00 1.52119423743902643e-05 
3.28195375756455449e-04 0.00000000000000000e+00 -4.06037711065016806e-04 
3.78079360101176820e-04 0.00000000000000000e+00 -3.53899459753248297e-04 
2.71959658957202548e-05 0.00000000000000000e+00 -3.19227937881332762e-04 
2.00800560479022109e-04 0.00000000000000000e+00 -3.89295775324640921e-04 
-3.42012162004550065e-04 0.00000000000000000e+00 -9.32321395371278692e-05 
-1.64377874235972082e-04 0.00000000000000000e+00 -2.13685537721039324e-04 
-5.64492126488247816e-04 0.00000000000000000e+00 1.22303174356861940e-04 
-4.81547320297541828e-04 0.00000000000000000e+00 2.40981780824447853e-05 
-5.31295379740655250e-04 0.00000000000000000e+00 2.22826492056719234e-04 
-5.81087605720377490e-04 0.00000000000000000e+00 1.90129205300777689e-04 
-2.69180161748762328e-04 0.00000000000000000e+00 1.86760098899766747e-04 
-4.22714490421538698e-04 0.00000000000000000e+00 2.20370573781695123e-04 
9.62382424997912665e-05 0.00000000000000000e+00 5.63573958282952332e-05 
-8.96416769737083240e-05 0.00000000000000000e+00 1.29597868776570554e-04 
4.03610287868270772e-04 0.00000000000000000e+00 -1.02488279986071490e-04 
2.66852982078263966e-04 0.00000000000000000e+00 -2.39137736298363260e-05 
5.01496710580333219e-04 0.00000000000000000e+00 -2.06396793473513206e-04 
4.86736919839107969e-04 0.00000000000000000e+00 -1.67676316110970176e-04 
2.78723400634420910e-04 0.00000000000000000e+00 -1.34151553827227240e-04 
4.37355659811911057e-04 0.00000000000000000e+00 -2.01589762850614448e-04 
-3.36701969641572453e-05 0.00000000000000000e+00 3.32822782545977704e-04 
6.42490899309414246e-05 0.00000000000000000e+00 -1.07844833086538542e-05 
1.41547318488409002e-03 0.00000000000000000e+00 -1.38549611382839306e-03 
1.77437712917213539e-02 0.00000000000000000e+00 -3.71393634694991643e-03 
1.80579895179992858e-02 0.00000000000000000e+00 -5.73180675584018546e-03 
1.63513906251303992e-02 0.00000000000000000e+00 -6.89823067120615922e-03 
1.36440575293079822e-02 0.00000000000000000e+00 -7.02503248613597486e-03 
1.07909796362265914e-02 0.00000000000000000e+00 -6.51987768657511478e-03 
8.25411445524351813e-03 0.00000000000000000e+00 -5.70231367793102954e-03 
6.23139354259768206e-03 0.00000000000000000e+00 -4.75035018478891201e-03 
4.83412352360051024e-03 0.00000000000000000e+00 -3.94239250325134193e-03 
3.97637220278419714e-03 0.00000000000000000e+00 -3.43139938634315659e-03 
3.41032928812100636e-03 0.00000000000000000e+00 -3.12480106369983487e-03 
2.88819099549205132e-03 0.00000000000000000e+00 -2.83288983695020565e-03 
2.20731768450548428e-03 0.00000000000000000e+00 -2.27649686184223671e-03 
1.70498926807968361e-02 0.00000000000000000e+00 -2.81052545085610280e-03 
1.79677705982428312e-02 0.00000000000000000e+00 -4.70260115236801907e-03 
1.71601690308242141e-02 0.00000000000000000e+00 -6.25488370870508695e-03 
1.51679391532987887e-02 0.00000000000000000e+00 -7.14614410780533595e-03 
1.23920887571175760e-02 0.00000000000000000e+00 -7.06162157673984568e-03 
9.41963912721244072e-03 0.00000000000000000e+00 -6.08842713567631349e-03 
7.06313239954072230e-03 0.00000000000000000e+00 -5.07167960462435920e-03 
5.45254115309284915e-03 0.00000000000000000e+00 -4.30453805614892764e-03 
4.42953288046624930e-03 0.00000000000000000e+00 -3.77857762627845963e-03 
3.68652414587557209e-03 0.00000000000000000e+00 -3.28662137400793572e-03 
3.11218900801605181e-03 0.00000000000000000e+00 -2.91403846444245789e-03 
2.54084566800740538e-03 0.00000000000000000e+00 -2.54534184977655382e-03 
1.85119598323391045e-03 0.00000000000000000e+00 -1.93561706001988830e-03 
8.46402432599441192e-04 0.00000000000000000e+00 -9.12478349406886983e-04 
8.46402432606326743e-04 0.00000000000000000e+00 -9.12478349404391908e-04 
-2.83681879264518626e-05 0.00000000000000000e+00 -5.63081042321130092e-05 
-2.83681879217228980e-05 0.00000000000000000e+00 -5.63081042325890824e-05 
3.96093960792898994e-04 0.00000000000000000e+00 -4.87759698398710273e-04 
3.96093960794538795e-04 0.00000000000000000e+00 -4.87759698400047582e-04 
8.46402432604630509e-04 0.00000000000000000e+00 -9.12478349407109569e-04 
-2.83681879264088740e-05 0.00000000000000000e+00 -5.63081042331196909e-05 
-5.48772702455411977e-04 0.00000000000000000e+00 4.33175103616314312e-04 
-5.48772702452338698e-04 0.00000000000000000e+00 4.33175103614492202e-04 
-5.48772702458062310e-04 0.00000000000000000e+00 4.33175103614775613e-04 
1.41547318489125291e-03 0.00000000000000000e+00 -1.38549611382796849e-03 
1.41547318489568621e-03 0.00000000000000000e+00 -1.38549611382344172e-03 
1.41547318489304401e-03 0.00000000000000000e+00 -1.38549611382924719e-03 
1.02315070461415482e-04 0.00000000000000000e+00 1.34492612867942186e-04 
3.69142344325560344e-04 0.00000000000000000e+00 -3.01508996269981742e-04 
2.70459463268234504e-04 0.00000000000000000e+00 -4.05170374521465759e-04 
-6.93864808927866948e-05 0.00000000000000000e+00 -2.68960445783613582e-04 
-4.18122942027882288e-04 0.00000000000000000e+00 -3.27659772159326741e-05 
-5.81307060989185256e-04 0.00000000000000000e+00 1.60621655464369663e-04 
-4.83508618632835340e-04 0.00000000000000000e+00 2.25910284512709924e-04 
-1.81122436080149128e-04 0.00000000000000000e+00 1.60587984248322668e-04 
1.85397422783954561e-04 0.00000000000000000e+00 1.62627662652185822e-05 
4.53925493964350911e-04 0.00000000000000000e+00 -1.38300756642001767e-04 
4.76799345422380613e-04 0.00000000000000000e+00 -2.09883764518066512e-04 
1.45649570872363922e-04 0.00000000000000000e+00 -6.04273039212804112e-05 
-1.35835106654171039e-04 0.00000000000000000e+00 4.90298576167413165e-04 
2.78934800026149111e-04 0.00000000000000000e+00 -1.28817631505874269e-04 
3.62315956096301945e-04 0.00000000000000000e+00 -3.90203940704748084e-04 
1.16756303256256605e-04 0.00000000000000000e+00 -3.59157528279748482e-04 
-2.57068587752351996e-04 0.00000000000000000e+00 -1.53661620504677755e-04 
-5.30985050895590137e-04 0.00000000000000000e+00 7.66240281865497369e-05 
-5.64111613812207720e-04 0.00000000000000000e+00 2.11068901530120378e-04 
-3.50248582186527067e-04 0.00000000000000000e+00 2.06998576361331585e-04 
4.22019920227038829e-06 0.00000000000000000e+00 9.44066755048254331e-05 
3.41639081209460516e-04 0.00000000000000000e+00 -6.45050473699800426e-05 
5.04275174471321063e-04 0.00000000000000000e+00 -1.92301043884327596e-04 
3.59384826377024183e-04 0.00000000000000000e+00 -1.72495302621641011e-04 
-1.62111181098847609e-04 0.00000000000000000e+00 1.40533941831230767e-04 
1.55123079387194107e-02 0.00000000000000000e+00 -1.88895287380229197e-03 
1.55123079387218480e-02 0.00000000000000000e+00 -1.88895287379851244e-03 
1.55123079387231889e-02 0.00000000000000000e+00 -1.88895287379600447e-03 
3.96093960793268544e-04 0.00000000000000000e+00 -4.87759698402581796e-04 
8.46402432606293458e-04 0.00000000000000000e+00 -9.12478349408214480e-04 
-2.83681879289531712e-05 0.00000000000000000e+00 -5.63081042365837169e-05 
1.02315070462015697e-04 0.00000000000000000e+00 1.34492612865024815e-04 
3.69142344321691910e-04 0.00000000000000000e+00 -3.01508996264830860e-04 
2.70459463265466753e-04 0.00000000000000000e+00 -4.05170374521868866e-04 
-6.93864808920615804e-05 0.00000000000000000e+00 -2.68960445786795715e-04 
-4.18122942026281138e-04 0.00000000000000000e+00 -3.27659772131948468e-05 
-5.81307060988008680e-04 0.00000000000000000e+00 1.60621655464402189e-04 
-4.83508618632350051e-04 0.00000000000000000e+00 2.25910284513755963e-04 
-1.81122436079916675e-04 0.00000000000000000e+00 1.60587984247330840e-04 
1.85397422781896637e-04 0.00000000000000000e+00 1.62627662659181095e-05 
4.53925493966265612e-04 0.00000000000000000e+00 -1.38300756641357859e-04 
4.76799345420448782e-04 0.00000000000000000e+00 -2.09883764522268175e-04 
1.45649570871720502e-04 0.00000000000000000e+00 -6.04273039231273496e-05 
-1.35835106654315021e-04 0.00000000000000000e+00 4.90298576162628472e-04 
2.78934800028275882e-04 0.00000000000000000e+00 -1.28817631508148492e-04 
3.62315956094385076e-04 0.00000000000000000e+00 -3.90203940708690460e-04 
1.16756303254304174e-04 0.00000000000000000e+00 -3.59157528279158893e-04 
-2.57068587752317301e-04 0.00000000000000000e+00 -1.53661620503560160e-04 
-5.30985050894933978e-04 0.00000000000000000e+00 7.66240281860700858e-05 
-5.64111613812174327e-04 0.00000000000000000e+00 2.11068901532822644e-04 
-3.50248582186044814e-04 0.00000000000000000e+00 2.06998576363617083e-04 
4.22019920533109102e-06 0.00000000000000000e+00 9.44066755053371765e-05 
3.41639081211335210e-04 0.00000000000000000e+00 -6.45050473711492462e-05 
5.04275174473301250e-04 0.00000000000000000e+00 -1.92301043885385019e-04 
3.59384826379016242e-04 0.00000000000000000e+00 -1.72495302622053604e-04 
-1.62111181100866827e-04 0.00000000000000000e+00 1.40533941826688719e-04 
1.55123079387194038e-02 0.00000000000000000e+00 -1.88895287380109740e-03 
1.77437712917215135e-02 0.00000000000000000e+00 -3.71393634694806418e-03 
1.80579895180023875e-02 0.00000000000000000e+00 -5.73180675583694066e-03 
1.63513906251316309e-02 0.00000000000000000e+00 -6.89823067120487552e-03 
1.36440575293106155e-02 0.00000000000000000e+00 -7.02503248613808255e-03 
1.07909796362265602e-02 0.00000000000000000e+00 -6.51987768657785478e-03 
8.25411445524219453e-03 0.00000000000000000e+00 -5.70231367793076240e-03 