# vtk DataFile Version 2.0

ASCII

DATASET UNSTRUCTURED_GRID

POINTS 281 double 

0.00000000000000000e+00  6.00000000000000012e-03  8.68039800000000063e-03
0.00000000000000000e+00  6.00000000000000012e-03  2.15013699999999988e-02
0.00000000000000000e+00  5.99999699999999997e-03  3.38432499999999983e-02
0.00000000000000000e+00  6.00000000000000012e-03  4.61511800000000000e-02
0.00000000000000000e+00  5.99999399999999981e-03  5.84285100000000029e-02
0.00000000000000000e+00  5.99999899999999978e-03  7.03572799999999943e-02
0.00000000000000000e+00  6.00000000000000012e-03  7.56573400000000035e-02
0.00000000000000000e+00  6.00000000000000012e-03  1.52458600000000000e-02
0.00000000000000000e+00  5.99999899999999978e-03  2.76822099999999988e-02
0.00000000000000000e+00  5.99999899999999978e-03  3.99985900000000005e-02
0.00000000000000000e+00  5.99999800000000031e-03  5.22986000000000006e-02
0.00000000000000000e+00  5.99999800000000031e-03  6.44963600000000026e-02
0.00000000000000000e+00  3.00000000000000006e-03  3.07692300000000007e-03
0.00000000000000000e+00  3.00000000000000006e-03  1.04940499999999996e-02
0.00000000000000000e+00  3.00000000000000006e-03  7.41712199999999995e-03
0.00000000000000000e+00  3.00000000000000006e-03  2.30583799999999998e-02
0.00000000000000000e+00  3.00000000000000006e-03  1.99814599999999995e-02
0.00000000000000000e+00  2.99999900000000016e-03  3.53831699999999985e-02
0.00000000000000000e+00  2.99999900000000016e-03  3.23062400000000000e-02
0.00000000000000000e+00  3.00000000000000006e-03  4.76909699999999992e-02
0.00000000000000000e+00  3.00000000000000006e-03  4.46140500000000023e-02
0.00000000000000000e+00  2.99999699999999991e-03  5.99834799999999987e-02
0.00000000000000000e+00  2.99999699999999991e-03  5.69065600000000019e-02
0.00000000000000000e+00  2.99999900000000016e-03  7.21017199999999941e-02
0.00000000000000000e+00  2.99999900000000016e-03  6.90247900000000025e-02
0.00000000000000000e+00  3.00000000000000006e-03  7.78286700000000026e-02
0.00000000000000000e+00  3.00000000000000006e-03  7.47517500000000057e-02
0.00000000000000000e+00  5.99999899999999978e-03  7.30073100000000058e-02
0.00000000000000000e+00  6.00000000000000012e-03  7.78286700000000026e-02
0.00000000000000000e+00  8.99999999999999932e-03  7.47517500000000057e-02
0.00000000000000000e+00  8.99999999999999932e-03  7.78286700000000026e-02
0.00000000000000000e+00  8.99999999999999932e-03  3.07692300000000007e-03
0.00000000000000000e+00  8.99999999999999932e-03  7.41712199999999995e-03
0.00000000000000000e+00  8.99999999999999932e-03  1.04940499999999996e-02
0.00000000000000000e+00  8.99999999999999932e-03  1.99814599999999995e-02
0.00000000000000000e+00  8.99999999999999932e-03  2.30583799999999998e-02
0.00000000000000000e+00  8.99999899999999985e-03  3.23062400000000000e-02
0.00000000000000000e+00  8.99999899999999985e-03  3.53831699999999985e-02
0.00000000000000000e+00  8.99999999999999932e-03  4.46140500000000023e-02
0.00000000000000000e+00  8.99999999999999932e-03  4.76909699999999992e-02
0.00000000000000000e+00  8.99999699999999916e-03  5.69065600000000019e-02
0.00000000000000000e+00  8.99999699999999916e-03  5.99834799999999987e-02
0.00000000000000000e+00  8.99999899999999985e-03  6.90247900000000025e-02
0.00000000000000000e+00  8.99999899999999985e-03  7.21017199999999941e-02
0.00000000000000000e+00  6.00000000000000012e-03  4.34019900000000031e-03
0.00000000000000000e+00  3.00000000000000006e-03  1.37767800000000006e-02
0.00000000000000000e+00  6.00000000000000012e-03  1.19631300000000006e-02
0.00000000000000000e+00  3.00000000000000006e-03  1.68536999999999992e-02
0.00000000000000000e+00  6.00000000000000012e-03  1.83736200000000002e-02
0.00000000000000000e+00  5.99999800000000031e-03  3.07627299999999985e-02
0.00000000000000000e+00  3.00000000000000006e-03  2.92257200000000002e-02
0.00000000000000000e+00  3.00000000000000006e-03  2.61487999999999998e-02
0.00000000000000000e+00  8.99999999999999932e-03  2.92257200000000002e-02
0.00000000000000000e+00  6.00000000000000012e-03  4.30748800000000029e-02
0.00000000000000000e+00  2.99999900000000016e-03  4.15377600000000000e-02
0.00000000000000000e+00  2.99999900000000016e-03  3.84608300000000014e-02
0.00000000000000000e+00  8.99999899999999985e-03  4.15377600000000000e-02
0.00000000000000000e+00  5.99999599999999963e-03  5.53635499999999975e-02
0.00000000000000000e+00  2.99999900000000016e-03  5.38416099999999981e-02
0.00000000000000000e+00  2.99999900000000016e-03  5.07646799999999995e-02
0.00000000000000000e+00  8.99999899999999985e-03  5.38416099999999981e-02
0.00000000000000000e+00  5.99999800000000031e-03  6.74268199999999984e-02
0.00000000000000000e+00  2.99999900000000016e-03  6.60943300000000067e-02
0.00000000000000000e+00  2.99999900000000016e-03  6.30174099999999959e-02
0.00000000000000000e+00  8.99999899999999985e-03  6.60943300000000067e-02
0.00000000000000000e+00  5.99999899999999978e-03  4.92248900000000003e-02
0.00000000000000000e+00  8.99999999999999932e-03  1.68536999999999992e-02
0.00000000000000000e+00  5.99999899999999978e-03  2.45917899999999988e-02
0.00000000000000000e+00  8.99999999999999932e-03  2.61487999999999998e-02
0.00000000000000000e+00  8.99999999999999932e-03  1.37767800000000006e-02
0.00000000000000000e+00  5.99999800000000031e-03  3.69209200000000029e-02
0.00000000000000000e+00  8.99999899999999985e-03  3.84608300000000014e-02
0.00000000000000000e+00  8.99999899999999985e-03  5.07646799999999995e-02
0.00000000000000000e+00  5.99999599999999963e-03  6.14624299999999985e-02
0.00000000000000000e+00  8.99999899999999985e-03  6.30174099999999959e-02
1.20000000000000002e-02  1.20000000000000002e-02  8.00000000000000017e-02
0.00000000000000000e+00  0.00000000000000000e+00  8.00000000000000017e-02
1.20000000000000002e-02  6.00000000000000012e-03  0.00000000000000000e+00
1.20000000000000002e-02  3.00000000000000006e-03  0.00000000000000000e+00
1.20000000000000002e-02  8.99999999999999932e-03  0.00000000000000000e+00
1.20000000000000002e-02  0.00000000000000000e+00  8.00000000000000017e-02
1.20000000000000002e-02  0.00000000000000000e+00  0.00000000000000000e+00
0.00000000000000000e+00  1.20000000000000002e-02  0.00000000000000000e+00
1.20000000000000002e-02  5.99999899999999978e-03  8.68039699999999942e-03
1.20000000000000002e-02  5.99999899999999978e-03  1.52458600000000000e-02
1.20000000000000002e-02  5.99999899999999978e-03  2.15013699999999988e-02
1.20000000000000002e-02  6.00000000000000012e-03  2.76822099999999988e-02
1.20000000000000002e-02  5.99999899999999978e-03  3.38432399999999967e-02
1.20000000000000002e-02  5.99999800000000031e-03  3.99985900000000005e-02
1.20000000000000002e-02  5.99999699999999997e-03  4.61511800000000000e-02
1.20000000000000002e-02  5.99999300000000034e-03  5.22986100000000023e-02
1.20000000000000002e-02  5.99998599999999969e-03  5.84285400000000010e-02
1.20000000000000002e-02  5.99997800000000043e-03  6.44963800000000059e-02
1.20000000000000002e-02  5.99997500000000027e-03  7.03572999999999976e-02
1.20000000000000002e-02  5.99997500000000027e-03  7.56573600000000068e-02
1.20000000000000002e-02  3.00000000000000006e-03  3.07692300000000007e-03
1.20000000000000002e-02  3.00000000000000006e-03  7.41712099999999961e-03
1.20000000000000002e-02  3.00000000000000006e-03  1.04940399999999996e-02
1.20000000000000002e-02  2.99999900000000016e-03  1.37767800000000006e-02
1.20000000000000002e-02  2.99999900000000016e-03  1.68536999999999992e-02
1.20000000000000002e-02  5.99999899999999978e-03  1.19631300000000006e-02
1.20000000000000002e-02  3.00000000000000006e-03  1.99814500000000013e-02
1.20000000000000002e-02  3.00000000000000006e-03  2.30583799999999998e-02
1.20000000000000002e-02  5.99999899999999978e-03  1.83736099999999986e-02
1.20000000000000002e-02  3.00000000000000006e-03  2.61487999999999998e-02
1.20000000000000002e-02  3.00000000000000006e-03  2.92257200000000002e-02
1.20000000000000002e-02  5.99999899999999978e-03  2.45917899999999988e-02
1.20000000000000002e-02  3.00000000000000006e-03  3.23062299999999983e-02
1.20000000000000002e-02  3.00000000000000006e-03  3.53831599999999968e-02
1.20000000000000002e-02  5.99999899999999978e-03  3.07627200000000003e-02
1.20000000000000002e-02  2.99999900000000016e-03  3.84608300000000014e-02
1.20000000000000002e-02  2.99999900000000016e-03  4.15377499999999983e-02
1.20000000000000002e-02  5.99999899999999978e-03  3.69209100000000012e-02
1.20000000000000002e-02  2.99999799999999981e-03  4.46140500000000023e-02
1.20000000000000002e-02  2.99999799999999981e-03  4.76909800000000009e-02
1.20000000000000002e-02  5.99999800000000031e-03  4.30748800000000029e-02
1.20000000000000002e-02  2.99999699999999991e-03  5.07646900000000012e-02
1.20000000000000002e-02  2.99999699999999991e-03  5.38416099999999981e-02
1.20000000000000002e-02  5.99999500000000015e-03  4.92249000000000020e-02
1.20000000000000002e-02  2.99999299999999984e-03  5.69065799999999983e-02
1.20000000000000002e-02  2.99999299999999984e-03  5.99835000000000021e-02
1.20000000000000002e-02  5.99999000000000018e-03  5.53635800000000025e-02
1.20000000000000002e-02  2.99998900000000021e-03  6.30174200000000045e-02
1.20000000000000002e-02  2.99998900000000021e-03  6.60943499999999962e-02
1.20000000000000002e-02  5.99998200000000006e-03  6.14624599999999965e-02
1.20000000000000002e-02  2.99998799999999987e-03  6.90248100000000059e-02
1.20000000000000002e-02  2.99998799999999987e-03  7.21017300000000028e-02
1.20000000000000002e-02  5.99997700000000009e-03  6.74268400000000018e-02
1.20000000000000002e-02  2.99998699999999997e-03  7.47517600000000004e-02
1.20000000000000002e-02  2.99998699999999997e-03  7.78286799999999973e-02
1.20000000000000002e-02  5.99998700000000003e-03  7.78286799999999973e-02
1.20000000000000002e-02  5.99997500000000027e-03  7.30073299999999953e-02
1.20000000000000002e-02  8.99998699999999922e-03  7.78286799999999973e-02
1.20000000000000002e-02  8.99999999999999932e-03  3.07692300000000007e-03
[...]
POINT_DATA 281

SCALARS Rank unsigned_int
LOOKUP_TABLE default
0 0 0 0 0 0 0 0 0 0 0 0 0 0 0 0 0 0 0 0 0 0 0 0 0 0 0 0 0 0 0 0 0 0 0 0 0 0 0 0 0 0 0 0 0 0 0 0 0 0 0 0 0 0 0 0 0 0 0 0 0 0 0 0 0 0 0 0 0 0 0 0 0 0 0 0 0 0 0 0 0 0 0 0 0 0 0 0 0 0 0 0 0 0 0 0 0 0 0 0 0 0 0 0 0 0 0 0 0 0 0 0 0 0 0 0 0 0 0 0 0 0 0 0 0 0 0 0 0 0 0 0 0 0 0 0 0 0 0 0 0 0 0 0 0 0 0 0 0 0 0 0 0 0 0 0 0 0 0 0 0 0 0 0 0 0 0 0 0 0 0 0 0 0 0 0 0 0 0 0 0 0 0 0 0 0 0 0 0 0 0 0 0 0 0 0 0 0 0 0 0 0 0 0 0 0 0 0 0 0 0 0 0 0 0 0 0 0 0 0 0 0 0 0 0 0 0 0 0 0 0 0 0 0 0 0 0 0 0 0 0 0 0 0 0 0 0 0 0 0 0 0 0 0 0 0 0 0 0 0 0 0 0 0 0 0 0 0 0 0 0 0 0 0 0 0 0 0 0 0 0 

VECTORS Forces0 double
1.32814219775184966e-02 0.00000000000000000e+00 -3.45046046515239862e-03 
1.13657256848929515e-02 0.00000000000000000e+00 -5.52355815903606863e-03 
8.42878060432081244e-03 0.00000000000000000e+00 -5.90886180412056490e-03 
7.68172948350246288e-03 0.00000000000000000e+00 -6.83753641647228717e-03 
7.17755093563628762e-03 0.00000000000000000e+00 -7.37595339612000071e-03 
5.29906678080331161e-03 0.00000000000000000e+00 -4.93594624176950641e-03 
4.53788528403787153e-03 0.00000000000000000e+00 -2.87167442723635334e-03 
1.26397657135570145e-02 0.00000000000000000e+00 -4.70939453074850634e-03 
9.82233664443301485e-03 0.00000000000000000e+00 -5.86248890370605694e-03 
7.75862682731789412e-03 0.00000000000000000e+00 -6.20810364423963687e-03 
7.71615243094300480e-03 0.00000000000000000e+00 -7.46986775107169078e-03 
6.24994070983386600e-03 0.00000000000000000e+00 -6.50654955131324195e-03 
1.28250072093063338e-02 0.00000000000000000e+00 -2.22806025943499348e-03 
1.33499141950439541e-02 0.00000000000000000e+00 -3.88393997927469377e-03 
1.32607837086063749e-02 0.00000000000000000e+00 -3.16346868769551383e-03 
1.08601398009651184e-02 0.00000000000000000e+00 -5.57168490370612765e-03 
1.18431955386791576e-02 0.00000000000000000e+00 -5.44948790510049914e-03 
8.29179788681378566e-03 0.00000000000000000e+00 -6.03299844265809022e-03 
8.65158244781306582e-03 0.00000000000000000e+00 -5.83248393964190190e-03 
7.63237421796452396e-03 0.00000000000000000e+00 -6.94945739140416345e-03 
7.77630875926654027e-03 0.00000000000000000e+00 -6.76377185636033683e-03 
7.06796368998349224e-03 0.00000000000000000e+00 -7.33297225188186529e-03 
7.26574583239705200e-03 0.00000000000000000e+00 -7.37530196152927538e-03 
4.97975922978389704e-03 0.00000000000000000e+00 -4.26152720753471791e-03 
5.57762559521734428e-03 0.00000000000000000e+00 -5.43295243696756674e-03 
4.21586060565898313e-03 0.00000000000000000e+00 -1.85566584786742389e-03 
4.63395365343831356e-03 0.00000000000000000e+00 -3.23515339312250823e-03 
4.84401807425601655e-03 0.00000000000000000e+00 -3.91149340890170703e-03 
4.21586060566951290e-03 0.00000000000000000e+00 -1.85566584786491201e-03 
4.63395365343116823e-03 0.00000000000000000e+00 -3.23515339312105236e-03 
4.21586060567041582e-03 0.00000000000000000e+00 -1.85566584786461190e-03 
1.28250072093245935e-02 0.00000000000000000e+00 -2.22806025944167867e-03 
1.32607837086048275e-02 0.00000000000000000e+00 -3.16346868769708765e-03 
1.33499141950568292e-02 0.00000000000000000e+00 -3.88393997926934041e-03 
1.18431955386782833e-02 0.00000000000000000e+00 -5.44948790510111497e-03 
1.08601398009652971e-02 0.00000000000000000e+00 -5.57168490370646939e-03 
8.65158244781186192e-03 0.00000000000000000e+00 -5.83248393963955482e-03 
8.29179788681566783e-03 0.00000000000000000e+00 -6.03299844265869824e-03 
7.77630875926444125e-03 0.00000000000000000e+00 -6.76377185636147221e-03 
7.63237421796379104e-03 0.00000000000000000e+00 -6.94945739140392666e-03 
7.26574583240501178e-03 0.00000000000000000e+00 -7.37530196152988947e-03 
7.06796368998571269e-03 0.00000000000000000e+00 -7.33297225188353583e-03 
5.57762559521234481e-03 0.00000000000000000e+00 -5.43295243696654672e-03 
4.97975922979243622e-03 0.00000000000000000e+00 -4.26152720753430417e-03 
1.31694198010903277e-02 0.00000000000000000e+00 -2.51566780834538810e-03 
1.29825510640734255e-02 0.00000000000000000e+00 -4.49848501391756500e-03 
1.33442577581474910e-02 0.00000000000000000e+00 -4.21541951861245483e-03 
1.23322728376968078e-02 0.00000000000000000e+00 -4.96243825433006960e-03 
1.21023049986031250e-02 0.00000000000000000e+00 -5.21474733974565483e-03 
8.98403806335844150e-03 0.00000000000000000e+00 -5.81928885819043337e-03 
9.41187550144092534e-03 0.00000000000000000e+00 -5.85798953456462875e-03 
1.01060124986501014e-02 0.00000000000000000e+00 -5.75353763171372080e-03 
9.41187550143437503e-03 0.00000000000000000e+00 -5.85798953456613883e-03 
7.77776004512885973e-03 0.00000000000000000e+00 -6.59633248428167455e-03 
7.73375506966965647e-03 0.00000000000000000e+00 -6.37667410473926558e-03 
7.88833928794174973e-03 0.00000000000000000e+00 -6.12080405251081826e-03 
7.73375506966671959e-03 0.00000000000000000e+00 -6.37667410473800531e-03 
7.39014315356632551e-03 0.00000000000000000e+00 -7.39249415825449577e-03 
7.55717153819722778e-03 0.00000000000000000e+00 -7.44100969830818835e-03 
7.71124032685902103e-03 0.00000000000000000e+00 -7.32722261337631284e-03 
7.55717153819885669e-03 0.00000000000000000e+00 -7.44100969830838350e-03 
5.86184964364242032e-03 0.00000000000000000e+00 -5.91652364825819444e-03 
6.02916460993790666e-03 0.00000000000000000e+00 -6.19870127779181043e-03 
6.50354325004365730e-03 0.00000000000000000e+00 -6.79804714383126438e-03 
6.02916460994277169e-03 0.00000000000000000e+00 -6.19870127779006443e-03 
7.64709902394503527e-03 0.00000000000000000e+00 -7.11728580747124188e-03 
1.23322728376983690e-02 0.00000000000000000e+00 -4.96243825433146605e-03 
1.04362155941436427e-02 0.00000000000000000e+00 -5.64295102250897841e-03 
1.01060124986534668e-02 0.00000000000000000e+00 -5.75353763170996079e-03 
1.29825510640629339e-02 0.00000000000000000e+00 -4.49848501391749648e-03 
8.09948951625416580e-03 0.00000000000000000e+00 -6.09175166888356514e-03 
7.88833928794516366e-03 0.00000000000000000e+00 -6.12080405251108368e-03 
7.71124032685677977e-03 0.00000000000000000e+00 -7.32722261337470301e-03 
6.80480032978260894e-03 0.00000000000000000e+00 -7.10107113916300537e-03 
6.50354325004911908e-03 0.00000000000000000e+00 -6.79804714382950624e-03 
3.02090990891214814e-04 0.00000000000000000e+00 2.70224499599857823e-03 
3.93613628751305830e-03 0.00000000000000000e+00 -8.44382644109382659e-04 
-2.17061184431836855e-04 0.00000000000000000e+00 9.02913845976032370e-04 
-2.17061184443291235e-04 0.00000000000000000e+00 9.02913845974501693e-04 
-2.17061184422599453e-04 0.00000000000000000e+00 9.02913845979899285e-04 
3.02090990899228260e-04 0.00000000000000000e+00 2.70224499599831802e-03 
-2.17061184430759592e-04 0.00000000000000000e+00 9.02913845990552331e-04 
1.16587292916986648e-02 0.00000000000000000e+00 -1.53727621319149437e-03 
2.44471735459206893e-04 0.00000000000000000e+00 -1.58066356699983950e-04 
2.64803398681130080e-04 0.00000000000000000e+00 -4.66942799606568217e-04 
3.51659635242232570e-05 0.00000000000000000e+00 -4.01849624495033127e-04 
-2.48961035856020048e-04 0.00000000000000000e+00 -1.14192691571235520e-04 
-3.98591315981914414e-04 0.00000000000000000e+00 1.83952181071118768e-04 
-3.10705599494725225e-04 0.00000000000000000e+00 2.82499078159794738e-04 
-3.64547032154350273e-05 0.00000000000000000e+00 9.88785181999000614e-05 
2.60772941006870451e-04 0.00000000000000000e+00 -2.69529419064101577e-04 
4.37664673912251893e-04 0.00000000000000000e+00 -5.91082327489006768e-04 
4.75526361737795954e-04 0.00000000000000000e+00 -5.73380054585880916e-04 
4.54844641609000288e-04 0.00000000000000000e+00 5.51322620551855484e-05 
4.21488095373601405e-04 0.00000000000000000e+00 1.29701114311748513e-03 
-3.07943384394401864e-05 0.00000000000000000e+00 4.40934268601367524e-04 
2.01098963968682741e-04 0.00000000000000000e+00 -4.97865002367654634e-05 
2.84884838088929478e-04 0.00000000000000000e+00 -2.85658633633582447e-04 
2.89490333206807084e-04 0.00000000000000000e+00 -4.33961398301424951e-04 
2.22710190891052626e-04 0.00000000000000000e+00 -4.80624343411617690e-04 
2.97677068530293083e-04 0.00000000000000000e+00 -3.65057781662992537e-04 
1.04543123537214683e-04 0.00000000000000000e+00 -4.45259208572147225e-04 
-3.92630340847728934e-05 0.00000000000000000e+00 -3.43087620221349001e-04 
1.70161565918611532e-04 0.00000000000000000e+00 -4.73124997498305694e-04 
-1.84430297158145199e-04 0.00000000000000000e+00 -1.95749565730010932e-04 
-3.05244566683762666e-04 0.00000000000000000e+00 -3.13652231163231215e-05 
-1.12947239530522900e-04 0.00000000000000000e+00 -2.73887254043150721e-04 
-3.81943809098196521e-04 0.00000000000000000e+00 1.21317727032128813e-04 
-3.99489862469446714e-04 0.00000000000000000e+00 2.33263576957044009e-04 
-3.50248682338266399e-04 0.00000000000000000e+00 4.83317729290501247e-05 
-3.54799011611865809e-04 0.00000000000000000e+00 2.84013688788112219e-04 
-2.54136085606507852e-04 0.00000000000000000e+00 2.61917215061384465e-04 
-3.84752710638818602e-04 0.00000000000000000e+00 2.67375221162323407e-04 
-1.14031427659160031e-04 0.00000000000000000e+00 1.68312338649471283e-04 
4.27124768556885558e-05 0.00000000000000000e+00 1.65725845843416782e-05 
-1.87658876782374214e-04 0.00000000000000000e+00 2.23625500750726259e-04 
1.93931362259473148e-04 0.00000000000000000e+00 -1.71574596338272350e-04 
3.19525507229633974e-04 0.00000000000000000e+00 -3.65566595599583870e-04 
1.20177680074473649e-04 0.00000000000000000e+00 -7.42734221908757504e-05 
4.08010784163857050e-04 0.00000000000000000e+00 -5.30743037778281124e-04 
4.58624343261779656e-04 0.00000000000000000e+00 -6.31432128939306628e-04 
3.68215501186566611e-04 0.00000000000000000e+00 -4.53011879873601567e-04 
4.75483320690545694e-04 0.00000000000000000e+00 -6.25733526645548088e-04 
4.72064766612756632e-04 0.00000000000000000e+00 -4.73385770008430602e-04 
4.70205997291616221e-04 0.00000000000000000e+00 -6.43971092257330049e-04 
4.60747081541049532e-04 0.00000000000000000e+00 -1.54130981433663739e-04 
4.47147829886533090e-04 0.00000000000000000e+00 3.92593067652618425e-04 
4.67468563413853404e-04 0.00000000000000000e+00 -3.51423479185128656e-04 
4.31016411416065002e-04 0.00000000000000000e+00 1.04060884489255929e-03 
3.80014902226736163e-04 0.00000000000000000e+00 1.96906119350576895e-03 
3.80014902230706945e-04 0.00000000000000000e+00 1.96906119350565229e-03 
4.42744693308521015e-04 0.00000000000000000e+00 5.96114475964409614e-04 
3.80014902232069136e-04 0.00000000000000000e+00 1.96906119350952332e-03 
-3.07943384343210174e-05 0.00000000000000000e+00 4.40934268603796300e-04 
2.84884838091472583e-04 0.00000000000000000e+00 -2.85658633629490017e-04 
2.01098963968495391e-04 0.00000000000000000e+00 -4.97865002431103229e-05 
2.22710190890177458e-04 0.00000000000000000e+00 -4.80624343411911942e-04 
2.89490333201893480e-04 0.00000000000000000e+00 -4.33961398299601540e-04 
-3.92630340826166321e-05 0.00000000000000000e+00 -3.43087620219749586e-04 
1.04543123531046874e-04 0.00000000000000000e+00 -4.45259208571932986e-04 
-3.05244566686332659e-04 0.00000000000000000e+00 -3.13652231185062709e-05 
-1.84430297156416547e-04 0.00000000000000000e+00 -1.95749565731391772e-04 
-3.99489862470930770e-04 0.00000000000000000e+00 2.33263576955031730e-04 
-3.81943809098659259e-04 0.00000000000000000e+00 1.21317727033882185e-04 
-2.54136085606685228e-04 0.00000000000000000e+00 2.61917215060393071e-04 
-3.54799011608173016e-04 0.00000000000000000e+00 2.84013688786046163e-04 
4.27124768533861441e-05 0.00000000000000000e+00 1.65725845864792912e-05 
-1.14031427666489671e-04 0.00000000000000000e+00 1.68312338650011215e-04 
3.19525507229156708e-04 0.00000000000000000e+00 -3.65566595599568691e-04 
1.93931362262620804e-04 0.00000000000000000e+00 -1.71574596340433815e-04 
4.58624343267446564e-04 0.00000000000000000e+00 -6.31432128938094273e-04 
4.08010784167490862e-04 0.00000000000000000e+00 -5.30743037775927972e-04 
4.72064766611042291e-04 0.00000000000000000e+00 -4.73385770010993818e-04 
4.75483320690735158e-04 0.00000000000000000e+00 -6.25733526645356401e-04 
4.47147829883935558e-04 0.00000000000000000e+00 3.92593067656060550e-04 
4.60747081533629957e-04 0.00000000000000000e+00 -1.54130981432881270e-04 
4.74564053160562858e-05 0.00000000000000000e+00 2.79345366565227678e-04 
4.31016411414153011e-04 0.00000000000000000e+00 1.04060884489225462e-03 
3.93613628749952486e-03 0.00000000000000000e+00 -8.44382644112483911e-04 
1.32569873855465491e-02 0.00000000000000000e+00 -2.89247830905934927e-03 
1.32975415211859221e-02 0.00000000000000000e+00 -4.27703373276087061e-03 
1.20899888134107080e-02 0.00000000000000000e+00 -5.22922771432675435e-03 
1.04304844328443821e-02 0.00000000000000000e+00 -5.64435846098701021e-03 
8.98240142776686804e-03 0.00000000000000000e+00 -5.81920960346898105e-03 
8.09915901257475361e-03 0.00000000000000000e+00 -6.09177271524889100e-03 
7.77783658130103313e-03 0.00000000000000000e+00 -6.59663363338577891e-03 
7.64727825608349943e-03 0.00000000000000000e+00 -7.11803688648311467e-03 
7.38809585578239364e-03 0.00000000000000000e+00 -7.39200673932105708e-03 
6.78971647942542157e-03 0.00000000000000000e+00 -7.08674127001267858e-03 
5.82554243416463693e-03 0.00000000000000000e+00 -5.85211841708658132e-03 
4.73529701570769932e-03 0.00000000000000000e+00 -3.58715468012192184e-03 
1.28250072093233549e-02 0.00000000000000000e+00 -2.22806025943594844e-03 
1.32982737062224791e-02 0.00000000000000000e+00 -3.58000891173255401e-03 
1.26097451077957605e-02 0.00000000000000000e+00 -4.73011453409703277e-03 
1.13531769667210639e-02 0.00000000000000000e+00 -5.52464181445906644e-03 
9.82032128253609686e-03 0.00000000000000000e+00 -5.86301301837426243e-03 
8.42845988262464971e-03 0.00000000000000000e+00 -5.90906489021608000e-03 
7.75855686103251157e-03 0.00000000000000000e+00 -6.20822136117737001e-03 
7.68158860647867505e-03 0.00000000000000000e+00 -6.83768220601592685e-03 
7.71548173989529840e-03 0.00000000000000000e+00 -7.46998984469558584e-03 
7.17580143643969937e-03 0.00000000000000000e+00 -7.37590332797013765e-03 
6.23162300054174844e-03 0.00000000000000000e+00 -6.48348419089010957e-03 
5.21711284898231098e-03 0.00000000000000000e+00 -4.77718388396401999e-03 
4.35677377579739549e-03 0.00000000000000000e+00 -2.29353895730818663e-03 
3.17061631332530907e-03 0.00000000000000000e+00 3.23272930262791052e-04 
3.17061631332789425e-03 0.00000000000000000e+00 3.23272930259867230e-04 
1.45739565879362382e-03 0.00000000000000000e+00 2.03326670446586644e-03 
1.45739565879994537e-03 0.00000000000000000e+00 2.03326670446707857e-03 
2.47343809366317672e-03 0.00000000000000000e+00 1.37227338897484173e-03 
2.47343809366438539e-03 0.00000000000000000e+00 1.37227338896897598e-03 
3.17061631333115379e-03 0.00000000000000000e+00 3.23272930256566810e-04 
1.45739565879726848e-03 0.00000000000000000e+00 2.03326670446849845e-03 
3.02090990897193430e-04 0.00000000000000000e+00 2.70224499600062304e-03 
3.02090990896008505e-04 0.00000000000000000e+00 2.70224499599935929e-03 
3.02090990891778382e-04 0.00000000000000000e+00 2.70224499600229835e-03 
3.93613628750038701e-03 0.00000000000000000e+00 -8.44382644108018950e-04 
3.93613628751153521e-03 0.00000000000000000e+00 -8.44382644111736679e-04 
3.93613628750750979e-03 0.00000000000000000e+00 -8.44382644110753958e-04 
1.45833706026931063e-04 0.00000000000000000e+00 7.42944384178620225e-05 
2.98042547701269907e-04 0.00000000000000000e+00 -3.80614767699397310e-04 
1.66807632752454969e-04 0.00000000000000000e+00 -4.72115030939021366e-04 
-1.14064002214476714e-04 0.00000000000000000e+00 -2.72753916419083830e-04 
-3.50412221864625662e-04 0.00000000000000000e+00 4.86570052034381563e-05 
-3.84721082503527913e-04 0.00000000000000000e+00 2.67411389106929733e-04 
-1.87565245031957883e-04 0.00000000000000000e+00 2.23562971687419259e-04 
1.20468170339276768e-04 0.00000000000000000e+00 -7.46352186252011331e-05 
3.68823200318729272e-04 0.00000000000000000e+00 -4.54155585903653208e-04 
4.70612268754684007e-04 0.00000000000000000e+00 -6.43863131074897408e-04 
4.66432185148460659e-04 0.00000000000000000e+00 -3.22617383566168496e-04 
4.37872889568919352e-04 0.00000000000000000e+00 8.01314355383822650e-04 
-3.07943384429287153e-05 0.00000000000000000e+00 4.40934268600159994e-04 
2.59384469373255034e-04 0.00000000000000000e+00 -2.00298059539520624e-04 
2.61739972892076128e-04 0.00000000000000000e+00 -4.69033864915204771e-04 
3.34170022885623674e-05 0.00000000000000000e+00 -4.00606525051273475e-04 
-2.49360331745252049e-04 0.00000000000000000e+00 -1.13649256022778304e-04 
-3.98608048232505178e-04 0.00000000000000000e+00 1.84058851807563224e-04 
-3.10659144898240834e-04 0.00000000000000000e+00 2.82488912262275171e-04 
-3.63178757449208063e-05 0.00000000000000000e+00 9.87460595622648352e-05 
2.61144591762043005e-04 0.00000000000000000e+00 -2.70105588869160929e-04 
4.38205656775437634e-04 0.00000000000000000e+00 -5.92180284592474463e-04 
4.75371181427352240e-04 0.00000000000000000e+00 -5.67546739415322526e-04 
4.53038617437528197e-04 0.00000000000000000e+00 1.28274010702287389e-04 
4.01110670172094346e-04 0.00000000000000000e+00 1.67958713284800166e-03 
1.16587292916853855e-02 0.00000000000000000e+00 -1.53727621319071374e-03 
1.16587292916800114e-02 0.00000000000000000e+00 -1.53727621319633230e-03 
1.16587292916756798e-02 0.00000000000000000e+00 -1.53727621319233051e-03 
2.47343809366199147e-03 0.00000000000000000e+00 1.37227338897008251e-03 
3.17061631332595005e-03 0.00000000000000000e+00 3.23272930258052601e-04 
1.45739565879371728e-03 0.00000000000000000e+00 2.03326670446493706e-03 
1.45833706027982305e-04 0.00000000000000000e+00 7.42944384133455073e-05 
2.98042547698781446e-04 0.00000000000000000e+00 -3.80614767702865673e-04 
1.66807632748085201e-04 0.00000000000000000e+00 -4.72115030939794619e-04 
-1.14064002210971705e-04 0.00000000000000000e+00 -2.72753916419729147e-04 
-3.50412221863446918e-04 0.00000000000000000e+00 4.86570052052795652e-05 
-3.84721082503893940e-04 0.00000000000000000e+00 2.67411389107211192e-04 
-1.87565245031994746e-04 0.00000000000000000e+00 2.23562971686906649e-04 
1.20468170339534808e-04 0.00000000000000000e+00 -7.46352186249209752e-05 
3.68823200318372786e-04 0.00000000000000000e+00 -4.54155585903461955e-04 
4.70612268756732391e-04 0.00000000000000000e+00 -6.43863131076471995e-04 
4.66432185145452107e-04 0.00000000000000000e+00 -3.22617383565571643e-04 
4.37872889570028057e-04 0.00000000000000000e+00 8.01314355384685566e-04 
-3.07943384457806007e-05 0.00000000000000000e+00 4.40934268598125109e-04 
2.59384469378672576e-04 0.00000000000000000e+00 -2.00298059539187124e-04 
2.61739972891797705e-04 0.00000000000000000e+00 -4.69033864913875973e-04 
3.34170022895129959e-05 0.00000000000000000e+00 -4.00606525050826784e-04 
-2.49360331746478498e-04 0.00000000000000000e+00 -1.13649256020948605e-04 
-3.98608048231751007e-04 0.00000000000000000e+00 1.84058851807686823e-04 
-3.10659144898167542e-04 0.00000000000000000e+00 2.82488912263989945e-04 
-3.63178757441913550e-05 0.00000000000000000e+00 9.87460595639553233e-05 
2.61144591759667301e-04 0.00000000000000000e+00 -2.70105588871037033e-04 
4.38205656776917353e-04 0.00000000000000000e+00 -5.92180284593119130e-04 
4.75371181429020990e-04 0.00000000000000000e+00 -5.67546739415337054e-04 
4.53038617438922969e-04 0.00000000000000000e+00 1.28274010701792560e-04 
4.01110670172416463e-04 0.00000000000000000e+00 1.67958713284767076e-03 
1.16587292916844141e-02 0.00000000000000000e+00 -1.53727621319410469e-03 
1.32569873855485684e-02 0.00000000000000000e+00 -2.89247830905926600e-03 
1.32975415211817570e-02 0.00000000000000000e+00 -4.27703373276361754e-03 
1.20899888134107583e-02 0.00000000000000000e+00 -5.22922771432685670e-03 
1.04304844328429631e-02 0.00000000000000000e+00 -5.64435846098672138e-03 
8.98240142776905726e-03 0.00000000000000000e+00 -5.81920960346989525e-03 
8.09915901257498433e-03 0.00000000000000000e+00 -6.09177271524845472e-03 