# vtk DataFile Version 2.0

ASCII

DATASET UNSTRUCTURED_GRID

POINTS 281 double 

0.00000000000000000e+00  6.00000000000000012e-03  8.68039800000000063e-03
0.00000000000000000e+00  6.00000000000000012e-03  2.15013699999999988e-02
0.00000000000000000e+00  5.99999699999999997e-03  3.38432499999999983e-02
0.00000000000000000e+00  6.00000000000000012e-03  4.61511800000000000e-02
0.00000000000000000e+00  5.99999399999999981e-03  5.84285100000000029e-02
0.00000000000000000e+00  5.99999899999999978e-03  7.03572799999999943e-02
0.00000000000000000e+00  6.00000000000000012e-03  7.56573400000000035e-02
0.00000000000000000e+00  6.00000000000000012e-03  1.52458600000000000e-02
0.00000000000000000e+00  5.99999899999999978e-03  2.76822099999999988e-02
0.00000000000000000e+00  5.99999899999999978e-03  3.99985900000000005e-02
0.00000000000000000e+00  5.99999800000000031e-03  5.22986000000000006e-02
0.00000000000000000e+00  5.99999800000000031e-03  6.44963600000000026e-02
0.00000000000000000e+00  3.00000000000000006e-03  3.07692300000000007e-03
0.00000000000000000e+00  3.00000000000000006e-03  1.04940499999999996e-02
0.00000000000000000e+00  3.00000000000000006e-03  7.41712199999999995e-03
0.00000000000000000e+00  3.00000000000000006e-03  2.30583799999999998e-02
0.00000000000000000e+00  3.00000000000000006e-03  1.99814599999999995e-02
0.00000000000000000e+00  2.99999900000000016e-03  3.53831699999999985e-02
0.00000000000000000e+00  2.99999900000000016e-03  3.23062400000000000e-02
0.00000000000000000e+00  3.00000000000000006e-03  4.76909699999999992e-02
0.00000000000000000e+00  3.00000000000000006e-03  4.46140500000000023e-02
0.00000000000000000e+00  2.99999699999999991e-03  5.99834799999999987e-02
0.00000000000000000e+00  2.99999699999999991e-03  5.69065600000000019e-02
0.00000000000000000e+00  2.99999900000000016e-03  7.21017199999999941e-02
0.00000000000000000e+00  2.99999900000000016e-03  6.90247900000000025e-02
0.00000000000000000e+00  3.00000000000000006e-03  7.78286700000000026e-02
0.00000000000000000e+00  3.00000000000000006e-03  7.47517500000000057e-02
0.00000000000000000e+00  5.99999899999999978e-03  7.30073100000000058e-02
0.00000000000000000e+00  6.00000000000000012e-03  7.78286700000000026e-02
0.00000000000000000e+00  8.99999999999999932e-03  7.47517500000000057e-02
0.00000000000000000e+00  8.99999999999999932e-03  7.78286700000000026e-02
0.00000000000000000e+00  8.99999999999999932e-03  3.07692300000000007e-03
0.00000000000000000e+00  8.99999999999999932e-03  7.41712199999999995e-03
0.00000000000000000e+00  8.99999999999999932e-03  1.04940499999999996e-02
0.00000000000000000e+00  8.99999999999999932e-03  1.99814599999999995e-02
0.00000000000000000e+00  8.99999999999999932e-03  2.30583799999999998e-02
0.00000000000000000e+00  8.99999899999999985e-03  3.23062400000000000e-02
0.00000000000000000e+00  8.99999899999999985e-03  3.53831699999999985e-02
0.00000000000000000e+00  8.99999999999999932e-03  4.46140500000000023e-02
0.00000000000000000e+00  8.99999999999999932e-03  4.76909699999999992e-02
0.00000000000000000e+00  8.99999699999999916e-03  5.69065600000000019e-02
0.00000000000000000e+00  8.99999699999999916e-03  5.99834799999999987e-02
0.00000000000000000e+00  8.99999899999999985e-03  6.90247900000000025e-02
0.00000000000000000e+00  8.99999899999999985e-03  7.21017199999999941e-02
0.00000000000000000e+00  6.00000000000000012e-03  4.34019900000000031e-03
0.00000000000000000e+00  3.00000000000000006e-03  1.37767800000000006e-02
0.00000000000000000e+00  6.00000000000000012e-03  1.19631300000000006e-02
0.00000000000000000e+00  3.00000000000000006e-03  1.68536999999999992e-02
0.00000000000000000e+00  6.00000000000000012e-03  1.83736200000000002e-02
0.00000000000000000e+00  5.99999800000000031e-03  3.07627299999999985e-02
0.00000000000000000e+00  3.00000000000000006e-03  2.92257200000000002e-02
0.00000000000000000e+00  3.00000000000000006e-03  2.61487999999999998e-02
0.00000000000000000e+00  8.99999999999999932e-03  2.92257200000000002e-02
0.00000000000000000e+00  6.00000000000000012e-03  4.30748800000000029e-02
0.00000000000000000e+00  2.99999900000000016e-03  4.15377600000000000e-02
0.00000000000000000e+00  2.99999900000000016e-03  3.84608300000000014e-02
0.00000000000000000e+00  8.99999899999999985e-03  4.15377600000000000e-02
0.00000000000000000e+00  5.99999599999999963e-03  5.53635499999999975e-02
0.00000000000000000e+00  2.99999900000000016e-03  5.38416099999999981e-02
0.00000000000000000e+00  2.99999900000000016e-03  5.07646799999999995e-02
0.00000000000000000e+00  8.99999899999999985e-03  5.38416099999999981e-02
0.00000000000000000e+00  5.99999800000000031e-03  6.74268199999999984e-02
0.00000000000000000e+00  2.99999900000000016e-03  6.60943300000000067e-02
0.00000000000000000e+00  2.99999900000000016e-03  6.30174099999999959e-02
0.00000000000000000e+00  8.99999899999999985e-03  6.60943300000000067e-02
0.00000000000000000e+00  5.99999899999999978e-03  4.92248900000000003e-02
0.00000000000000000e+00  8.99999999999999932e-03  1.68536999999999992e-02
0.00000000000000000e+00  5.99999899999999978e-03  2.45917899999999988e-02
0.00000000000000000e+00  8.99999999999999932e-03  2.61487999999999998e-02
0.00000000000000000e+00  8.99999999999999932e-03  1.37767800000000006e-02
0.00000000000000000e+00  5.99999800000000031e-03  3.69209200000000029e-02
0.00000000000000000e+00  8.99999899999999985e-03  3.84608300000000014e-02
0.00000000000000000e+00  8.99999899999999985e-03  5.07646799999999995e-02
0.00000000000000000e+00  5.99999599999999963e-03  6.14624299999999985e-02
0.00000000000000000e+00  8.99999899999999985e-03  6.30174099999999959e-02
1.20000000000000002e-02  1.20000000000000002e-02  8.00000000000000017e-02
0.00000000000000000e+00  0.00000000000000000e+00  8.00000000000000017e-02
1.20000000000000002e-02  6.00000000000000012e-03  0.00000000000000000e+00
1.20000000000000002e-02  3.00000000000000006e-03  0.00000000000000000e+00
1.20000000000000002e-02  8.99999999999999932e-03  0.00000000000000000e+00
1.20000000000000002e-02  0.00000000000000000e+00  8.00000000000000017e-02
1.20000000000000002e-02  0.00000000000000000e+00  0.00000000000000000e+00
0.00000000000000000e+00  1.20000000000000002e-02  0.00000000000000000e+00
1.20000000000000002e-02  5.99999899999999978e-03  8.68039699999999942e-03
1.20000000000000002e-02  5.99999899999999978e-03  1.52458600000000000e-02
1.20000000000000002e-02  5.99999899999999978e-03  2.15013699999999988e-02
1.20000000000000002e-02  6.00000000000000012e-03  2.76822099999999988e-02
1.20000000000000002e-02  5.99999899999999978e-03  3.38432399999999967e-02
1.20000000000000002e-02  5.99999800000000031e-03  3.99985900000000005e-02
1.20000000000000002e-02  5.99999699999999997e-03  4.61511800000000000e-02
1.20000000000000002e-02  5.99999300000000034e-03  5.22986100000000023e-02
1.20000000000000002e-02  5.99998599999999969e-03  5.84285400000000010e-02
1.20000000000000002e-02  5.99997800000000043e-03  6.44963800000000059e-02
1.20000000000000002e-02  5.99997500000000027e-03  7.03572999999999976e-02
1.20000000000000002e-02  5.99997500000000027e-03  7.56573600000000068e-02
1.20000000000000002e-02  3.00000000000000006e-03  3.07692300000000007e-03
1.20000000000000002e-02  3.00000000000000006e-03  7.41712099999999961e-03
1.20000000000000002e-02  3.00000000000000006e-03  1.04940399999999996e-02
1.20000000000000002e-02  2.99999900000000016e-03  1.37767800000000006e-02
1.20000000000000002e-02  2.99999900000000016e-03  1.68536999999999992e-02
1.20000000000000002e-02  5.99999899999999978e-03  1.19631300000000006e-02
1.20000000000000002e-02  3.00000000000000006e-03  1.99814500000000013e-02
1.20000000000000002e-02  3.00000000000000006e-03  2.30583799999999998e-02
1.20000000000000002e-02  5.99999899999999978e-03  1.83736099999999986e-02
1.20000000000000002e-02  3.00000000000000006e-03  2.61487999999999998e-02
1.20000000000000002e-02  3.00000000000000006e-03  2.92257200000000002e-02
1.20000000000000002e-02  5.99999899999999978e-03  2.45917899999999988e-02
1.20000000000000002e-02  3.00000000000000006e-03  3.23062299999999983e-02
1.20000000000000002e-02  3.00000000000000006e-03  3.53831599999999968e-02
1.20000000000000002e-02  5.99999899999999978e-03  3.07627200000000003e-02
1.20000000000000002e-02  2.99999900000000016e-03  3.84608300000000014e-02
1.20000000000000002e-02  2.99999900000000016e-03  4.15377499999999983e-02
1.20000000000000002e-02  5.99999899999999978e-03  3.69209100000000012e-02
1.20000000000000002e-02  2.99999799999999981e-03  4.46140500000000023e-02
1.20000000000000002e-02  2.99999799999999981e-03  4.76909800000000009e-02
1.20000000000000002e-02  5.99999800000000031e-03  4.30748800000000029e-02
1.20000000000000002e-02  2.99999699999999991e-03  5.07646900000000012e-02
1.20000000000000002e-02  2.99999699999999991e-03  5.38416099999999981e-02
1.20000000000000002e-02  5.99999500000000015e-03  4.92249000000000020e-02
1.20000000000000002e-02  2.99999299999999984e-03  5.69065799999999983e-02
1.20000000000000002e-02  2.99999299999999984e-03  5.99835000000000021e-02
1.20000000000000002e-02  5.99999000000000018e-03  5.53635800000000025e-02
1.20000000000000002e-02  2.99998900000000021e-03  6.30174200000000045e-02
1.20000000000000002e-02  2.99998900000000021e-03  6.60943499999999962e-02
1.20000000000000002e-02  5.99998200000000006e-03  6.14624599999999965e-02
1.20000000000000002e-02  2.99998799999999987e-03  6.90248100000000059e-02
1.20000000000000002e-02  2.99998799999999987e-03  7.21017300000000028e-02
1.20000000000000002e-02  5.99997700000000009e-03  6.74268400000000018e-02
1.20000000000000002e-02  2.99998699999999997e-03  7.47517600000000004e-02
1.20000000000000002e-02  2.99998699999999997e-03  7.78286799999999973e-02
1.20000000000000002e-02  5.99998700000000003e-03  7.78286799999999973e-02
1.20000000000000002e-02  5.99997500000000027e-03  7.30073299999999953e-02
1.20000000000000002e-02  8.99998699999999922e-03  7.78286799999999973e-02
1.20000000000000002e-02  8.99999999999999932e-03  3.07692300000000007e-03
[...]
POINT_DATA 281

SCALARS Rank unsigned_int
LOOKUP_TABLE default
0 0 0 0 0 0 0 0 0 0 0 0 0 0 0 0 0 0 0 0 0 0 0 0 0 0 0 0 0 0 0 0 0 0 0 0 0 0 0 0 0 0 0 0 0 0 0 0 0 0 0 0 0 0 0 0 0 0 0 0 0 0 0 0 0 0 0 0 0 0 0 0 0 0 0 0 0 0 0 0 0 0 0 0 0 0 0 0 0 0 0 0 0 0 0 0 0 0 0 0 0 0 0 0 0 0 0 0 0 0 0 0 0 0 0 0 0 0 0 0 0 0 0 0 0 0 0 0 0 0 0 0 0 0 0 0 0 0 0 0 0 0 0 0 0 0 0 0 0 0 0 0 0 0 0 0 0 0 0 0 0 0 0 0 0 0 0 0 0 0 0 0 0 0 0 0 0 0 0 0 0 0 0 0 0 0 0 0 0 0 0 0 0 0 0 0 0 0 0 0 0 0 0 0 0 0 0 0 0 0 0 0 0 0 0 0 0 0 0 0 0 0 0 0 0 0 0 0 0 0 0 0 0 0 0 0 0 0 0 0 0 0 0 0 0 0 0 0 0 0 0 0 0 0 0 0 0 0 0 0 0 0 0 0 0 0 0 0 0 0 0 0 0 0 0 0 0 0 0 0 0 

VECTORS Forces0 double
1.58867502090527909e-04 0.00000000000000000e+00 4.07536540242579334e-07 
6.73307529391308103e-05 0.00000000000000000e+00 -3.33886895422352591e-07 
2.53244904140319650e-05 0.00000000000000000e+00 2.98336670160943302e-07 
1.47943374707474182e-05 0.00000000000000000e+00 -1.48610652722753720e-07 
8.44128292678344118e-06 0.00000000000000000e+00 2.79109932068279307e-07 
3.07958019868350569e-06 0.00000000000000000e+00 -5.75897168217455022e-07 
8.19256037736003778e-07 0.00000000000000000e+00 -1.46687036302431752e-06 
1.10191054459652339e-04 0.00000000000000000e+00 7.92287504012172003e-08 
4.00222437871456261e-05 0.00000000000000000e+00 -2.39658730106051134e-07 
1.85080638784674770e-05 0.00000000000000000e+00 4.95435183818214336e-07 
1.17034502919258011e-05 0.00000000000000000e+00 -6.41840459381021313e-07 
5.62576218139805416e-06 0.00000000000000000e+00 1.12310583515263490e-06 
1.80227916769383722e-04 0.00000000000000000e+00 -6.29055636060011697e-08 
1.48726886176272268e-04 0.00000000000000000e+00 3.70292722930008761e-07 
1.66549767114496431e-04 0.00000000000000000e+00 3.82039870924920436e-07 
5.79241586299543765e-05 0.00000000000000000e+00 -3.71129227608987325e-07 
7.74729948209295521e-05 0.00000000000000000e+00 -2.62738494224238922e-07 
2.38555138915376756e-05 0.00000000000000000e+00 4.20455761091724268e-07 
2.75559015223024375e-05 0.00000000000000000e+00 1.55288399664238683e-07 
1.36894780201026937e-05 0.00000000000000000e+00 -3.58134884317615359e-07 
1.60819802864403676e-05 0.00000000000000000e+00 6.79119475295985615e-08 
7.89851589616393467e-06 0.00000000000000000e+00 6.43122285135892971e-07 
9.02312500062128861e-06 0.00000000000000000e+00 -6.89649547280036963e-08 
2.26458571134596916e-06 0.00000000000000000e+00 -1.23857654661504305e-06 
3.71615454871335418e-06 0.00000000000000000e+00 -1.47250129849973991e-08 
2.53265322683429237e-07 0.00000000000000000e+00 -5.12283765501057712e-07 
1.14451619767383017e-06 0.00000000000000000e+00 -1.61466189947019788e-06 
1.86138932563974049e-06 0.00000000000000000e+00 -1.48168582619324017e-06 
2.53265322719316329e-07 0.00000000000000000e+00 -5.12283765480551044e-07 
1.14451619763768897e-06 0.00000000000000000e+00 -1.61466189948485366e-06 
2.53265322687047761e-07 0.00000000000000000e+00 -5.12283765535059309e-07 
1.80227916769422157e-04 0.00000000000000000e+00 -6.29055635364432476e-08 
1.66549767114382454e-04 0.00000000000000000e+00 3.82039870931388168e-07 
1.48726886176289968e-04 0.00000000000000000e+00 3.70292722937856310e-07 
7.74729948209317205e-05 0.00000000000000000e+00 -2.62738494263779584e-07 
5.79241586300037145e-05 0.00000000000000000e+00 -3.71129227580161523e-07 
2.75559015223693293e-05 0.00000000000000000e+00 1.55288399673822014e-07 
2.38555138915632221e-05 0.00000000000000000e+00 4.20455761045873527e-07 
1.60819802864236505e-05 0.00000000000000000e+00 6.79119475292368785e-08 
1.36894780201574730e-05 0.00000000000000000e+00 -3.58134884311802595e-07 
9.02312500061242526e-06 0.00000000000000000e+00 -6.89649547491286980e-08 
7.89851589613361767e-06 0.00000000000000000e+00 6.43122285176945905e-07 
3.71615454858546236e-06 0.00000000000000000e+00 -1.47250129866529250e-08 
2.26458571134237097e-06 0.00000000000000000e+00 -1.23857654658502526e-06 
1.82577859317572839e-04 0.00000000000000000e+00 1.15462105521217915e-07 
1.23628635264168393e-04 0.00000000000000000e+00 1.84509970682626260e-07 
1.39900628780046624e-04 0.00000000000000000e+00 2.95282375689480657e-07 
9.73210423243889874e-05 0.00000000000000000e+00 -4.45154834809244794e-08 
8.70528857112555109e-05 0.00000000000000000e+00 -1.58558214322008460e-07 
3.08455764193153826e-05 0.00000000000000000e+00 8.05623785269614064e-09 
3.52339683051784298e-05 0.00000000000000000e+00 -1.26383876232689323e-07 
4.45447150896460250e-05 0.00000000000000000e+00 -3.22788810608503935e-07 
3.52339683052088078e-05 0.00000000000000000e+00 -1.26383876263597555e-07 
1.69073346793852077e-05 0.00000000000000000e+00 2.59397900893599655e-07 
1.75253466753623528e-05 0.00000000000000000e+00 4.04093317559487472e-07 
2.00580896879689488e-05 0.00000000000000000e+00 5.26656951143515740e-07 
1.75253466753422375e-05 0.00000000000000000e+00 4.04093317537177048e-07 
9.77697041087383876e-06 0.00000000000000000e+00 -3.61641915413019419e-07 
1.07113237378441711e-05 0.00000000000000000e+00 -5.53752247301998365e-07 
1.23185485545141105e-05 0.00000000000000000e+00 -6.28655970950510156e-07 
1.07113237378673205e-05 0.00000000000000000e+00 -5.53752247296292751e-07 
4.42262760935893731e-06 0.00000000000000000e+00 5.76614276565881350e-07 
4.95240664309897481e-06 0.00000000000000000e+00 9.16996541956130703e-07 
6.33115831553833277e-06 0.00000000000000000e+00 1.10998608388255855e-06 
4.95240664305168835e-06 0.00000000000000000e+00 9.16996541982539920e-07 
1.28730055346413270e-05 0.00000000000000000e+00 -5.27855026445908609e-07 
9.73210423243954249e-05 0.00000000000000000e+00 -4.45154834116412077e-08 
5.03622612526686379e-05 0.00000000000000000e+00 -3.68456258545721712e-07 
4.45447150896809499e-05 0.00000000000000000e+00 -3.22788810580524637e-07 
1.23628635264191487e-04 0.00000000000000000e+00 1.84509970755722557e-07 
2.20491834832735832e-05 0.00000000000000000e+00 5.00720554504633164e-07 
2.00580896879543934e-05 0.00000000000000000e+00 5.26656951135930137e-07 
1.23185485545184930e-05 0.00000000000000000e+00 -6.28655970929693898e-07 
7.14150754226450021e-06 0.00000000000000000e+00 9.29879736119810118e-07 
6.33115831545058185e-06 0.00000000000000000e+00 1.10998608385742708e-06 
7.17413286797854345e-07 0.00000000000000000e+00 1.90911318644035405e-06 
-8.47947079644329927e-08 0.00000000000000000e+00 1.87233259627005563e-06 
2.80849336708387835e-06 0.00000000000000000e+00 -6.59345522197279525e-07 
2.80849336702534498e-06 0.00000000000000000e+00 -6.59345522258379082e-07 
2.80849336718386889e-06 0.00000000000000000e+00 -6.59345522256173832e-07 
7.17413286763335211e-07 0.00000000000000000e+00 1.90911318643527016e-06 
2.80849336708456953e-06 0.00000000000000000e+00 -6.59345522283802988e-07 
1.63547437365572576e-04 0.00000000000000000e+00 -7.42585191748887617e-07 
2.17893716459206093e-06 0.00000000000000000e+00 5.09982517998079875e-07 
-3.99340590351174669e-07 0.00000000000000000e+00 1.29257553302659085e-07 
-1.60517162272873683e-06 0.00000000000000000e+00 -3.35107565237186532e-07 
3.91100566457025828e-07 0.00000000000000000e+00 -2.83097094907462429e-07 
3.93733809179778792e-06 0.00000000000000000e+00 2.33005797201042205e-07 
6.84766891769273436e-06 0.00000000000000000e+00 4.17326346296250910e-07 
8.14017630404328425e-06 0.00000000000000000e+00 -2.30130650317593533e-07 
8.19477532677721154e-06 0.00000000000000000e+00 -7.16184441869717668e-07 
7.62439176750952388e-06 0.00000000000000000e+00 2.33292197736919348e-07 
6.93404588881806996e-06 0.00000000000000000e+00 1.10812907159306253e-06 
5.86053417354135001e-06 0.00000000000000000e+00 -5.77537482440750411e-07 
3.86757931500592379e-06 0.00000000000000000e+00 -1.46789875690836078e-06 
2.47823546657442085e-06 0.00000000000000000e+00 7.19860418817853823e-08 
2.44267918641647934e-06 0.00000000000000000e+00 4.95012752916568119e-07 
1.64056801484444317e-06 0.00000000000000000e+00 4.66665797046400236e-07 
2.53666248037898335e-07 0.00000000000000000e+00 2.54462163228146235e-07 
-9.81817069767663044e-07 0.00000000000000000e+00 -1.22302375048784587e-08 
1.07995242424923144e-06 0.00000000000000000e+00 3.87925552046668781e-07 
-1.55394814286838262e-06 0.00000000000000000e+00 -2.54186391946510415e-07 
-1.43999444966221212e-06 0.00000000000000000e+00 -3.82365614093951704e-07 
-1.35755570533240228e-06 0.00000000000000000e+00 -1.39199039996926370e-07 
-3.97254301302910230e-07 0.00000000000000000e+00 -3.55691908080983884e-07 
1.19886885442132897e-06 0.00000000000000000e+00 -1.75038841729041432e-07 
-1.03312590187322886e-06 0.00000000000000000e+00 -3.90060567184999122e-07 
2.97450898983198748e-06 0.00000000000000000e+00 9.76907630897212883e-08 
4.87822751962174561e-06 0.00000000000000000e+00 3.46286370800986304e-07 
2.05229798870072678e-06 0.00000000000000000e+00 -4.40578008013500175e-08 
6.28319491846224518e-06 0.00000000000000000e+00 4.49659722503540773e-07 
7.36313794000007777e-06 0.00000000000000000e+00 3.22060027126589132e-07 
5.65768499103919257e-06 0.00000000000000000e+00 4.23319161536915639e-07 
8.07610144997072699e-06 0.00000000000000000e+00 -1.98813793936165278e-08 
8.16221452078525260e-06 0.00000000000000000e+00 -4.34921938857990664e-07 
7.80984172036801453e-06 0.00000000000000000e+00 1.72134922609876117e-07 
8.23385351262468255e-06 0.00000000000000000e+00 -7.05093449556274476e-07 
7.97703445582547614e-06 0.00000000000000000e+00 -6.16688533665512169e-07 
8.19215205940365349e-06 0.00000000000000000e+00 -6.03070592413414484e-07 
7.66020827429371047e-06 0.00000000000000000e+00 -1.16050133206747325e-07 
7.59053027213541189e-06 0.00000000000000000e+00 5.98281539119459497e-07 
7.77629629681645135e-06 0.00000000000000000e+00 -4.14287962435504006e-07 
7.10628106265298719e-06 0.00000000000000000e+00 1.08895356606722158e-06 
6.82387837351481245e-06 0.00000000000000000e+00 9.01623048002838025e-07 
7.35777979011521834e-06 0.00000000000000000e+00 8.96983234951412931e-07 
6.34105967480890311e-06 0.00000000000000000e+00 -2.63997800129133821e-08 
5.22022253550223010e-06 0.00000000000000000e+00 -1.23293476504987594e-06 
6.72312794468464635e-06 0.00000000000000000e+00 5.58509060327892034e-07 
4.25805427647295068e-06 0.00000000000000000e+00 -1.61339184367104156e-06 
2.38345142908792416e-06 0.00000000000000000e+00 -4.94880997497756488e-07 
2.38345142919769031e-06 0.00000000000000000e+00 -4.94880997546236419e-07 
4.89740010533786087e-06 0.00000000000000000e+00 -1.47582363464135142e-06 
2.38345142907743789e-06 0.00000000000000000e+00 -4.94880997467923988e-07 
2.47823546654922670e-06 0.00000000000000000e+00 7.19860418366979244e-08 
1.64056801492312237e-06 0.00000000000000000e+00 4.66665797037466579e-07 
2.44267918645672357e-06 0.00000000000000000e+00 4.95012752940001709e-07 
-9.81817069742604421e-07 0.00000000000000000e+00 -1.22302374771938221e-08 
2.53666248021591256e-07 0.00000000000000000e+00 2.54462163340449039e-07 
-1.43999444958889379e-06 0.00000000000000000e+00 -3.82365614103944998e-07 
-1.55394814286438124e-06 0.00000000000000000e+00 -2.54186391992230712e-07 
1.19886885444015513e-06 0.00000000000000000e+00 -1.75038841709422031e-07 
-3.97254301344351740e-07 0.00000000000000000e+00 -3.55691908128497773e-07 
4.87822751957160126e-06 0.00000000000000000e+00 3.46286370782177514e-07 
2.97450898985507082e-06 0.00000000000000000e+00 9.76907630908588535e-08 
7.36313794000855149e-06 0.00000000000000000e+00 3.22060027120312724e-07 
6.28319491845875540e-06 0.00000000000000000e+00 4.49659722489969188e-07 
8.16221452080801407e-06 0.00000000000000000e+00 -4.34921938871798359e-07 
8.07610144998888060e-06 0.00000000000000000e+00 -1.98813793736191387e-08 
7.97703445584248456e-06 0.00000000000000000e+00 -6.16688533701018308e-07 
8.23385351259197691e-06 0.00000000000000000e+00 -7.05093449541365637e-07 
7.59053027214393982e-06 0.00000000000000000e+00 5.98281539127622777e-07 
7.66020827426870606e-06 0.00000000000000000e+00 -1.16050133186473380e-07 
6.82387837345041761e-06 0.00000000000000000e+00 9.01623047971474089e-07 
7.10628106257752672e-06 0.00000000000000000e+00 1.08895356608173125e-06 
5.22022253551821531e-06 0.00000000000000000e+00 -1.23293476505005233e-06 
6.34105967482062435e-06 0.00000000000000000e+00 -2.63997800226042860e-08 
2.59439733198528635e-06 0.00000000000000000e+00 2.61904336401512399e-07 
4.25805427651412157e-06 0.00000000000000000e+00 -1.61339184362677901e-06 
-8.47947079459371813e-08 0.00000000000000000e+00 1.87233259627313375e-06 
1.74336008950181016e-04 0.00000000000000000e+00 3.07677971830183091e-07 
1.37123010706724605e-04 0.00000000000000000e+00 2.75752531876861623e-07 
8.65092045012715700e-05 0.00000000000000000e+00 -1.64809320461743811e-07 
5.02606107961166434e-05 0.00000000000000000e+00 -3.68086645449522571e-07 
3.08292328185487679e-05 0.00000000000000000e+00 8.65944117152506842e-09 
2.20462095496888552e-05 0.00000000000000000e+00 5.00795573363177730e-07 
1.69066133190389548e-05 0.00000000000000000e+00 2.59173326420271337e-07 
1.28704615332897242e-05 0.00000000000000000e+00 -5.28387870135437959e-07 
9.76524902781744289e-06 0.00000000000000000e+00 -3.58259627520151925e-07 
7.10067530411599082e-06 0.00000000000000000e+00 9.41986046414153302e-07 
4.31508721669664795e-06 0.00000000000000000e+00 4.91376843882245304e-07 
1.50456761523272771e-06 0.00000000000000000e+00 -1.61123835095159061e-06 
1.80227916769445576e-04 0.00000000000000000e+00 -6.29055636785321774e-08 
1.55671903400637468e-04 0.00000000000000000e+00 4.04750577014683101e-07 
1.08990863624788706e-04 0.00000000000000000e+00 6.87595526903669950e-08 
6.70885879287966627e-05 0.00000000000000000e+00 -3.35217068487226386e-07 
3.99939005953034256e-05 0.00000000000000000e+00 -2.38999564223733710e-07 
2.53211675798800572e-05 0.00000000000000000e+00 2.98592119587522632e-07 
1.85069089154287461e-05 0.00000000000000000e+00 4.95378731349459306e-07 
1.47921849261367003e-05 0.00000000000000000e+00 -1.48989094659191753e-07 
1.16980956712026026e-05 0.00000000000000000e+00 -6.41638224782616922e-07 
8.42996746579357056e-06 0.00000000000000000e+00 2.86965613156131574e-07 
5.57252428826915702e-06 0.00000000000000000e+00 1.11593644981869626e-06 
2.88341543985447412e-06 0.00000000000000000e+00 -7.45513180476018068e-07 
4.55775624609797048e-07 0.00000000000000000e+00 -1.05209154191731315e-06 
-4.34667887453877865e-07 0.00000000000000000e+00 2.56395681134846985e-05 
-4.34667887536497459e-07 0.00000000000000000e+00 2.56395681134587284e-05 
6.15752027136338250e-07 0.00000000000000000e+00 2.56619907600677784e-05 
6.15752027235288639e-07 0.00000000000000000e+00 2.56619907601035503e-05 
1.33999492025567073e-08 0.00000000000000000e+00 4.57779037486730919e-05 
1.33999490851172832e-08 0.00000000000000000e+00 4.57779037487058077e-05 
-4.34667887404777059e-07 0.00000000000000000e+00 2.56395681133836576e-05 
6.15752027247112372e-07 0.00000000000000000e+00 2.56619907600551169e-05 
7.17413286735499168e-07 0.00000000000000000e+00 1.90911318637206117e-06 
7.17413286739337921e-07 0.00000000000000000e+00 1.90911318643537858e-06 
7.17413286761036576e-07 0.00000000000000000e+00 1.90911318637732294e-06 
-8.47947079696812089e-08 0.00000000000000000e+00 1.87233259619009572e-06 
-8.47947079678516177e-08 0.00000000000000000e+00 1.87233259621744133e-06 
-8.47947080010959668e-08 0.00000000000000000e+00 1.87233259622676547e-06 
2.59574507313765504e-06 0.00000000000000000e+00 4.35645391810264964e-07 
9.28203678453087096e-07 0.00000000000000000e+00 3.65164165536183863e-07 
-1.37350332350654343e-06 0.00000000000000000e+00 -1.46103370921694680e-07 
-1.02507133657110237e-06 0.00000000000000000e+00 -3.89857294492734103e-07 
2.05606012367827389e-06 0.00000000000000000e+00 -4.34715495310046955e-08 
5.65863626450866082e-06 0.00000000000000000e+00 4.23394923876946233e-07 
7.81036122898542730e-06 0.00000000000000000e+00 1.71903883784510720e-07 
8.19230621730431978e-06 0.00000000000000000e+00 -6.03603243788165894e-07 
7.77405704393890040e-06 0.00000000000000000e+00 -4.10798440218385427e-07 
7.34433772288712510e-06 0.00000000000000000e+00 9.09760732409709119e-07 
6.69019285704642815e-06 0.00000000000000000e+00 4.73046269507186000e-07 
4.59719057945157489e-06 0.00000000000000000e+00 -1.60694298842258019e-06 
2.47823546647985132e-06 0.00000000000000000e+00 7.19860417636207922e-08 
2.03054903510962340e-06 0.00000000000000000e+00 5.04265125475255893e-07 
-4.56450304358899432e-07 0.00000000000000000e+00 1.17058954308575739e-07 
-1.60406054903350922e-06 0.00000000000000000e+00 -3.36675028045690636e-07 
3.96537516062553560e-07 0.00000000000000000e+00 -2.82497523125469888e-07 
3.93916478423023421e-06 0.00000000000000000e+00 2.33245576801156895e-07 
6.84816461631401322e-06 0.00000000000000000e+00 4.17267573478071233e-07 
8.14022821716137902e-06 0.00000000000000000e+00 -2.30498496532004298e-07 
8.19375799637465951e-06 0.00000000000000000e+00 -7.15928170489514645e-07 
7.62418584676852432e-06 0.00000000000000000e+00 2.41135384198292886e-07 
6.92354738945378406e-06 0.00000000000000000e+00 1.10117016731290776e-06 
5.70719080148045927e-06 0.00000000000000000e+00 -7.44610662046531822e-07 
3.06710197593855348e-06 0.00000000000000000e+00 -1.04476880432553748e-06 
1.63547437365653593e-04 0.00000000000000000e+00 -7.42585191920072552e-07 
1.63547437365640583e-04 0.00000000000000000e+00 -7.42585191864252657e-07 
1.63547437365575829e-04 0.00000000000000000e+00 -7.42585191872800914e-07 
1.33999491513010496e-08 0.00000000000000000e+00 4.57779037486584687e-05 
-4.34667887485492523e-07 0.00000000000000000e+00 2.56395681134367056e-05 
6.15752027158378047e-07 0.00000000000000000e+00 2.56619907600452303e-05 
2.59574507314956093e-06 0.00000000000000000e+00 4.35645391760720525e-07 
9.28203678483675150e-07 0.00000000000000000e+00 3.65164165521841477e-07 
-1.37350332356153959e-06 0.00000000000000000e+00 -1.46103370901383677e-07 
-1.02507133657138422e-06 0.00000000000000000e+00 -3.89857294466842847e-07 
2.05606012368901935e-06 0.00000000000000000e+00 -4.34715495215496902e-08 
5.65863626453634525e-06 0.00000000000000000e+00 4.23394923889898849e-07 
7.81036122897097692e-06 0.00000000000000000e+00 1.71903883781882165e-07 
8.19230621728711484e-06 0.00000000000000000e+00 -6.03603243792642675e-07 
7.77405704395360828e-06 0.00000000000000000e+00 -4.10798440224442348e-07 
7.34433772290847033e-06 0.00000000000000000e+00 9.09760732425239468e-07 
6.69019285700613310e-06 0.00000000000000000e+00 4.73046269505314057e-07 
4.59719057943650618e-06 0.00000000000000000e+00 -1.60694298842918027e-06 
2.47823546659320465e-06 0.00000000000000000e+00 7.19860418267395698e-08 
2.03054903510665540e-06 0.00000000000000000e+00 5.04265125449850622e-07 
-4.56450304335209615e-07 0.00000000000000000e+00 1.17058954321319138e-07 
-1.60406054904260635e-06 0.00000000000000000e+00 -3.36675028004043720e-07 
3.96537516071787066e-07 0.00000000000000000e+00 -2.82497523111079646e-07 
3.93916478421530610e-06 0.00000000000000000e+00 2.33245576794423407e-07 
6.84816461631339319e-06 0.00000000000000000e+00 4.17267573466160997e-07 
8.14022821719990547e-06 0.00000000000000000e+00 -2.30498496523506546e-07 
8.19375799641646905e-06 0.00000000000000000e+00 -7.15928170501837916e-07 
7.62418584680532282e-06 0.00000000000000000e+00 2.41135384200066150e-07 
6.92354738954333578e-06 0.00000000000000000e+00 1.10117016731985005e-06 
5.70719080148236679e-06 0.00000000000000000e+00 -7.44610662046674971e-07 
3.06710197599331755e-06 0.00000000000000000e+00 -1.04476880430911351e-06 
1.63547437365671293e-04 0.00000000000000000e+00 -7.42585191834868237e-07 
1.74336008950210994e-04 0.00000000000000000e+00 3.07677971931831068e-07 
1.37123010706795593e-04 0.00000000000000000e+00 2.75752531871318428e-07 
8.65092045012097433e-05 0.00000000000000000e+00 -1.64809320463217755e-07 
5.02606107961774264e-05 0.00000000000000000e+00 -3.68086645444459219e-07 
3.08292328185637976e-05 0.00000000000000000e+00 8.65944119395439498e-09 
2.20462095496700985e-05 0.00000000000000000e+00 5.00795573361971132e-07 
1.69066133190503898e-05 0.00000000000000000e+00 2.59173326415690583e-07 