# vtk DataFile Version 2.0

ASCII

DATASET UNSTRUCTURED_GRID

POINTS 281 double 

0.00000000000000000e+00  6.00000000000000012e-03  8.68039800000000063e-03
0.00000000000000000e+00  6.00000000000000012e-03  2.15013699999999988e-02
0.00000000000000000e+00  5.99999699999999997e-03  3.38432499999999983e-02
0.00000000000000000e+00  6.00000000000000012e-03  4.61511800000000000e-02
0.00000000000000000e+00  5.99999399999999981e-03  5.84285100000000029e-02
0.00000000000000000e+00  5.99999899999999978e-03  7.03572799999999943e-02
0.00000000000000000e+00  6.00000000000000012e-03  7.56573400000000035e-02
0.00000000000000000e+00  6.00000000000000012e-03  1.52458600000000000e-02
0.00000000000000000e+00  5.99999899999999978e-03  2.76822099999999988e-02
0.00000000000000000e+00  5.99999899999999978e-03  3.99985900000000005e-02
0.00000000000000000e+00  5.99999800000000031e-03  5.22986000000000006e-02
0.00000000000000000e+00  5.99999800000000031e-03  6.44963600000000026e-02
0.00000000000000000e+00  3.00000000000000006e-03  3.07692300000000007e-03
0.00000000000000000e+00  3.00000000000000006e-03  1.04940499999999996e-02
0.00000000000000000e+00  3.00000000000000006e-03  7.41712199999999995e-03
0.00000000000000000e+00  3.00000000000000006e-03  2.30583799999999998e-02
0.00000000000000000e+00  3.00000000000000006e-03  1.99814599999999995e-02
0.00000000000000000e+00  2.99999900000000016e-03  3.53831699999999985e-02
0.00000000000000000e+00  2.99999900000000016e-03  3.23062400000000000e-02
0.00000000000000000e+00  3.00000000000000006e-03  4.76909699999999992e-02
0.00000000000000000e+00  3.00000000000000006e-03  4.46140500000000023e-02
0.00000000000000000e+00  2.99999699999999991e-03  5.99834799999999987e-02
0.00000000000000000e+00  2.99999699999999991e-03  5.69065600000000019e-02
0.00000000000000000e+00  2.99999900000000016e-03  7.21017199999999941e-02
0.00000000000000000e+00  2.99999900000000016e-03  6.90247900000000025e-02
0.00000000000000000e+00  3.00000000000000006e-03  7.78286700000000026e-02
0.00000000000000000e+00  3.00000000000000006e-03  7.47517500000000057e-02
0.00000000000000000e+00  5.99999899999999978e-03  7.30073100000000058e-02
0.00000000000000000e+00  6.00000000000000012e-03  7.78286700000000026e-02
0.00000000000000000e+00  8.99999999999999932e-03  7.47517500000000057e-02
0.00000000000000000e+00  8.99999999999999932e-03  7.78286700000000026e-02
0.00000000000000000e+00  8.99999999999999932e-03  3.07692300000000007e-03
0.00000000000000000e+00  8.99999999999999932e-03  7.41712199999999995e-03
0.00000000000000000e+00  8.99999999999999932e-03  1.04940499999999996e-02
0.00000000000000000e+00  8.99999999999999932e-03  1.99814599999999995e-02
0.00000000000000000e+00  8.99999999999999932e-03  2.30583799999999998e-02
0.00000000000000000e+00  8.99999899999999985e-03  3.23062400000000000e-02
0.00000000000000000e+00  8.99999899999999985e-03  3.53831699999999985e-02
0.00000000000000000e+00  8.99999999999999932e-03  4.46140500000000023e-02
0.00000000000000000e+00  8.99999999999999932e-03  4.76909699999999992e-02
0.00000000000000000e+00  8.99999699999999916e-03  5.69065600000000019e-02
0.00000000000000000e+00  8.99999699999999916e-03  5.99834799999999987e-02
0.00000000000000000e+00  8.99999899999999985e-03  6.90247900000000025e-02
0.00000000000000000e+00  8.99999899999999985e-03  7.21017199999999941e-02
0.00000000000000000e+00  6.00000000000000012e-03  4.34019900000000031e-03
0.00000000000000000e+00  3.00000000000000006e-03  1.37767800000000006e-02
0.00000000000000000e+00  6.00000000000000012e-03  1.19631300000000006e-02
0.00000000000000000e+00  3.00000000000000006e-03  1.68536999999999992e-02
0.00000000000000000e+00  6.00000000000000012e-03  1.83736200000000002e-02
0.00000000000000000e+00  5.99999800000000031e-03  3.07627299999999985e-02
0.00000000000000000e+00  3.00000000000000006e-03  2.92257200000000002e-02
0.00000000000000000e+00  3.00000000000000006e-03  2.61487999999999998e-02
0.00000000000000000e+00  8.99999999999999932e-03  2.92257200000000002e-02
0.00000000000000000e+00  6.00000000000000012e-03  4.30748800000000029e-02
0.00000000000000000e+00  2.99999900000000016e-03  4.15377600000000000e-02
0.00000000000000000e+00  2.99999900000000016e-03  3.84608300000000014e-02
0.00000000000000000e+00  8.99999899999999985e-03  4.15377600000000000e-02
0.00000000000000000e+00  5.99999599999999963e-03  5.53635499999999975e-02
0.00000000000000000e+00  2.99999900000000016e-03  5.38416099999999981e-02
0.00000000000000000e+00  2.99999900000000016e-03  5.07646799999999995e-02
0.00000000000000000e+00  8.99999899999999985e-03  5.38416099999999981e-02
0.00000000000000000e+00  5.99999800000000031e-03  6.74268199999999984e-02
0.00000000000000000e+00  2.99999900000000016e-03  6.60943300000000067e-02
0.00000000000000000e+00  2.99999900000000016e-03  6.30174099999999959e-02
0.00000000000000000e+00  8.99999899999999985e-03  6.60943300000000067e-02
0.00000000000000000e+00  5.99999899999999978e-03  4.92248900000000003e-02
0.00000000000000000e+00  8.99999999999999932e-03  1.68536999999999992e-02
0.00000000000000000e+00  5.99999899999999978e-03  2.45917899999999988e-02
0.00000000000000000e+00  8.99999999999999932e-03  2.61487999999999998e-02
0.00000000000000000e+00  8.99999999999999932e-03  1.37767800000000006e-02
0.00000000000000000e+00  5.99999800000000031e-03  3.69209200000000029e-02
0.00000000000000000e+00  8.99999899999999985e-03  3.84608300000000014e-02
0.00000000000000000e+00  8.99999899999999985e-03  5.07646799999999995e-02
0.00000000000000000e+00  5.99999599999999963e-03  6.14624299999999985e-02
0.00000000000000000e+00  8.99999899999999985e-03  6.30174099999999959e-02
1.20000000000000002e-02  1.20000000000000002e-02  8.00000000000000017e-02
0.00000000000000000e+00  0.00000000000000000e+00  8.00000000000000017e-02
1.20000000000000002e-02  6.00000000000000012e-03  0.00000000000000000e+00
1.20000000000000002e-02  3.00000000000000006e-03  0.00000000000000000e+00
1.20000000000000002e-02  8.99999999999999932e-03  0.00000000000000000e+00
1.20000000000000002e-02  0.00000000000000000e+00  8.00000000000000017e-02
1.20000000000000002e-02  0.00000000000000000e+00  0.00000000000000000e+00
0.00000000000000000e+00  1.20000000000000002e-02  0.00000000000000000e+00
1.20000000000000002e-02  5.99999899999999978e-03  8.68039699999999942e-03
1.20000000000000002e-02  5.99999899999999978e-03  1.52458600000000000e-02
1.20000000000000002e-02  5.99999899999999978e-03  2.15013699999999988e-02
1.20000000000000002e-02  6.00000000000000012e-03  2.76822099999999988e-02
1.20000000000000002e-02  5.99999899999999978e-03  3.38432399999999967e-02
1.20000000000000002e-02  5.99999800000000031e-03  3.99985900000000005e-02
1.20000000000000002e-02  5.99999699999999997e-03  4.61511800000000000e-02
1.20000000000000002e-02  5.99999300000000034e-03  5.22986100000000023e-02
1.20000000000000002e-02  5.99998599999999969e-03  5.84285400000000010e-02
1.20000000000000002e-02  5.99997800000000043e-03  6.44963800000000059e-02
1.20000000000000002e-02  5.99997500000000027e-03  7.03572999999999976e-02
1.20000000000000002e-02  5.99997500000000027e-03  7.56573600000000068e-02
1.20000000000000002e-02  3.00000000000000006e-03  3.07692300000000007e-03
1.20000000000000002e-02  3.00000000000000006e-03  7.41712099999999961e-03
1.20000000000000002e-02  3.00000000000000006e-03  1.04940399999999996e-02
1.20000000000000002e-02  2.99999900000000016e-03  1.37767800000000006e-02
1.20000000000000002e-02  2.99999900000000016e-03  1.68536999999999992e-02
1.20000000000000002e-02  5.99999899999999978e-03  1.19631300000000006e-02
1.20000000000000002e-02  3.00000000000000006e-03  1.99814500000000013e-02
1.20000000000000002e-02  3.00000000000000006e-03  2.30583799999999998e-02
1.20000000000000002e-02  5.99999899999999978e-03  1.83736099999999986e-02
1.20000000000000002e-02  3.00000000000000006e-03  2.61487999999999998e-02
1.20000000000000002e-02  3.00000000000000006e-03  2.92257200000000002e-02
1.20000000000000002e-02  5.99999899999999978e-03  2.45917899999999988e-02
1.20000000000000002e-02  3.00000000000000006e-03  3.23062299999999983e-02
1.20000000000000002e-02  3.00000000000000006e-03  3.53831599999999968e-02
1.20000000000000002e-02  5.99999899999999978e-03  3.07627200000000003e-02
1.20000000000000002e-02  2.99999900000000016e-03  3.84608300000000014e-02
1.20000000000000002e-02  2.99999900000000016e-03  4.15377499999999983e-02
1.20000000000000002e-02  5.99999899999999978e-03  3.69209100000000012e-02
1.20000000000000002e-02  2.99999799999999981e-03  4.46140500000000023e-02
1.20000000000000002e-02  2.99999799999999981e-03  4.76909800000000009e-02
1.20000000000000002e-02  5.99999800000000031e-03  4.30748800000000029e-02
1.20000000000000002e-02  2.99999699999999991e-03  5.07646900000000012e-02
1.20000000000000002e-02  2.99999699999999991e-03  5.38416099999999981e-02
1.20000000000000002e-02  5.99999500000000015e-03  4.92249000000000020e-02
1.20000000000000002e-02  2.99999299999999984e-03  5.69065799999999983e-02
1.20000000000000002e-02  2.99999299999999984e-03  5.99835000000000021e-02
1.20000000000000002e-02  5.99999000000000018e-03  5.53635800000000025e-02
1.20000000000000002e-02  2.99998900000000021e-03  6.30174200000000045e-02
1.20000000000000002e-02  2.99998900000000021e-03  6.60943499999999962e-02
1.20000000000000002e-02  5.99998200000000006e-03  6.14624599999999965e-02
1.20000000000000002e-02  2.99998799999999987e-03  6.90248100000000059e-02
1.20000000000000002e-02  2.99998799999999987e-03  7.21017300000000028e-02
1.20000000000000002e-02  5.99997700000000009e-03  6.74268400000000018e-02
1.20000000000000002e-02  2.99998699999999997e-03  7.47517600000000004e-02
1.20000000000000002e-02  2.99998699999999997e-03  7.78286799999999973e-02
1.20000000000000002e-02  5.99998700000000003e-03  7.78286799999999973e-02
1.20000000000000002e-02  5.99997500000000027e-03  7.30073299999999953e-02
1.20000000000000002e-02  8.99998699999999922e-03  7.78286799999999973e-02
1.20000000000000002e-02  8.99999999999999932e-03  3.07692300000000007e-03
[...]
POINT_DATA 281

SCALARS Rank unsigned_int
LOOKUP_TABLE default
0 0 0 0 0 0 0 0 0 0 0 0 0 0 0 0 0 0 0 0 0 0 0 0 0 0 0 0 0 0 0 0 0 0 0 0 0 0 0 0 0 0 0 0 0 0 0 0 0 0 0 0 0 0 0 0 0 0 0 0 0 0 0 0 0 0 0 0 0 0 0 0 0 0 0 0 0 0 0 0 0 0 0 0 0 0 0 0 0 0 0 0 0 0 0 0 0 0 0 0 0 0 0 0 0 0 0 0 0 0 0 0 0 0 0 0 0 0 0 0 0 0 0 0 0 0 0 0 0 0 0 0 0 0 0 0 0 0 0 0 0 0 0 0 0 0 0 0 0 0 0 0 0 0 0 0 0 0 0 0 0 0 0 0 0 0 0 0 0 0 0 0 0 0 0 0 0 0 0 0 0 0 0 0 0 0 0 0 0 0 0 0 0 0 0 0 0 0 0 0 0 0 0 0 0 0 0 0 0 0 0 0 0 0 0 0 0 0 0 0 0 0 0 0 0 0 0 0 0 0 0 0 0 0 0 0 0 0 0 0 0 0 0 0 0 0 0 0 0 0 0 0 0 0 0 0 0 0 0 0 0 0 0 0 0 0 0 0 0 0 0 0 0 0 0 0 0 0 0 0 0 

VECTORS Forces0 double
2.95249842294770838e-02 0.00000000000000000e+00 -1.68917473754572078e-03 
2.63640810311570536e-02 0.00000000000000000e+00 -1.27220791777801507e-03 
1.48569195538272320e-02 0.00000000000000000e+00 -8.27441462632262545e-05 
3.21263863285627680e-03 0.00000000000000000e+00 1.13228616576479307e-04 
6.64941277704373144e-05 0.00000000000000000e+00 2.67848605789211804e-05 
1.09536364916473601e-04 0.00000000000000000e+00 1.03728818284495530e-06 
3.21167763287300359e-05 0.00000000000000000e+00 -6.30917322347444649e-06 
2.91952225962774474e-02 0.00000000000000000e+00 -1.69607682135712156e-03 
2.14054213561163907e-02 0.00000000000000000e+00 -6.04909760083677684e-04 
8.27128515309354453e-03 0.00000000000000000e+00 1.12755082789465699e-04 
7.49488680209425221e-04 0.00000000000000000e+00 6.03164586036326658e-05 
6.47285453309360555e-05 0.00000000000000000e+00 1.20294473849431918e-05 
2.68529575500319924e-02 0.00000000000000000e+00 -1.33043731099654629e-03 
3.03047501909545873e-02 0.00000000000000000e+00 -1.80761312642307363e-03 
2.91120115062794386e-02 0.00000000000000000e+00 -1.61648470564119875e-03 
2.48129009029151061e-02 0.00000000000000000e+00 -1.07463139967014566e-03 
2.77519649413946433e-02 0.00000000000000000e+00 -1.44847084771035383e-03 
1.35369846352960416e-02 0.00000000000000000e+00 -3.42053524746307055e-06 
1.63013742901547860e-02 0.00000000000000000e+00 -1.85269702213179617e-04 
2.34038454626323347e-03 0.00000000000000000e+00 9.83985008934053549e-05 
4.26972289468473005e-03 0.00000000000000000e+00 1.26138460264588111e-04 
4.58619946611828726e-05 0.00000000000000000e+00 2.29349615940960476e-05 
1.28000282378209080e-04 0.00000000000000000e+00 3.18405805869012145e-05 
9.67053835673419677e-05 0.00000000000000000e+00 -2.07162448831170102e-06 
1.10502168337969425e-04 0.00000000000000000e+00 3.60669710671233312e-06 
-3.06816337982415910e-05 0.00000000000000000e+00 -6.73148572129758219e-06 
5.30221779175112104e-05 0.00000000000000000e+00 -5.59225881821493050e-06 
8.49550188361899885e-05 0.00000000000000000e+00 -3.47877206323820391e-06 
-3.06816338129967152e-05 0.00000000000000000e+00 -6.73148572020943623e-06 
5.30221779250173589e-05 0.00000000000000000e+00 -5.59225881903702680e-06 
-3.06816338079616803e-05 0.00000000000000000e+00 -6.73148572107952202e-06 
2.68529575500248523e-02 0.00000000000000000e+00 -1.33043731099657643e-03 
2.91120115062925913e-02 0.00000000000000000e+00 -1.61648470564197482e-03 
3.03047501909537893e-02 0.00000000000000000e+00 -1.80761312642214078e-03 
2.77519649413958472e-02 0.00000000000000000e+00 -1.44847084771019836e-03 
2.48129009029157167e-02 0.00000000000000000e+00 -1.07463139967123441e-03 
1.63013742901563265e-02 0.00000000000000000e+00 -1.85269702213338670e-04 
1.35369846352867869e-02 0.00000000000000000e+00 -3.42053524762027986e-06 
4.26972289467430436e-03 0.00000000000000000e+00 1.26138460265730698e-04 
2.34038454626353531e-03 0.00000000000000000e+00 9.83985008923765012e-05 
1.28000282382855537e-04 0.00000000000000000e+00 3.18405805860054466e-05 
4.58619946727803664e-05 0.00000000000000000e+00 2.29349615947762761e-05 
1.10502168349692687e-04 0.00000000000000000e+00 3.60669710551529260e-06 
9.67053835512207487e-05 0.00000000000000000e+00 -2.07162448857315638e-06 
2.81613250460429135e-02 0.00000000000000000e+00 -1.45947937357431630e-03 
2.99802782424296969e-02 0.00000000000000000e+00 -1.79212682013288587e-03 
3.07365836175970512e-02 0.00000000000000000e+00 -1.87185785582891879e-03 
2.85891718492532754e-02 0.00000000000000000e+00 -1.60677651012606582e-03 
2.82289948894951168e-02 0.00000000000000000e+00 -1.53673648314187040e-03 
1.79630127935442412e-02 0.00000000000000000e+00 -3.10827085463800381e-04 
1.97937825670203016e-02 0.00000000000000000e+00 -4.56096833000055291e-04 
2.24152442357459999e-02 0.00000000000000000e+00 -7.40756973913829758e-04 
1.97937825670179562e-02 0.00000000000000000e+00 -4.56096832999207120e-04 
5.43114478313563680e-03 0.00000000000000000e+00 1.30621886864277934e-04 
6.74139463588017962e-03 0.00000000000000000e+00 1.25736812789881207e-04 
1.00225194097084622e-02 0.00000000000000000e+00 8.96123702236710783e-05 
6.74139463587545510e-03 0.00000000000000000e+00 1.25736812789738959e-04 
2.51255241191173837e-04 0.00000000000000000e+00 3.90838685991370249e-05 
4.53233429364517182e-04 0.00000000000000000e+00 4.86773478550760240e-05 
1.13657390802334216e-03 0.00000000000000000e+00 7.17615926369779232e-05 
4.53233429363141547e-04 0.00000000000000000e+00 4.86773478551888895e-05 
1.00905084084172307e-04 0.00000000000000000e+00 6.62586615376914561e-06 
8.57884989538691467e-05 0.00000000000000000e+00 9.00476200605631095e-06 
4.85169790239382208e-05 0.00000000000000000e+00 1.51804233741033573e-05 
8.57884989453620628e-05 0.00000000000000000e+00 9.00476200514536428e-06 
1.65404461207107516e-03 0.00000000000000000e+00 8.42188438816957497e-05 
2.85891718492448897e-02 0.00000000000000000e+00 -1.60677651012415307e-03 
2.34850754700139802e-02 0.00000000000000000e+00 -8.95713255844297700e-04 
2.24152442357440987e-02 0.00000000000000000e+00 -7.40756973914684326e-04 
2.99802782424423674e-02 0.00000000000000000e+00 -1.79212682013510805e-03 
1.18907496446309120e-02 0.00000000000000000e+00 5.28159709763578310e-05 
1.00225194097033638e-02 0.00000000000000000e+00 8.96123702242627274e-05 
1.13657390802558342e-03 0.00000000000000000e+00 7.17615926378702216e-05 
4.01383402806093618e-05 0.00000000000000000e+00 1.89843529573360741e-05 
4.85169790304269539e-05 0.00000000000000000e+00 1.51804233748955025e-05 
-4.54767225268199187e-04 0.00000000000000000e+00 2.48512685769905185e-05 
-1.01967022936836087e-04 0.00000000000000000e+00 -4.48116528331678008e-06 
-2.30989466862770599e-03 0.00000000000000000e+00 2.15245254141039813e-04 
-2.30989466860860148e-03 0.00000000000000000e+00 2.15245254141128013e-04 
-2.30989466861876522e-03 0.00000000000000000e+00 2.15245254140833706e-04 
-4.54767225265417557e-04 0.00000000000000000e+00 2.48512685778432165e-05 
-2.30989466862040107e-03 0.00000000000000000e+00 2.15245254141983666e-04 
2.27705610636199478e-02 0.00000000000000000e+00 -9.67452043267484369e-04 
1.88651229113093779e-04 0.00000000000000000e+00 -4.76653192029070113e-05 
8.59250220798238079e-04 0.00000000000000000e+00 -8.93772672045038794e-05 
7.55738386988264398e-04 0.00000000000000000e+00 -3.69862494182474771e-05 
3.74647922519869610e-04 0.00000000000000000e+00 2.45303049640364497e-05 
-6.31694143721479406e-05 0.00000000000000000e+00 3.90264755863159433e-05 
-4.52058194588205006e-04 0.00000000000000000e+00 6.83022306146168882e-06 
-5.50376522172951244e-04 0.00000000000000000e+00 -3.02416539366858454e-05 
-2.37826592309641746e-04 0.00000000000000000e+00 -3.73089436695589607e-05 
2.27436090351556880e-04 0.00000000000000000e+00 -1.72648724153198321e-05 
5.06530450635234468e-04 0.00000000000000000e+00 3.95670577666036250e-06 
4.42689098695274463e-04 0.00000000000000000e+00 1.06312536131107406e-05 
7.47485572448560224e-05 0.00000000000000000e+00 1.22355227834161568e-05 
-1.27990505301231851e-03 0.00000000000000000e+00 9.93486198099405391e-05 
-7.00463293076488444e-05 0.00000000000000000e+00 -2.34095283540726231e-05 
4.84047040692771996e-04 0.00000000000000000e+00 -7.31356954414863909e-05 
7.99059369857813939e-04 0.00000000000000000e+00 -9.15316193451663410e-05 
8.82132115950852533e-04 0.00000000000000000e+00 -8.14701992977345427e-05 
6.57880400851786995e-04 0.00000000000000000e+00 -8.55761120641059013e-05 
8.21766182473296380e-04 0.00000000000000000e+00 -5.37827374675255447e-05 
6.73478478570412389e-04 0.00000000000000000e+00 -1.93977517406747421e-05 
8.66667914047370455e-04 0.00000000000000000e+00 -6.95112345897378050e-05 
4.79468782634939370e-04 0.00000000000000000e+00 1.23447906656690072e-05 
2.67288868969616552e-04 0.00000000000000000e+00 3.35383953689528307e-05 
5.80076833909542555e-04 0.00000000000000000e+00 -2.69870377995328935e-06 
4.70158196185993388e-05 0.00000000000000000e+00 4.07754513346090855e-05 
-1.71316082575248611e-04 0.00000000000000000e+00 3.42088121709955179e-05 
1.57535851884016333e-04 0.00000000000000000e+00 3.89388748083835959e-05 
-3.70206059691622128e-04 0.00000000000000000e+00 1.73512941602452586e-05 
-5.15754699772687925e-04 0.00000000000000000e+00 -3.82032040382464765e-06 
-2.74767355001327089e-04 0.00000000000000000e+00 2.66737691678767231e-05 
-5.67570123366880285e-04 0.00000000000000000e+00 -2.29663431588084335e-05 
-5.06184382845271778e-04 0.00000000000000000e+00 -3.53378155468263579e-05 
-5.54949605410648482e-04 0.00000000000000000e+00 -1.40525278847194881e-05 
-3.45203185509869274e-04 0.00000000000000000e+00 -3.88042255528103189e-05 
-1.20849676654888880e-04 0.00000000000000000e+00 -3.39145303101872980e-05 
-4.35837591774464888e-04 0.00000000000000000e+00 -3.82405435548180376e-05 
1.17546785314540450e-04 0.00000000000000000e+00 -2.34225525585526958e-05 
3.25902787232496135e-04 0.00000000000000000e+00 -1.09496873281780422e-05 
-7.03967647794170902e-07 0.00000000000000000e+00 -2.91937667144936178e-05 
4.67216388019763191e-04 0.00000000000000000e+00 -9.24297860504602995e-08 
5.24106482013395329e-04 0.00000000000000000e+00 7.18943205973946111e-06 
4.04801642697313110e-04 0.00000000000000000e+00 -5.29848246661104946e-06 
4.88464145811373695e-04 0.00000000000000000e+00 1.02161630303939809e-05 
3.54627260284107572e-04 0.00000000000000000e+00 1.07504662056322965e-05 
5.19217699171720939e-04 0.00000000000000000e+00 9.00088273030581141e-06 
1.59146112185761370e-04 0.00000000000000000e+00 1.14348710400586091e-05 
-1.63087842480110840e-04 0.00000000000000000e+00 1.63148693936281949e-05 
-1.63087842457418922e-04 0.00000000000000000e+00 1.63148693946188304e-05 
2.96237662122846219e-04 0.00000000000000000e+00 1.08154630289304210e-05 
-1.63087842485024444e-04 0.00000000000000000e+00 1.63148693942355378e-05 
-1.27990505299882150e-03 0.00000000000000000e+00 9.93486198092508239e-05 
4.84047040699459355e-04 0.00000000000000000e+00 -7.31356954427107668e-05 
-7.00463292993889586e-05 0.00000000000000000e+00 -2.34095283554689400e-05 
8.82132115964437153e-04 0.00000000000000000e+00 -8.14701992983581216e-05 
7.99059369871872138e-04 0.00000000000000000e+00 -9.15316193458630493e-05 
6.73478478571802770e-04 0.00000000000000000e+00 -1.93977517410805928e-05 
8.21766182465680944e-04 0.00000000000000000e+00 -5.37827374678179337e-05 
2.67288868965857406e-04 0.00000000000000000e+00 3.35383953698079680e-05 
4.79468782640646610e-04 0.00000000000000000e+00 1.23447906663332911e-05 
-1.71316082574964984e-04 0.00000000000000000e+00 3.42088121718094081e-05 
4.70158196113672767e-05 0.00000000000000000e+00 4.07754513355196933e-05 
-5.15754699777272040e-04 0.00000000000000000e+00 -3.82032040360067858e-06 
-3.70206059697147873e-04 0.00000000000000000e+00 1.73512941599550448e-05 
-5.06184382839021461e-04 0.00000000000000000e+00 -3.53378155472297353e-05 
-5.67570123363650121e-04 0.00000000000000000e+00 -2.29663431582839778e-05 
-1.20849676654780026e-04 0.00000000000000000e+00 -3.39145303100296279e-05 
-3.45203185509871226e-04 0.00000000000000000e+00 -3.88042255528705192e-05 
3.25902787234632447e-04 0.00000000000000000e+00 -1.09496873289300720e-05 
1.17546785307166574e-04 0.00000000000000000e+00 -2.34225525591775216e-05 
5.24106482001743192e-04 0.00000000000000000e+00 7.18943205966570826e-06 
4.67216388022756457e-04 0.00000000000000000e+00 -9.24297859294904421e-08 
3.54627260282673823e-04 0.00000000000000000e+00 1.07504662063641058e-05 
4.88464145811679006e-04 0.00000000000000000e+00 1.02161630292183534e-05 
-8.81553408792635248e-04 0.00000000000000000e+00 5.76767985374594788e-05 
1.59146112179386261e-04 0.00000000000000000e+00 1.14348710392172140e-05 
-1.01967022927996369e-04 0.00000000000000000e+00 -4.48116528392993707e-06 
2.87984403707751274e-02 0.00000000000000000e+00 -1.55489693658909540e-03 
3.06725524798255877e-02 0.00000000000000000e+00 -1.86693190772162666e-03 
2.82110703019687083e-02 0.00000000000000000e+00 -1.53280890371148507e-03 
2.34669123700016712e-02 0.00000000000000000e+00 -8.93160569346557035e-04 
1.79555356704509776e-02 0.00000000000000000e+00 -3.10250755155655217e-04 
1.18881319733043014e-02 0.00000000000000000e+00 5.28795866740087913e-05 
5.42953875607113216e-03 0.00000000000000000e+00 1.30623232127628032e-04 
1.65175653491831916e-03 0.00000000000000000e+00 8.41676433803860045e-05 
2.49052862820545466e-04 0.00000000000000000e+00 3.89679892817868350e-05 
4.02123571534513793e-05 0.00000000000000000e+00 1.87858700082308466e-05 
1.03305098095833676e-04 0.00000000000000000e+00 6.14907225160855289e-06 
7.09844194999427550e-05 0.00000000000000000e+00 -4.60396173780841068e-06 
2.68529575500254629e-02 0.00000000000000000e+00 -1.33043731099717556e-03 
2.97425063895772786e-02 0.00000000000000000e+00 -1.72412869604746956e-03 
2.91300737240320073e-02 0.00000000000000000e+00 -1.68743624204899982e-03 
2.63260508597050642e-02 0.00000000000000000e+00 -1.26745381519439136e-03 
2.13978106418022639e-02 0.00000000000000000e+00 -6.04020995917086464e-04 
1.48543751307101297e-02 0.00000000000000000e+00 -8.25727755303702778e-05 
8.26977440625054419e-03 0.00000000000000000e+00 1.12771231915324301e-04 
3.21095705380363512e-03 0.00000000000000000e+00 1.13203485571689011e-04 
7.47456708377020312e-04 0.00000000000000000e+00 6.02451838162227851e-05 
6.56925313009572163e-05 0.00000000000000000e+00 2.66936377011048499e-05 
6.62343246548162444e-05 0.00000000000000000e+00 1.17925965840058274e-05 
1.07640825424995328e-04 0.00000000000000000e+00 2.68863701991295382e-07 
-2.91728611557812681e-06 0.00000000000000000e+00 -6.82117390286947127e-06 
-2.03363754468162124e-04 0.00000000000000000e+00 -1.49295699276760560e-07 
-2.03363754461702664e-04 0.00000000000000000e+00 -1.49295698596869236e-07 
-2.35918241745287363e-04 0.00000000000000000e+00 1.03362224427935743e-05 
-2.35918241748058583e-04 0.00000000000000000e+00 1.03362224420045461e-05 
-2.00301692604322587e-04 0.00000000000000000e+00 4.55650023830009756e-06 
-2.00301692592813130e-04 0.00000000000000000e+00 4.55650023781953850e-06 
-2.03363754439417105e-04 0.00000000000000000e+00 -1.49295698246453400e-07 
-2.35918241763476806e-04 0.00000000000000000e+00 1.03362224440853741e-05 
-4.54767225283540214e-04 0.00000000000000000e+00 2.48512685768629351e-05 
-4.54767225260953247e-04 0.00000000000000000e+00 2.48512685756685508e-05 
-4.54767225273767649e-04 0.00000000000000000e+00 2.48512685765655926e-05 
-1.01967022962476167e-04 0.00000000000000000e+00 -4.48116528506864751e-06 
-1.01967022965375757e-04 0.00000000000000000e+00 -4.48116528384023289e-06 
-1.01967022962207285e-04 0.00000000000000000e+00 -4.48116528326792322e-06 
-3.72653009442600860e-04 0.00000000000000000e+00 6.17441653920882886e-06 
6.90500497364793914e-04 0.00000000000000000e+00 -8.74618163108049305e-05 
8.64882203113106389e-04 0.00000000000000000e+00 -6.87177588087402205e-05 
5.78584452439816883e-04 0.00000000000000000e+00 -2.45340538540448326e-06 
1.57068769485611576e-04 0.00000000000000000e+00 3.89542348184630953e-05 
-2.74908759951484260e-04 0.00000000000000000e+00 2.66617069667289609e-05 
-5.54984721246071125e-04 0.00000000000000000e+00 -1.40653709817006306e-05 
-4.35527110639296288e-04 0.00000000000000000e+00 -3.82471615095521871e-05 
9.47378201016581983e-07 0.00000000000000000e+00 -2.91207952976278116e-05 
4.08374295038813995e-04 0.00000000000000000e+00 -5.02419309079163469e-06 
5.16039672882718874e-04 0.00000000000000000e+00 9.27094713099198496e-06 
2.34514581590167801e-04 0.00000000000000000e+00 1.09970945011418716e-05 
-1.27990505299222001e-03 0.00000000000000000e+00 9.93486198083474666e-05 
2.87371633256853663e-04 0.00000000000000000e+00 -5.65352963699492254e-05 
8.62823945467825317e-04 0.00000000000000000e+00 -8.89000587838440501e-05 
7.53922236478784982e-04 0.00000000000000000e+00 -3.65658584898049944e-05 
3.73948619852620652e-04 0.00000000000000000e+00 2.46005241506286127e-05 
-6.33768208169517994e-05 0.00000000000000000e+00 3.90201473870195362e-05 
-4.52125860683496911e-04 0.00000000000000000e+00 6.82039441776750791e-06 
-5.50322826565986887e-04 0.00000000000000000e+00 -3.02524854387938523e-05 
-2.37157833600826055e-04 0.00000000000000000e+00 -3.72942152084363164e-05 
2.29689473666932706e-04 0.00000000000000000e+00 -1.71296734851341860e-05 
5.08764149014058129e-04 0.00000000000000000e+00 4.23928418808022761e-06 
4.24853339286416338e-04 0.00000000000000000e+00 1.06865407315557677e-05 
-5.74589478080602989e-05 0.00000000000000000e+00 1.41591604088884336e-05 
2.27705610636335792e-02 0.00000000000000000e+00 -9.67452043268127518e-04 
2.27705610636473599e-02 0.00000000000000000e+00 -9.67452043267709558e-04 
2.27705610636301965e-02 0.00000000000000000e+00 -9.67452043268075585e-04 
-2.00301692605279937e-04 0.00000000000000000e+00 4.55650023844758971e-06 
-2.03363754440080311e-04 0.00000000000000000e+00 -1.49295697215084060e-07 
-2.35918241753105761e-04 0.00000000000000000e+00 1.03362224433331275e-05 
-3.72653009432955798e-04 0.00000000000000000e+00 6.17441653945930667e-06 
6.90500497370503757e-04 0.00000000000000000e+00 -8.74618163108964100e-05 
8.64882203110574994e-04 0.00000000000000000e+00 -6.87177588084996903e-05 
5.78584452445095212e-04 0.00000000000000000e+00 -2.45340538472991977e-06 
1.57068769488397108e-04 0.00000000000000000e+00 3.89542348187621725e-05 
-2.74908759950904429e-04 0.00000000000000000e+00 2.66617069664233921e-05 
-5.54984721251901747e-04 0.00000000000000000e+00 -1.40653709818636946e-05 
-4.35527110635976461e-04 0.00000000000000000e+00 -3.82471615092382563e-05 
9.47378205073232831e-07 0.00000000000000000e+00 -2.91207952974312729e-05 
4.08374295033052978e-04 0.00000000000000000e+00 -5.02419309008796038e-06 
5.16039672881014508e-04 0.00000000000000000e+00 9.27094713101258480e-06 
2.34514581599912610e-04 0.00000000000000000e+00 1.09970945002367526e-05 
-1.27990505299191903e-03 0.00000000000000000e+00 9.93486198096235726e-05 
2.87371633250956470e-04 0.00000000000000000e+00 -5.65352963701826541e-05 
8.62823945476549675e-04 0.00000000000000000e+00 -8.89000587833811229e-05 
7.53922236478017801e-04 0.00000000000000000e+00 -3.65658584896153539e-05 
3.73948619849476466e-04 0.00000000000000000e+00 2.46005241508595884e-05 
-6.33768208261234993e-05 0.00000000000000000e+00 3.90201473869590445e-05 
-4.52125860684144179e-04 0.00000000000000000e+00 6.82039441809355461e-06 
-5.50322826557513955e-04 0.00000000000000000e+00 -3.02524854387942589e-05 
-2.37157833596685270e-04 0.00000000000000000e+00 -3.72942152085798919e-05 
2.29689473675157463e-04 0.00000000000000000e+00 -1.71296734843916973e-05 
5.08764149006157330e-04 0.00000000000000000e+00 4.23928418791548309e-06 
4.24853339312120603e-04 0.00000000000000000e+00 1.06865407311082903e-05 
-5.74589477978601249e-05 0.00000000000000000e+00 1.41591604090549942e-05 
2.27705610636351023e-02 0.00000000000000000e+00 -9.67452043269065678e-04 
2.87984403707738888e-02 0.00000000000000000e+00 -1.55489693658860577e-03 
3.06725524798139026e-02 0.00000000000000000e+00 -1.86693190772164140e-03 
2.82110703019754945e-02 0.00000000000000000e+00 -1.53280890371210090e-03 
2.34669123699934000e-02 0.00000000000000000e+00 -8.93160569345900226e-04 
1.79555356704424740e-02 0.00000000000000000e+00 -3.10250755155563494e-04 
1.18881319733093547e-02 0.00000000000000000e+00 5.28795866742764808e-05 
5.42953875605973243e-03 0.00000000000000000e+00 1.30623232127265908e-04 