# vtk DataFile Version 2.0

ASCII

DATASET UNSTRUCTURED_GRID

POINTS 281 double 

0.00000000000000000e+00  6.00000000000000012e-03  8.68039800000000063e-03
0.00000000000000000e+00  6.00000000000000012e-03  2.15013699999999988e-02
0.00000000000000000e+00  5.99999699999999997e-03  3.38432499999999983e-02
0.00000000000000000e+00  6.00000000000000012e-03  4.61511800000000000e-02
0.00000000000000000e+00  5.99999399999999981e-03  5.84285100000000029e-02
0.00000000000000000e+00  5.99999899999999978e-03  7.03572799999999943e-02
0.00000000000000000e+00  6.00000000000000012e-03  7.56573400000000035e-02
0.00000000000000000e+00  6.00000000000000012e-03  1.52458600000000000e-02
0.00000000000000000e+00  5.99999899999999978e-03  2.76822099999999988e-02
0.00000000000000000e+00  5.99999899999999978e-03  3.99985900000000005e-02
0.00000000000000000e+00  5.99999800000000031e-03  5.22986000000000006e-02
0.00000000000000000e+00  5.99999800000000031e-03  6.44963600000000026e-02
0.00000000000000000e+00  3.00000000000000006e-03  3.07692300000000007e-03
0.00000000000000000e+00  3.00000000000000006e-03  1.04940499999999996e-02
0.00000000000000000e+00  3.00000000000000006e-03  7.41712199999999995e-03
0.00000000000000000e+00  3.00000000000000006e-03  2.30583799999999998e-02
0.00000000000000000e+00  3.00000000000000006e-03  1.99814599999999995e-02
0.00000000000000000e+00  2.99999900000000016e-03  3.53831699999999985e-02
0.00000000000000000e+00  2.99999900000000016e-03  3.23062400000000000e-02
0.00000000000000000e+00  3.00000000000000006e-03  4.76909699999999992e-02
0.00000000000000000e+00  3.00000000000000006e-03  4.46140500000000023e-02
0.00000000000000000e+00  2.99999699999999991e-03  5.99834799999999987e-02
0.00000000000000000e+00  2.99999699999999991e-03  5.69065600000000019e-02
0.00000000000000000e+00  2.99999900000000016e-03  7.21017199999999941e-02
0.00000000000000000e+00  2.99999900000000016e-03  6.90247900000000025e-02
0.00000000000000000e+00  3.00000000000000006e-03  7.78286700000000026e-02
0.00000000000000000e+00  3.00000000000000006e-03  7.47517500000000057e-02
0.00000000000000000e+00  5.99999899999999978e-03  7.30073100000000058e-02
0.00000000000000000e+00  6.00000000000000012e-03  7.78286700000000026e-02
0.00000000000000000e+00  8.99999999999999932e-03  7.47517500000000057e-02
0.00000000000000000e+00  8.99999999999999932e-03  7.78286700000000026e-02
0.00000000000000000e+00  8.99999999999999932e-03  3.07692300000000007e-03
0.00000000000000000e+00  8.99999999999999932e-03  7.41712199999999995e-03
0.00000000000000000e+00  8.99999999999999932e-03  1.04940499999999996e-02
0.00000000000000000e+00  8.99999999999999932e-03  1.99814599999999995e-02
0.00000000000000000e+00  8.99999999999999932e-03  2.30583799999999998e-02
0.00000000000000000e+00  8.99999899999999985e-03  3.23062400000000000e-02
0.00000000000000000e+00  8.99999899999999985e-03  3.53831699999999985e-02
0.00000000000000000e+00  8.99999999999999932e-03  4.46140500000000023e-02
0.00000000000000000e+00  8.99999999999999932e-03  4.76909699999999992e-02
0.00000000000000000e+00  8.99999699999999916e-03  5.69065600000000019e-02
0.00000000000000000e+00  8.99999699999999916e-03  5.99834799999999987e-02
0.00000000000000000e+00  8.99999899999999985e-03  6.90247900000000025e-02
0.00000000000000000e+00  8.99999899999999985e-03  7.21017199999999941e-02
0.00000000000000000e+00  6.00000000000000012e-03  4.34019900000000031e-03
0.00000000000000000e+00  3.00000000000000006e-03  1.37767800000000006e-02
0.00000000000000000e+00  6.00000000000000012e-03  1.19631300000000006e-02
0.00000000000000000e+00  3.00000000000000006e-03  1.68536999999999992e-02
0.00000000000000000e+00  6.00000000000000012e-03  1.83736200000000002e-02
0.00000000000000000e+00  5.99999800000000031e-03  3.07627299999999985e-02
0.00000000000000000e+00  3.00000000000000006e-03  2.92257200000000002e-02
0.00000000000000000e+00  3.00000000000000006e-03  2.61487999999999998e-02
0.00000000000000000e+00  8.99999999999999932e-03  2.92257200000000002e-02
0.00000000000000000e+00  6.00000000000000012e-03  4.30748800000000029e-02
0.00000000000000000e+00  2.99999900000000016e-03  4.15377600000000000e-02
0.00000000000000000e+00  2.99999900000000016e-03  3.84608300000000014e-02
0.00000000000000000e+00  8.99999899999999985e-03  4.15377600000000000e-02
0.00000000000000000e+00  5.99999599999999963e-03  5.53635499999999975e-02
0.00000000000000000e+00  2.99999900000000016e-03  5.38416099999999981e-02
0.00000000000000000e+00  2.99999900000000016e-03  5.07646799999999995e-02
0.00000000000000000e+00  8.99999899999999985e-03  5.38416099999999981e-02
0.00000000000000000e+00  5.99999800000000031e-03  6.74268199999999984e-02
0.00000000000000000e+00  2.99999900000000016e-03  6.60943300000000067e-02
0.00000000000000000e+00  2.99999900000000016e-03  6.30174099999999959e-02
0.00000000000000000e+00  8.99999899999999985e-03  6.60943300000000067e-02
0.00000000000000000e+00  5.99999899999999978e-03  4.92248900000000003e-02
0.00000000000000000e+00  8.99999999999999932e-03  1.68536999999999992e-02
0.00000000000000000e+00  5.99999899999999978e-03  2.45917899999999988e-02
0.00000000000000000e+00  8.99999999999999932e-03  2.61487999999999998e-02
0.00000000000000000e+00  8.99999999999999932e-03  1.37767800000000006e-02
0.00000000000000000e+00  5.99999800000000031e-03  3.69209200000000029e-02
0.00000000000000000e+00  8.99999899999999985e-03  3.84608300000000014e-02
0.00000000000000000e+00  8.99999899999999985e-03  5.07646799999999995e-02
0.00000000000000000e+00  5.99999599999999963e-03  6.14624299999999985e-02
0.00000000000000000e+00  8.99999899999999985e-03  6.30174099999999959e-02
1.20000000000000002e-02  1.20000000000000002e-02  8.00000000000000017e-02
0.00000000000000000e+00  0.00000000000000000e+00  8.00000000000000017e-02
1.20000000000000002e-02  6.00000000000000012e-03  0.00000000000000000e+00
1.20000000000000002e-02  3.00000000000000006e-03  0.00000000000000000e+00
1.20000000000000002e-02  8.99999999999999932e-03  0.00000000000000000e+00
1.20000000000000002e-02  0.00000000000000000e+00  8.00000000000000017e-02
1.20000000000000002e-02  0.00000000000000000e+00  0.00000000000000000e+00
0.00000000000000000e+00  1.20000000000000002e-02  0.00000000000000000e+00
1.20000000000000002e-02  5.99999899999999978e-03  8.68039699999999942e-03
1.20000000000000002e-02  5.99999899999999978e-03  1.52458600000000000e-02
1.20000000000000002e-02  5.99999899999999978e-03  2.15013699999999988e-02
1.20000000000000002e-02  6.00000000000000012e-03  2.76822099999999988e-02
1.20000000000000002e-02  5.99999899999999978e-03  3.38432399999999967e-02
1.20000000000000002e-02  5.99999800000000031e-03  3.99985900000000005e-02
1.20000000000000002e-02  5.99999699999999997e-03  4.61511800000000000e-02
1.20000000000000002e-02  5.99999300000000034e-03  5.22986100000000023e-02
1.20000000000000002e-02  5.99998599999999969e-03  5.84285400000000010e-02
1.20000000000000002e-02  5.99997800000000043e-03  6.44963800000000059e-02
1.20000000000000002e-02  5.99997500000000027e-03  7.03572999999999976e-02
1.20000000000000002e-02  5.99997500000000027e-03  7.56573600000000068e-02
1.20000000000000002e-02  3.00000000000000006e-03  3.07692300000000007e-03
1.20000000000000002e-02  3.00000000000000006e-03  7.41712099999999961e-03
1.20000000000000002e-02  3.00000000000000006e-03  1.04940399999999996e-02
1.20000000000000002e-02  2.99999900000000016e-03  1.37767800000000006e-02
1.20000000000000002e-02  2.99999900000000016e-03  1.68536999999999992e-02
1.20000000000000002e-02  5.99999899999999978e-03  1.19631300000000006e-02
1.20000000000000002e-02  3.00000000000000006e-03  1.99814500000000013e-02
1.20000000000000002e-02  3.00000000000000006e-03  2.30583799999999998e-02
1.20000000000000002e-02  5.99999899999999978e-03  1.83736099999999986e-02
1.20000000000000002e-02  3.00000000000000006e-03  2.61487999999999998e-02
1.20000000000000002e-02  3.00000000000000006e-03  2.92257200000000002e-02
1.20000000000000002e-02  5.99999899999999978e-03  2.45917899999999988e-02
1.20000000000000002e-02  3.00000000000000006e-03  3.23062299999999983e-02
1.20000000000000002e-02  3.00000000000000006e-03  3.53831599999999968e-02
1.20000000000000002e-02  5.99999899999999978e-03  3.07627200000000003e-02
1.20000000000000002e-02  2.99999900000000016e-03  3.84608300000000014e-02
1.20000000000000002e-02  2.99999900000000016e-03  4.15377499999999983e-02
1.20000000000000002e-02  5.99999899999999978e-03  3.69209100000000012e-02
1.20000000000000002e-02  2.99999799999999981e-03  4.46140500000000023e-02
1.20000000000000002e-02  2.99999799999999981e-03  4.76909800000000009e-02
1.20000000000000002e-02  5.99999800000000031e-03  4.30748800000000029e-02
1.20000000000000002e-02  2.99999699999999991e-03  5.07646900000000012e-02
1.20000000000000002e-02  2.99999699999999991e-03  5.38416099999999981e-02
1.20000000000000002e-02  5.99999500000000015e-03  4.92249000000000020e-02
1.20000000000000002e-02  2.99999299999999984e-03  5.69065799999999983e-02
1.20000000000000002e-02  2.99999299999999984e-03  5.99835000000000021e-02
1.20000000000000002e-02  5.99999000000000018e-03  5.53635800000000025e-02
1.20000000000000002e-02  2.99998900000000021e-03  6.30174200000000045e-02
1.20000000000000002e-02  2.99998900000000021e-03  6.60943499999999962e-02
1.20000000000000002e-02  5.99998200000000006e-03  6.14624599999999965e-02
1.20000000000000002e-02  2.99998799999999987e-03  6.90248100000000059e-02
1.20000000000000002e-02  2.99998799999999987e-03  7.21017300000000028e-02
1.20000000000000002e-02  5.99997700000000009e-03  6.74268400000000018e-02
1.20000000000000002e-02  2.99998699999999997e-03  7.47517600000000004e-02
1.20000000000000002e-02  2.99998699999999997e-03  7.78286799999999973e-02
1.20000000000000002e-02  5.99998700000000003e-03  7.78286799999999973e-02
1.20000000000000002e-02  5.99997500000000027e-03  7.30073299999999953e-02
1.20000000000000002e-02  8.99998699999999922e-03  7.78286799999999973e-02
1.20000000000000002e-02  8.99999999999999932e-03  3.07692300000000007e-03
[...]
POINT_DATA 281

SCALARS Rank unsigned_int
LOOKUP_TABLE default
0 0 0 0 0 0 0 0 0 0 0 0 0 0 0 0 0 0 0 0 0 0 0 0 0 0 0 0 0 0 0 0 0 0 0 0 0 0 0 0 0 0 0 0 0 0 0 0 0 0 0 0 0 0 0 0 0 0 0 0 0 0 0 0 0 0 0 0 0 0 0 0 0 0 0 0 0 0 0 0 0 0 0 0 0 0 0 0 0 0 0 0 0 0 0 0 0 0 0 0 0 0 0 0 0 0 0 0 0 0 0 0 0 0 0 0 0 0 0 0 0 0 0 0 0 0 0 0 0 0 0 0 0 0 0 0 0 0 0 0 0 0 0 0 0 0 0 0 0 0 0 0 0 0 0 0 0 0 0 0 0 0 0 0 0 0 0 0 0 0 0 0 0 0 0 0 0 0 0 0 0 0 0 0 0 0 0 0 0 0 0 0 0 0 0 0 0 0 0 0 0 0 0 0 0 0 0 0 0 0 0 0 0 0 0 0 0 0 0 0 0 0 0 0 0 0 0 0 0 0 0 0 0 0 0 0 0 0 0 0 0 0 0 0 0 0 0 0 0 0 0 0 0 0 0 0 0 0 0 0 0 0 0 0 0 0 0 0 0 0 0 0 0 0 0 0 0 0 0 0 0 

VECTORS Forces0 double
6.82208015399494500e-06 0.00000000000000000e+00 8.28019289903872313e-08 
6.32835152055706874e-06 0.00000000000000000e+00 -5.62902670053624255e-08 
4.89792315817503394e-06 0.00000000000000000e+00 4.38851027801825246e-08 
3.34471092604966828e-06 0.00000000000000000e+00 -2.98106777436808335e-08 
1.81186958981308967e-06 0.00000000000000000e+00 4.04145879254740867e-08 
2.84898707165617373e-07 0.00000000000000000e+00 -9.20597411502063960e-08 
-3.23314542032504955e-07 0.00000000000000000e+00 -2.49252718068021720e-07 
6.74692105434128151e-06 0.00000000000000000e+00 2.00688634062435613e-08 
5.68931361530718057e-06 0.00000000000000000e+00 -4.54476176728794509e-08 
4.10399002283820901e-06 0.00000000000000000e+00 7.79074192754727651e-08 
2.59653208322455485e-06 0.00000000000000000e+00 -1.14358950321885718e-07 
1.02672936158638687e-06 0.00000000000000000e+00 1.87766165723506564e-07 
6.47934514196879744e-06 0.00000000000000000e+00 7.76303445814856283e-09 
6.88746485154543606e-06 0.00000000000000000e+00 7.58638620265976808e-08 
6.77558355537237912e-06 0.00000000000000000e+00 8.00450046647874702e-08 
6.14920585578355639e-06 0.00000000000000000e+00 -6.39021056405635138e-08 
6.49001100908306866e-06 0.00000000000000000e+00 -4.29821431191545301e-08 
4.73030984168850551e-06 0.00000000000000000e+00 6.40788251694952117e-08 
5.07717347980243868e-06 0.00000000000000000e+00 2.01574509418644177e-08 
3.14105382748171589e-06 0.00000000000000000e+00 -6.49426491227852461e-08 
3.55696773621462444e-06 0.00000000000000000e+00 6.15755218398528287e-09 
1.62459664807864552e-06 0.00000000000000000e+00 1.01851685983427910e-07 
1.99598254541638120e-06 0.00000000000000000e+00 -1.79722430101208808e-08 
7.07201940680860200e-08 0.00000000000000000e+00 -2.03455735868112325e-07 
4.53667421244506304e-07 0.00000000000000000e+00 1.00844942480625961e-09 
-5.17130591339669316e-07 0.00000000000000000e+00 -9.53372378863737909e-08 
-2.30321800870165634e-07 0.00000000000000000e+00 -2.71356475510423577e-07 
-3.60458228892520804e-08 0.00000000000000000e+00 -2.45274687813728334e-07 
-5.17130591340448587e-07 0.00000000000000000e+00 -9.53372378860845292e-08 
-2.30321800870754745e-07 0.00000000000000000e+00 -2.71356475509122746e-07 
-5.17130591340400306e-07 0.00000000000000000e+00 -9.53372378694426611e-08 
6.47934514196688653e-06 0.00000000000000000e+00 7.76303443192188168e-09 
6.77558355537380722e-06 0.00000000000000000e+00 8.00450046741246849e-08 
6.88746485154422226e-06 0.00000000000000000e+00 7.58638620156671177e-08 
6.49001100908463398e-06 0.00000000000000000e+00 -4.29821431186963647e-08 
6.14920585578608140e-06 0.00000000000000000e+00 -6.39021056358721689e-08 
5.07717347980186608e-06 0.00000000000000000e+00 2.01574509474208480e-08 
4.73030984168864781e-06 0.00000000000000000e+00 6.40788251719441957e-08 
3.55696773621299179e-06 0.00000000000000000e+00 6.15755218475883571e-09 
3.14105382748185565e-06 0.00000000000000000e+00 -6.49426491245052523e-08 
1.99598254541563963e-06 0.00000000000000000e+00 -1.79722430135343177e-08 
1.62459664807808203e-06 0.00000000000000000e+00 1.01851685982601695e-07 
4.53667421247132318e-07 0.00000000000000000e+00 1.00844941780764988e-09 
7.07201940699749035e-08 0.00000000000000000e+00 -2.03455735862816728e-07 
6.62837824757687127e-06 0.00000000000000000e+00 4.01007384484544128e-08 
6.83438598126835192e-06 0.00000000000000000e+00 4.08035382825206374e-08 
6.91314806549227449e-06 0.00000000000000000e+00 6.29121748966594929e-08 
6.65930205394795487e-06 0.00000000000000000e+00 -3.28647581859349890e-09 
6.58398703606012067e-06 0.00000000000000000e+00 -2.41562774317312543e-08 
5.27686680627609665e-06 0.00000000000000000e+00 -4.38130478404273476e-09 
5.49175444114967400e-06 0.00000000000000000e+00 -2.68423172191387541e-08 
5.83557914365015191e-06 0.00000000000000000e+00 -5.83373797649057311e-08 
5.49175444114960708e-06 0.00000000000000000e+00 -2.68423172072512554e-08 
3.74425463409903325e-06 0.00000000000000000e+00 3.82541531928821924e-08 
3.91735229232018027e-06 0.00000000000000000e+00 6.26817670303918534e-08 
4.31130249732375100e-06 0.00000000000000000e+00 8.27238475595764291e-08 
3.91735229232120518e-06 0.00000000000000000e+00 6.26817670302033356e-08 
2.19029601570789727e-06 0.00000000000000000e+00 -6.70804138725200943e-08 
2.39156458839702634e-06 0.00000000000000000e+00 -9.94642480535768550e-08 
2.77703803373718299e-06 0.00000000000000000e+00 -1.11536407080508941e-07 
2.39156458839621912e-06 0.00000000000000000e+00 -9.94642480549099790e-08 
6.55810429669274575e-07 0.00000000000000000e+00 9.86507244980942761e-08 
8.22866219162260654e-07 0.00000000000000000e+00 1.54737005165146394e-07 
1.22110163650550360e-06 0.00000000000000000e+00 1.83773255342076412e-07 
8.22866219161297366e-07 0.00000000000000000e+00 1.54737005169199976e-07 
2.95272165111996400e-06 0.00000000000000000e+00 -9.38339610571040455e-08 
6.65930205394970314e-06 0.00000000000000000e+00 -3.28647582083599215e-09 
5.98466623105911661e-06 0.00000000000000000e+00 -6.47399610124685104e-08 
5.83557914365018410e-06 0.00000000000000000e+00 -5.83373797653551350e-08 
6.83438598126581844e-06 0.00000000000000000e+00 4.08035382730194953e-08 
4.53112332569233120e-06 0.00000000000000000e+00 7.77901934296428072e-08 
4.31130249732424651e-06 0.00000000000000000e+00 8.27238475605560756e-08 
2.77703803373860940e-06 0.00000000000000000e+00 -1.11536407085835296e-07 
1.42898513403898180e-06 0.00000000000000000e+00 1.51542601209198508e-07 
1.22110163650617148e-06 0.00000000000000000e+00 1.83773255349911573e-07 
1.84973460490223896e-06 0.00000000000000000e+00 2.95873610257557131e-07 
-6.73699424835532707e-07 0.00000000000000000e+00 2.96658066088213330e-07 
-8.63215902206927006e-07 0.00000000000000000e+00 -1.16184370474593668e-07 
-8.63215902209430412e-07 0.00000000000000000e+00 -1.16184370475727779e-07 
-8.63215902209236865e-07 0.00000000000000000e+00 -1.16184370493542496e-07 
1.84973460490389915e-06 0.00000000000000000e+00 2.95873610278324684e-07 
-8.63215902207703735e-07 0.00000000000000000e+00 -1.16184370484180532e-07 
6.00631832590094815e-06 0.00000000000000000e+00 -1.16574159880092395e-07 
-7.22377571228007416e-07 0.00000000000000000e+00 8.31939595301110509e-08 
-4.59146533011098304e-07 0.00000000000000000e+00 2.02163069758942785e-08 
-1.31835985332922662e-07 0.00000000000000000e+00 -5.64991295643413987e-08 
2.72297190761558952e-07 0.00000000000000000e+00 -4.62567219346717560e-08 
7.49136574822025209e-07 0.00000000000000000e+00 4.27486071965349553e-08 
1.29431273239032216e-06 0.00000000000000000e+00 7.65460281578529393e-08 
1.88346727595135144e-06 0.00000000000000000e+00 -3.16124810723912969e-08 
2.45075586999247931e-06 0.00000000000000000e+00 -1.16864273464940638e-07 
2.86594045928196485e-06 0.00000000000000000e+00 3.79696369049431323e-08 
3.03502152344660828e-06 0.00000000000000000e+00 1.85487445744441347e-07 
2.90061803317101966e-06 0.00000000000000000e+00 -9.49449515207938683e-08 
2.47748309485440285e-06 0.00000000000000000e+00 -2.52761010941612387e-07 
-8.62571708355215736e-07 0.00000000000000000e+00 8.32434160362355268e-09 
-7.62367771418345209e-07 0.00000000000000000e+00 8.04968727358600400e-08 
-6.61550869241790975e-07 0.00000000000000000e+00 7.61866584438190421e-08 
-5.28221926921321019e-07 0.00000000000000000e+00 4.10169859999561642e-08 
-3.80124861505800215e-07 0.00000000000000000e+00 -3.23984341487543556e-09 
-6.07655011356025190e-07 0.00000000000000000e+00 6.31878877365626424e-08 
-2.17133455958765830e-07 0.00000000000000000e+00 -4.31779509706538939e-08 
-3.87263141975665038e-08 0.00000000000000000e+00 -6.41509144036377441e-08 
-3.02874644075245983e-07 0.00000000000000000e+00 -2.42294709236315287e-08 
1.63892335168684991e-07 0.00000000000000000e+00 -5.89191667573767991e-08 
3.82180379821213050e-07 0.00000000000000000e+00 -2.76616743879464484e-08 
5.85454947135839630e-08 0.00000000000000000e+00 -6.51075692556124425e-08 
6.18526561717405870e-07 0.00000000000000000e+00 1.92714186339893100e-08 
8.86782336001916419e-07 0.00000000000000000e+00 6.26067856686981809e-08 
4.95758981254055194e-07 0.00000000000000000e+00 -5.16507100586557302e-09 
1.15382705507583895e-06 0.00000000000000000e+00 8.13668795068287958e-08 
1.44414455980143889e-06 0.00000000000000000e+00 6.10781383390363162e-08 
1.02040630855815450e-06 0.00000000000000000e+00 7.62896068812752372e-08 
1.74730177565340160e-06 0.00000000000000000e+00 4.06041769209838575e-09 
2.02322813165238355e-06 0.00000000000000000e+00 -6.66252433642496287e-08 
1.59908248912215271e-06 0.00000000000000000e+00 3.62705385321330761e-08 
2.31531406613168067e-06 0.00000000000000000e+00 -1.13806820194416114e-07 
2.56089627567335186e-06 0.00000000000000000e+00 -1.01586932620208522e-07 
2.16762397173705719e-06 0.00000000000000000e+00 -9.56806402096242558e-08 
2.76702386276834813e-06 0.00000000000000000e+00 -1.99592001828694017e-08 
2.95187530724570727e-06 0.00000000000000000e+00 9.89101075453124608e-08 
2.66335939542791000e-06 0.00000000000000000e+00 -6.89398147756759214e-08 
3.01885066989524321e-06 0.00000000000000000e+00 1.81547641127119476e-07 
3.04379983456590654e-06 0.00000000000000000e+00 1.51901162106188137e-07 
2.99337431060014168e-06 0.00000000000000000e+00 1.48971312041863370e-07 
2.97982831612235481e-06 0.00000000000000000e+00 -2.36001496324026640e-09 
2.77969378041736715e-06 0.00000000000000000e+00 -2.06083859576445465e-07 
3.03641840980366743e-06 0.00000000000000000e+00 9.52023165873406685e-08 
2.56606595450155980e-06 0.00000000000000000e+00 -2.74622381991023798e-07 
2.18287193882592187e-06 0.00000000000000000e+00 -9.75786693159159396e-08 
2.18287193882515657e-06 0.00000000000000000e+00 -9.75786693151208933e-08 
2.71145934203691698e-06 0.00000000000000000e+00 -2.48010077198765886e-07 
2.18287193882838504e-06 0.00000000000000000e+00 -9.75786693125974763e-08 
-8.62571708356408782e-07 0.00000000000000000e+00 8.32434161921809098e-09 
-6.61550869241119701e-07 0.00000000000000000e+00 7.61866584411595969e-08 
-7.62367771418036042e-07 0.00000000000000000e+00 8.04968727216624973e-08 
-3.80124861505654525e-07 0.00000000000000000e+00 -3.23984342759935273e-09 
-5.28221926920406223e-07 0.00000000000000000e+00 4.10169860068495830e-08 
-3.87263141980355483e-08 0.00000000000000000e+00 -6.41509144087637758e-08 
-2.17133455958552589e-07 0.00000000000000000e+00 -4.31779509769935120e-08 
3.82180379820815580e-07 0.00000000000000000e+00 -2.76616743817019627e-08 
1.63892335169268596e-07 0.00000000000000000e+00 -5.89191667536597009e-08 
8.86782336002235962e-07 0.00000000000000000e+00 6.26067856749429313e-08 
6.18526561717314708e-07 0.00000000000000000e+00 1.92714186391492759e-08 
1.44414455980180100e-06 0.00000000000000000e+00 6.10781383373979560e-08 
1.15382705507725032e-06 0.00000000000000000e+00 8.13668795012296697e-08 
2.02322813165417417e-06 0.00000000000000000e+00 -6.66252433643861598e-08 
1.74730177565341134e-06 0.00000000000000000e+00 4.06041768930652545e-09 
2.56089627567444496e-06 0.00000000000000000e+00 -1.01586932618477729e-07 
2.31531406613178147e-06 0.00000000000000000e+00 -1.13806820193402401e-07 
2.95187530724605795e-06 0.00000000000000000e+00 9.89101075518585431e-08 
2.76702386276894317e-06 0.00000000000000000e+00 -1.99592001876075452e-08 
3.04379983456546184e-06 0.00000000000000000e+00 1.51901162107506649e-07 
3.01885066989522203e-06 0.00000000000000000e+00 1.81547641123341391e-07 
2.77969378042010307e-06 0.00000000000000000e+00 -2.06083859583637146e-07 
2.97982831612050616e-06 0.00000000000000000e+00 -2.36001495792142889e-09 
-8.46071904800206507e-07 0.00000000000000000e+00 4.06931315267535155e-08 
2.56606595450382265e-06 0.00000000000000000e+00 -2.74622381992477307e-07 
-6.73699424835254457e-07 0.00000000000000000e+00 2.96658066093710150e-07 
6.72761863265744284e-06 0.00000000000000000e+00 6.97960581553799195e-08 
6.90537031518241107e-06 0.00000000000000000e+00 5.91468971373363906e-08 
6.57962474127876059e-06 0.00000000000000000e+00 -2.52880667820654299e-08 
5.98228222910878455e-06 0.00000000000000000e+00 -6.46974974204208228e-08 
5.27598252764656630e-06 0.00000000000000000e+00 -4.28054030138340113e-09 
4.53081431751165623e-06 0.00000000000000000e+00 7.78035777572459069e-08 
3.74402731832069118e-06 0.00000000000000000e+00 3.82161927798487667e-08 
2.95202990042535867e-06 0.00000000000000000e+00 -9.39258105955646436e-08 
2.18757018126334526e-06 0.00000000000000000e+00 -6.65118411728708740e-08 
1.41876799446585247e-06 0.00000000000000000e+00 1.53670293223025790e-07 
6.22596400867781490e-07 0.00000000000000000e+00 8.45495161872774666e-08 
-1.31675495214655025e-07 0.00000000000000000e+00 -2.68533343998413286e-07 
6.47934514196645031e-06 0.00000000000000000e+00 7.76303443646600168e-09 
6.84245442170620596e-06 0.00000000000000000e+00 8.19423716803521521e-08 
6.73883857221184497e-06 0.00000000000000000e+00 1.80514460381789386e-08 
6.32405121989573937e-06 0.00000000000000000e+00 -5.65468932520307680e-08 
5.68826449753439022e-06 0.00000000000000000e+00 -4.53425966886843544e-08 
4.89760203786816049e-06 0.00000000000000000e+00 4.39273560460156087e-08 
4.10380942961220471e-06 0.00000000000000000e+00 7.78981936374540989e-08 
3.34434592200960264e-06 0.00000000000000000e+00 -2.98737613911977329e-08 
2.59535813793040623e-06 0.00000000000000000e+00 -1.14325457249463038e-07 
1.80793029067966841e-06 0.00000000000000000e+00 4.17339367619096113e-08 
1.01131491079690601e-06 0.00000000000000000e+00 1.86694304159718341e-07 
2.33411121704714591e-07 0.00000000000000000e+00 -1.20370948724068284e-07 
-4.41247959160260928e-07 0.00000000000000000e+00 -1.83204020231143112e-07 
-1.10948805491745484e-07 0.00000000000000000e+00 4.25626438998471954e-06 
-1.10948805491374907e-07 0.00000000000000000e+00 4.25626438998425960e-06 
1.26298448539065304e-06 0.00000000000000000e+00 4.25601720789567704e-06 
1.26298448539155873e-06 0.00000000000000000e+00 4.25601720789850274e-06 
5.71044726466425099e-07 0.00000000000000000e+00 7.61232514664511416e-06 
5.71044726468340241e-07 0.00000000000000000e+00 7.61232514664149140e-06 
-1.10948805491433353e-07 0.00000000000000000e+00 4.25626438997712419e-06 
1.26298448539037034e-06 0.00000000000000000e+00 4.25601720789203480e-06 
1.84973460490211381e-06 0.00000000000000000e+00 2.95873610270478830e-07 
1.84973460490157171e-06 0.00000000000000000e+00 2.95873610271960079e-07 
1.84973460490364440e-06 0.00000000000000000e+00 2.95873610273812752e-07 
-6.73699424835891426e-07 0.00000000000000000e+00 2.96658066096703564e-07 
-6.73699424834446811e-07 0.00000000000000000e+00 2.96658066094144254e-07 
-6.73699424835633081e-07 0.00000000000000000e+00 2.96658066095144177e-07 
-8.00058506571209386e-07 0.00000000000000000e+00 7.03141873450742283e-08 
-5.93527875531931095e-07 0.00000000000000000e+00 5.94115942292897931e-08 
-2.98305551361940603e-07 0.00000000000000000e+00 -2.53688455375499557e-08 
6.00922814328043420e-08 0.00000000000000000e+00 -6.50677045740918355e-08 
4.96257267162001838e-07 0.00000000000000000e+00 -5.06424255850674058e-09 
1.02059090402203499e-06 0.00000000000000000e+00 7.63032809921679548e-08 
1.59928872527560224e-06 0.00000000000000000e+00 3.62320696700219626e-08 
2.16818569923767634e-06 0.00000000000000000e+00 -9.57735569407873964e-08 
2.66477195826764252e-06 0.00000000000000000e+00 -6.83709040577569331e-08 
2.99489471883533459e-06 0.00000000000000000e+00 1.51122113362252309e-07 
3.03192685608103453e-06 0.00000000000000000e+00 8.10094498341948082e-08 
2.64436199244723829e-06 0.00000000000000000e+00 -2.71484371786299964e-07 
-8.62571708353689806e-07 0.00000000000000000e+00 8.32434161979309400e-09 
-7.04433881255485530e-07 0.00000000000000000e+00 8.23112110647984302e-08 
-4.52468511626400637e-07 0.00000000000000000e+00 1.81914571226040923e-08 
-1.29689202563508344e-07 0.00000000000000000e+00 -5.67559858005464364e-08 
2.73020896887969004e-07 0.00000000000000000e+00 -4.61528638282972161e-08 
7.49391626435294028e-07 0.00000000000000000e+00 4.27904017317811116e-08 
1.29444589581740901e-06 0.00000000000000000e+00 7.65366889467171302e-08 
1.88370496867349335e-06 0.00000000000000000e+00 -3.16751319870440022e-08 
2.45145261095592156e-06 0.00000000000000000e+00 -1.16829342684113575e-07 
2.86799516692134309e-06 0.00000000000000000e+00 3.92752834030644398e-08 
3.03603724801305600e-06 0.00000000000000000e+00 1.84391281864995803e-07 
2.87340395848677422e-06 0.00000000000000000e+00 -1.23139275237531590e-07 
2.31604334307191705e-06 0.00000000000000000e+00 -1.86165777119870156e-07 
6.00631832590300814e-06 0.00000000000000000e+00 -1.16574159862910437e-07 
6.00631832590347570e-06 0.00000000000000000e+00 -1.16574159875609050e-07 
6.00631832590265154e-06 0.00000000000000000e+00 -1.16574159876686687e-07 
5.71044726468324147e-07 0.00000000000000000e+00 7.61232514664710300e-06 
-1.10948805492842815e-07 0.00000000000000000e+00 4.25626438998152961e-06 
1.26298448539210845e-06 0.00000000000000000e+00 4.25601720789386608e-06 
-8.00058506571044214e-07 0.00000000000000000e+00 7.03141873237996459e-08 
-5.93527875532577805e-07 0.00000000000000000e+00 5.94115942262923552e-08 
-2.98305551361230366e-07 0.00000000000000000e+00 -2.53688455444224104e-08 
6.00922814331751307e-08 0.00000000000000000e+00 -6.50677045682424377e-08 
4.96257267161322411e-07 0.00000000000000000e+00 -5.06424255671441887e-09 
1.02059090402199030e-06 0.00000000000000000e+00 7.63032809882678446e-08 
1.59928872527560266e-06 0.00000000000000000e+00 3.62320696724834271e-08 
2.16818569923860977e-06 0.00000000000000000e+00 -9.57735569408944932e-08 
2.66477195826794745e-06 0.00000000000000000e+00 -6.83709040577180887e-08 
2.99489471883515290e-06 0.00000000000000000e+00 1.51122113357346823e-07 
3.03192685608184768e-06 0.00000000000000000e+00 8.10094498307879358e-08 
2.64436199244656786e-06 0.00000000000000000e+00 -2.71484371779905712e-07 
-8.62571708355505421e-07 0.00000000000000000e+00 8.32434161482765452e-09 
-7.04433881254392011e-07 0.00000000000000000e+00 8.23112110623475668e-08 
-4.52468511627558955e-07 0.00000000000000000e+00 1.81914571185231935e-08 
-1.29689202564036257e-07 0.00000000000000000e+00 -5.67559858045156328e-08 
2.73020896887954181e-07 0.00000000000000000e+00 -4.61528638214575310e-08 
7.49391626434800949e-07 0.00000000000000000e+00 4.27904017364902972e-08 
1.29444589581761760e-06 0.00000000000000000e+00 7.65366889480650773e-08 
1.88370496867415107e-06 0.00000000000000000e+00 -3.16751319914565277e-08 
2.45145261095537353e-06 0.00000000000000000e+00 -1.16829342682679574e-07 
2.86799516692166073e-06 0.00000000000000000e+00 3.92752833995371828e-08 
3.03603724801359047e-06 0.00000000000000000e+00 1.84391281862387471e-07 
2.87340395848697539e-06 0.00000000000000000e+00 -1.23139275239231373e-07 
2.31604334307249557e-06 0.00000000000000000e+00 -1.86165777113532021e-07 
6.00631832590394157e-06 0.00000000000000000e+00 -1.16574159870337169e-07 
6.72761863265534305e-06 0.00000000000000000e+00 6.97960581566655037e-08 
6.90537031518338008e-06 0.00000000000000000e+00 5.91468971308816554e-08 
6.57962474127915107e-06 0.00000000000000000e+00 -2.52880667853574235e-08 
5.98228222910815182e-06 0.00000000000000000e+00 -6.46974974173423080e-08 
5.27598252764468250e-06 0.00000000000000000e+00 -4.28054029854682014e-09 
4.53081431751220172e-06 0.00000000000000000e+00 7.78035777508417555e-08 
3.74402731832120533e-06 0.00000000000000000e+00 3.82161927825998768e-08 