# vtk DataFile Version 2.0

ASCII

DATASET UNSTRUCTURED_GRID

POINTS 281 double 

0.00000000000000000e+00  6.00000000000000012e-03  8.68039800000000063e-03
0.00000000000000000e+00  6.00000000000000012e-03  2.15013699999999988e-02
0.00000000000000000e+00  5.99999699999999997e-03  3.38432499999999983e-02
0.00000000000000000e+00  6.00000000000000012e-03  4.61511800000000000e-02
0.00000000000000000e+00  5.99999399999999981e-03  5.84285100000000029e-02
0.00000000000000000e+00  5.99999899999999978e-03  7.03572799999999943e-02
0.00000000000000000e+00  6.00000000000000012e-03  7.56573400000000035e-02
0.00000000000000000e+00  6.00000000000000012e-03  1.52458600000000000e-02
0.00000000000000000e+00  5.99999899999999978e-03  2.76822099999999988e-02
0.00000000000000000e+00  5.99999899999999978e-03  3.99985900000000005e-02
0.00000000000000000e+00  5.99999800000000031e-03  5.22986000000000006e-02
0.00000000000000000e+00  5.99999800000000031e-03  6.44963600000000026e-02
0.00000000000000000e+00  3.00000000000000006e-03  3.07692300000000007e-03
0.00000000000000000e+00  3.00000000000000006e-03  1.04940499999999996e-02
0.00000000000000000e+00  3.00000000000000006e-03  7.41712199999999995e-03
0.00000000000000000e+00  3.00000000000000006e-03  2.30583799999999998e-02
0.00000000000000000e+00  3.00000000000000006e-03  1.99814599999999995e-02
0.00000000000000000e+00  2.99999900000000016e-03  3.53831699999999985e-02
0.00000000000000000e+00  2.99999900000000016e-03  3.23062400000000000e-02
0.00000000000000000e+00  3.00000000000000006e-03  4.76909699999999992e-02
0.00000000000000000e+00  3.00000000000000006e-03  4.46140500000000023e-02
0.00000000000000000e+00  2.99999699999999991e-03  5.99834799999999987e-02
0.00000000000000000e+00  2.99999699999999991e-03  5.69065600000000019e-02
0.00000000000000000e+00  2.99999900000000016e-03  7.21017199999999941e-02
0.00000000000000000e+00  2.99999900000000016e-03  6.90247900000000025e-02
0.00000000000000000e+00  3.00000000000000006e-03  7.78286700000000026e-02
0.00000000000000000e+00  3.00000000000000006e-03  7.47517500000000057e-02
0.00000000000000000e+00  5.99999899999999978e-03  7.30073100000000058e-02
0.00000000000000000e+00  6.00000000000000012e-03  7.78286700000000026e-02
0.00000000000000000e+00  8.99999999999999932e-03  7.47517500000000057e-02
0.00000000000000000e+00  8.99999999999999932e-03  7.78286700000000026e-02
0.00000000000000000e+00  8.99999999999999932e-03  3.07692300000000007e-03
0.00000000000000000e+00  8.99999999999999932e-03  7.41712199999999995e-03
0.00000000000000000e+00  8.99999999999999932e-03  1.04940499999999996e-02
0.00000000000000000e+00  8.99999999999999932e-03  1.99814599999999995e-02
0.00000000000000000e+00  8.99999999999999932e-03  2.30583799999999998e-02
0.00000000000000000e+00  8.99999899999999985e-03  3.23062400000000000e-02
0.00000000000000000e+00  8.99999899999999985e-03  3.53831699999999985e-02
0.00000000000000000e+00  8.99999999999999932e-03  4.46140500000000023e-02
0.00000000000000000e+00  8.99999999999999932e-03  4.76909699999999992e-02
0.00000000000000000e+00  8.99999699999999916e-03  5.69065600000000019e-02
0.00000000000000000e+00  8.99999699999999916e-03  5.99834799999999987e-02
0.00000000000000000e+00  8.99999899999999985e-03  6.90247900000000025e-02
0.00000000000000000e+00  8.99999899999999985e-03  7.21017199999999941e-02
0.00000000000000000e+00  6.00000000000000012e-03  4.34019900000000031e-03
0.00000000000000000e+00  3.00000000000000006e-03  1.37767800000000006e-02
0.00000000000000000e+00  6.00000000000000012e-03  1.19631300000000006e-02
0.00000000000000000e+00  3.00000000000000006e-03  1.68536999999999992e-02
0.00000000000000000e+00  6.00000000000000012e-03  1.83736200000000002e-02
0.00000000000000000e+00  5.99999800000000031e-03  3.07627299999999985e-02
0.00000000000000000e+00  3.00000000000000006e-03  2.92257200000000002e-02
0.00000000000000000e+00  3.00000000000000006e-03  2.61487999999999998e-02
0.00000000000000000e+00  8.99999999999999932e-03  2.92257200000000002e-02
0.00000000000000000e+00  6.00000000000000012e-03  4.30748800000000029e-02
0.00000000000000000e+00  2.99999900000000016e-03  4.15377600000000000e-02
0.00000000000000000e+00  2.99999900000000016e-03  3.84608300000000014e-02
0.00000000000000000e+00  8.99999899999999985e-03  4.15377600000000000e-02
0.00000000000000000e+00  5.99999599999999963e-03  5.53635499999999975e-02
0.00000000000000000e+00  2.99999900000000016e-03  5.38416099999999981e-02
0.00000000000000000e+00  2.99999900000000016e-03  5.07646799999999995e-02
0.00000000000000000e+00  8.99999899999999985e-03  5.38416099999999981e-02
0.00000000000000000e+00  5.99999800000000031e-03  6.74268199999999984e-02
0.00000000000000000e+00  2.99999900000000016e-03  6.60943300000000067e-02
0.00000000000000000e+00  2.99999900000000016e-03  6.30174099999999959e-02
0.00000000000000000e+00  8.99999899999999985e-03  6.60943300000000067e-02
0.00000000000000000e+00  5.99999899999999978e-03  4.92248900000000003e-02
0.00000000000000000e+00  8.99999999999999932e-03  1.68536999999999992e-02
0.00000000000000000e+00  5.99999899999999978e-03  2.45917899999999988e-02
0.00000000000000000e+00  8.99999999999999932e-03  2.61487999999999998e-02
0.00000000000000000e+00  8.99999999999999932e-03  1.37767800000000006e-02
0.00000000000000000e+00  5.99999800000000031e-03  3.69209200000000029e-02
0.00000000000000000e+00  8.99999899999999985e-03  3.84608300000000014e-02
0.00000000000000000e+00  8.99999899999999985e-03  5.07646799999999995e-02
0.00000000000000000e+00  5.99999599999999963e-03  6.14624299999999985e-02
0.00000000000000000e+00  8.99999899999999985e-03  6.30174099999999959e-02
1.20000000000000002e-02  1.20000000000000002e-02  8.00000000000000017e-02
0.00000000000000000e+00  0.00000000000000000e+00  8.00000000000000017e-02
1.20000000000000002e-02  6.00000000000000012e-03  0.00000000000000000e+00
1.20000000000000002e-02  3.00000000000000006e-03  0.00000000000000000e+00
1.20000000000000002e-02  8.99999999999999932e-03  0.00000000000000000e+00
1.20000000000000002e-02  0.00000000000000000e+00  8.00000000000000017e-02
1.20000000000000002e-02  0.00000000000000000e+00  0.00000000000000000e+00
0.00000000000000000e+00  1.20000000000000002e-02  0.00000000000000000e+00
1.20000000000000002e-02  5.99999899999999978e-03  8.68039699999999942e-03
1.20000000000000002e-02  5.99999899999999978e-03  1.52458600000000000e-02
1.20000000000000002e-02  5.99999899999999978e-03  2.15013699999999988e-02
1.20000000000000002e-02  6.00000000000000012e-03  2.76822099999999988e-02
1.20000000000000002e-02  5.99999899999999978e-03  3.38432399999999967e-02
1.20000000000000002e-02  5.99999800000000031e-03  3.99985900000000005e-02
1.20000000000000002e-02  5.99999699999999997e-03  4.61511800000000000e-02
1.20000000000000002e-02  5.99999300000000034e-03  5.22986100000000023e-02
1.20000000000000002e-02  5.99998599999999969e-03  5.84285400000000010e-02
1.20000000000000002e-02  5.99997800000000043e-03  6.44963800000000059e-02
1.20000000000000002e-02  5.99997500000000027e-03  7.03572999999999976e-02
1.20000000000000002e-02  5.99997500000000027e-03  7.56573600000000068e-02
1.20000000000000002e-02  3.00000000000000006e-03  3.07692300000000007e-03
1.20000000000000002e-02  3.00000000000000006e-03  7.41712099999999961e-03
1.20000000000000002e-02  3.00000000000000006e-03  1.04940399999999996e-02
1.20000000000000002e-02  2.99999900000000016e-03  1.37767800000000006e-02
1.20000000000000002e-02  2.99999900000000016e-03  1.68536999999999992e-02
1.20000000000000002e-02  5.99999899999999978e-03  1.19631300000000006e-02
1.20000000000000002e-02  3.00000000000000006e-03  1.99814500000000013e-02
1.20000000000000002e-02  3.00000000000000006e-03  2.30583799999999998e-02
1.20000000000000002e-02  5.99999899999999978e-03  1.83736099999999986e-02
1.20000000000000002e-02  3.00000000000000006e-03  2.61487999999999998e-02
1.20000000000000002e-02  3.00000000000000006e-03  2.92257200000000002e-02
1.20000000000000002e-02  5.99999899999999978e-03  2.45917899999999988e-02
1.20000000000000002e-02  3.00000000000000006e-03  3.23062299999999983e-02
1.20000000000000002e-02  3.00000000000000006e-03  3.53831599999999968e-02
1.20000000000000002e-02  5.99999899999999978e-03  3.07627200000000003e-02
1.20000000000000002e-02  2.99999900000000016e-03  3.84608300000000014e-02
1.20000000000000002e-02  2.99999900000000016e-03  4.15377499999999983e-02
1.20000000000000002e-02  5.99999899999999978e-03  3.69209100000000012e-02
1.20000000000000002e-02  2.99999799999999981e-03  4.46140500000000023e-02
1.20000000000000002e-02  2.99999799999999981e-03  4.76909800000000009e-02
1.20000000000000002e-02  5.99999800000000031e-03  4.30748800000000029e-02
1.20000000000000002e-02  2.99999699999999991e-03  5.07646900000000012e-02
1.20000000000000002e-02  2.99999699999999991e-03  5.38416099999999981e-02
1.20000000000000002e-02  5.99999500000000015e-03  4.92249000000000020e-02
1.20000000000000002e-02  2.99999299999999984e-03  5.69065799999999983e-02
1.20000000000000002e-02  2.99999299999999984e-03  5.99835000000000021e-02
1.20000000000000002e-02  5.99999000000000018e-03  5.53635800000000025e-02
1.20000000000000002e-02  2.99998900000000021e-03  6.30174200000000045e-02
1.20000000000000002e-02  2.99998900000000021e-03  6.60943499999999962e-02
1.20000000000000002e-02  5.99998200000000006e-03  6.14624599999999965e-02
1.20000000000000002e-02  2.99998799999999987e-03  6.90248100000000059e-02
1.20000000000000002e-02  2.99998799999999987e-03  7.21017300000000028e-02
1.20000000000000002e-02  5.99997700000000009e-03  6.74268400000000018e-02
1.20000000000000002e-02  2.99998699999999997e-03  7.47517600000000004e-02
1.20000000000000002e-02  2.99998699999999997e-03  7.78286799999999973e-02
1.20000000000000002e-02  5.99998700000000003e-03  7.78286799999999973e-02
1.20000000000000002e-02  5.99997500000000027e-03  7.30073299999999953e-02
1.20000000000000002e-02  8.99998699999999922e-03  7.78286799999999973e-02
1.20000000000000002e-02  8.99999999999999932e-03  3.07692300000000007e-03
[...]
POINT_DATA 281

SCALARS Rank unsigned_int
LOOKUP_TABLE default
0 0 0 0 0 0 0 0 0 0 0 0 0 0 0 0 0 0 0 0 0 0 0 0 0 0 0 0 0 0 0 0 0 0 0 0 0 0 0 0 0 0 0 0 0 0 0 0 0 0 0 0 0 0 0 0 0 0 0 0 0 0 0 0 0 0 0 0 0 0 0 0 0 0 0 0 0 0 0 0 0 0 0 0 0 0 0 0 0 0 0 0 0 0 0 0 0 0 0 0 0 0 0 0 0 0 0 0 0 0 0 0 0 0 0 0 0 0 0 0 0 0 0 0 0 0 0 0 0 0 0 0 0 0 0 0 0 0 0 0 0 0 0 0 0 0 0 0 0 0 0 0 0 0 0 0 0 0 0 0 0 0 0 0 0 0 0 0 0 0 0 0 0 0 0 0 0 0 0 0 0 0 0 0 0 0 0 0 0 0 0 0 0 0 0 0 0 0 0 0 0 0 0 0 0 0 0 0 0 0 0 0 0 0 0 0 0 0 0 0 0 0 0 0 0 0 0 0 0 0 0 0 0 0 0 0 0 0 0 0 0 0 0 0 0 0 0 0 0 0 0 0 0 0 0 0 0 0 0 0 0 0 0 0 0 0 0 0 0 0 0 0 0 0 0 0 0 0 0 0 0 

VECTORS Forces0 double
1.12482451618302049e-05 0.00000000000000000e+00 1.72035423151368881e-07 
1.06862837042617508e-05 0.00000000000000000e+00 -1.18043280924517103e-07 
8.55282973759297162e-06 0.00000000000000000e+00 8.86954399489583463e-08 
6.13410363691961892e-06 0.00000000000000000e+00 -6.35830390181216381e-08 
3.70251854344417788e-06 0.00000000000000000e+00 8.47841464254666084e-08 
1.26182425684839989e-06 0.00000000000000000e+00 -1.86751308386399842e-07 
2.87365045952789230e-07 0.00000000000000000e+00 -5.10390521537788991e-07 
1.12421772155670417e-05 0.00000000000000000e+00 4.13262388662369431e-08 
9.75806895406976295e-06 0.00000000000000000e+00 -9.64780113319623621e-08 
7.32197885488231028e-06 0.00000000000000000e+00 1.59348498404402737e-07 
4.95547551433823141e-06 0.00000000000000000e+00 -2.37651887134274684e-07 
2.44518325781174052e-06 0.00000000000000000e+00 3.91617092262004703e-07 
1.06344785524924655e-05 0.00000000000000000e+00 1.67254692059122733e-08 
1.13846090626471639e-05 0.00000000000000000e+00 1.57275516874586720e-07 
1.11546507840629476e-05 0.00000000000000000e+00 1.66447301202920813e-07 
1.04218010877925274e-05 0.00000000000000000e+00 -1.33778829828650544e-07 
1.09223665534539393e-05 0.00000000000000000e+00 -9.05028083024673838e-08 
8.30174163545480927e-06 0.00000000000000000e+00 1.30270869288778748e-07 
8.82309749383123703e-06 0.00000000000000000e+00 3.96898929966358853e-08 
5.80959170755978112e-06 0.00000000000000000e+00 -1.36130701355971542e-07 
6.47393079230978945e-06 0.00000000000000000e+00 1.07383720419041636e-08 
3.40850172365510297e-06 0.00000000000000000e+00 2.12787633723420564e-07 
3.99166383322895537e-06 0.00000000000000000e+00 -3.68928673108166676e-08 
9.15480123602545846e-07 0.00000000000000000e+00 -4.17533751862334976e-07 
1.53655835769690786e-06 0.00000000000000000e+00 6.45886785771181828e-09 
-3.31908826887999578e-08 0.00000000000000000e+00 -1.92832179385537875e-07 
4.35475618971031972e-07 0.00000000000000000e+00 -5.56741370284790094e-07 
7.44452158611552830e-07 0.00000000000000000e+00 -5.03836847668601316e-07 
-3.31908826919915780e-08 0.00000000000000000e+00 -1.92832179365666059e-07 
4.35475618969667402e-07 0.00000000000000000e+00 -5.56741370313008784e-07 
-3.31908826916951165e-08 0.00000000000000000e+00 -1.92832179366308110e-07 
1.06344785524940478e-05 0.00000000000000000e+00 1.67254692291798449e-08 
1.11546507840616059e-05 0.00000000000000000e+00 1.66447301241906404e-07 
1.13846090626482498e-05 0.00000000000000000e+00 1.57275516872395340e-07 
1.09223665534539461e-05 0.00000000000000000e+00 -9.05028083200922071e-08 
1.04218010877934676e-05 0.00000000000000000e+00 -1.33778829826561866e-07 
8.82309749383367817e-06 0.00000000000000000e+00 3.96898930070922158e-08 
8.30174163545528361e-06 0.00000000000000000e+00 1.30270869285622279e-07 
6.47393079231102019e-06 0.00000000000000000e+00 1.07383720437941058e-08 
5.80959170755872572e-06 0.00000000000000000e+00 -1.36130701350297692e-07 
3.99166383322686912e-06 0.00000000000000000e+00 -3.68928673100476675e-08 
3.40850172365533675e-06 0.00000000000000000e+00 2.12787633729360276e-07 
1.53655835769546028e-06 0.00000000000000000e+00 6.45886786615504270e-09 
9.15480123595741630e-07 0.00000000000000000e+00 -4.17533751859070194e-07 
1.08836582286764669e-05 0.00000000000000000e+00 8.36134483408972435e-08 
1.13569519300582112e-05 0.00000000000000000e+00 8.43163316346449630e-08 
1.14528369260017866e-05 0.00000000000000000e+00 1.30107160660442878e-07 
1.11320687327250909e-05 0.00000000000000000e+00 -7.32983681623036992e-09 
1.10416309076160435e-05 0.00000000000000000e+00 -5.10135180073566611e-08 
9.12786522357343711e-06 0.00000000000000000e+00 -1.11773471084063979e-08 
9.45848169422927661e-06 0.00000000000000000e+00 -5.78988330541869253e-08 
9.96817037854548374e-06 0.00000000000000000e+00 -1.22772480271273131e-07 
9.45848169423160764e-06 0.00000000000000000e+00 -5.78988330696278330e-08 
6.76712548636694260e-06 0.00000000000000000e+00 7.71982508453762909e-08 
7.03300065703547754e-06 0.00000000000000000e+00 1.27843847817922136e-07 
7.64694214973158565e-06 0.00000000000000000e+00 1.69160968886010311e-07 
7.03300065703439504e-06 0.00000000000000000e+00 1.27843847830004002e-07 
4.30061107366750579e-06 0.00000000000000000e+00 -1.39177456391372807e-07 
4.62462929192200574e-06 0.00000000000000000e+00 -2.06591261678823421e-07 
5.23927886250027179e-06 0.00000000000000000e+00 -2.32084933826832957e-07 
4.62462929192293155e-06 0.00000000000000000e+00 -2.06591261679899259e-07 
1.86111796320373906e-06 0.00000000000000000e+00 2.08706245411299669e-07 
2.12340500723008033e-06 0.00000000000000000e+00 3.24090188723175005e-07 
2.75612611092622398e-06 0.00000000000000000e+00 3.82855630723618875e-07 
2.12340500722907109e-06 0.00000000000000000e+00 3.24090188706925313e-07 
5.51286801088837152e-06 0.00000000000000000e+00 -1.95717340819844057e-07 
1.11320687327259854e-05 0.00000000000000000e+00 -7.32983679877805013e-09 
1.01815945983441988e-05 0.00000000000000000e+00 -1.35664254819631072e-07 
9.96817037854578359e-06 0.00000000000000000e+00 -1.22772480245574733e-07 
1.13569519300571423e-05 0.00000000000000000e+00 8.43163316395328063e-08 
7.99318924575760387e-06 0.00000000000000000e+00 1.58707048655978057e-07 
7.64694214973071490e-06 0.00000000000000000e+00 1.69160968884203696e-07 
5.23927886249802800e-06 0.00000000000000000e+00 -2.32084933821368959e-07 
3.09230101457756900e-06 0.00000000000000000e+00 3.15875397858105281e-07 
2.75612611092678091e-06 0.00000000000000000e+00 3.82855630738268522e-07 
1.87424826926301099e-06 0.00000000000000000e+00 6.11967683951457928e-07 
-2.97069773277487116e-07 0.00000000000000000e+00 6.18011812421712315e-07 
-9.76532356655432129e-07 0.00000000000000000e+00 -2.42259494831004931e-07 
-9.76532356654668952e-07 0.00000000000000000e+00 -2.42259494794488017e-07 
-9.76532356658279854e-07 0.00000000000000000e+00 -2.42259494819011315e-07 
1.87424826926438700e-06 0.00000000000000000e+00 6.11967683973160182e-07 
-9.76532356652130395e-07 0.00000000000000000e+00 -2.42259494820907663e-07 
9.86578820376299641e-06 0.00000000000000000e+00 -2.40589651524952498e-07 
-7.16993757205313467e-07 0.00000000000000000e+00 1.71265907415294510e-07 
-3.99624120126721837e-07 0.00000000000000000e+00 4.11440281463411776e-08 
-5.91134596676790729e-08 0.00000000000000000e+00 -1.17312441152289122e-07 
3.44712274499438271e-07 0.00000000000000000e+00 -9.55783172155274630e-08 
8.34370403558484086e-07 0.00000000000000000e+00 8.93656438647663592e-08 
1.42415054149926272e-06 0.00000000000000000e+00 1.59551192629110354e-07 
2.09231031955193992e-06 0.00000000000000000e+00 -6.51675165944935643e-08 
2.75744656725977960e-06 0.00000000000000000e+00 -2.43022162026562976e-07 
3.25580385036171061e-06 0.00000000000000000e+00 7.74259091940308385e-08 
3.45612265348494219e-06 0.00000000000000000e+00 3.83087410160543130e-07 
3.27394175895215754e-06 0.00000000000000000e+00 -1.99428258475364009e-07 
2.71513866876693003e-06 0.00000000000000000e+00 -5.27845202680164827e-07 
-9.34466844913577142e-07 0.00000000000000000e+00 1.58908304848901204e-08 
-7.72552219359183284e-07 0.00000000000000000e+00 1.65622293069405750e-07 
-6.36106344763954019e-07 0.00000000000000000e+00 1.56836174949825886e-07 
-4.76312765506565493e-07 0.00000000000000000e+00 8.41518890466053864e-08 
-3.14294564791524843e-07 0.00000000000000000e+00 -7.35372003602111514e-09 
-5.68601918690385869e-07 0.00000000000000000e+00 1.29983496531558020e-07 
-1.44798142162001758e-07 0.00000000000000000e+00 -8.98781213075247030e-08 
3.37346039416812623e-08 0.00000000000000000e+00 -1.32998205942099492e-07 
-2.33083870874450665e-07 0.00000000000000000e+00 -5.07416481959474592e-08 
2.35853996828702864e-07 0.00000000000000000e+00 -1.21913218117356532e-07 
4.55516742480919293e-07 0.00000000000000000e+00 -5.68513261957386819e-08 
1.30484821525070780e-07 0.00000000000000000e+00 -1.34840857227557354e-07 
6.97718511673291483e-07 0.00000000000000000e+00 4.07114364158778707e-08 
9.80459675554362012e-07 0.00000000000000000e+00 1.30446833215972973e-07 
5.70990172803293802e-07 0.00000000000000000e+00 -1.00338061309578748e-08 
1.26928848431973843e-06 0.00000000000000000e+00 1.69537073484065054e-07 
1.59118448676800642e-06 0.00000000000000000e+00 1.27310743821539759e-07 
1.12396460129332156e-06 0.00000000000000000e+00 1.58878911801471704e-07 
1.93464977874518742e-06 0.00000000000000000e+00 8.67970567304555985e-09 
2.25525408277435192e-06 0.00000000000000000e+00 -1.37799929938545577e-07 
1.76557766775671538e-06 0.00000000000000000e+00 7.55928843904041261e-08 
2.59729498363430254e-06 0.00000000000000000e+00 -2.36353231923801889e-07 
2.89026564715856255e-06 0.00000000000000000e+00 -2.11216884035558636e-07 
2.42412209116683753e-06 0.00000000000000000e+00 -1.98304390436087302e-07 
3.13830326949166449e-06 0.00000000000000000e+00 -4.21886131202881023e-08 
3.35740842440310583e-06 0.00000000000000000e+00 2.03271074662552557e-07 
3.01404683245158409e-06 0.00000000000000000e+00 -1.43488149486258195e-07 
3.43862293540457710e-06 0.00000000000000000e+00 3.74978862957000311e-07 
3.46193913165124468e-06 0.00000000000000000e+00 3.13045684438166942e-07 
3.40798421686055598e-06 0.00000000000000000e+00 3.07241759766126496e-07 
3.37404973551030591e-06 0.00000000000000000e+00 -7.47500512635231241e-09 
3.11833818077761846e-06 0.00000000000000000e+00 -4.30069227092952748e-07 
3.44764437105190274e-06 0.00000000000000000e+00 1.95013274491507294e-07 
2.83446667798839455e-06 0.00000000000000000e+00 -5.72968372487609867e-07 
2.32363008001093724e-06 0.00000000000000000e+00 -2.05107237769077035e-07 
2.32363008001020456e-06 0.00000000000000000e+00 -2.05107237775384890e-07 
3.02874668250126779e-06 0.00000000000000000e+00 -5.17229161498615375e-07 
2.32363008000869557e-06 0.00000000000000000e+00 -2.05107237776411917e-07 
-9.34466844917305781e-07 0.00000000000000000e+00 1.58908304945041826e-08 
-6.36106344765971652e-07 0.00000000000000000e+00 1.56836174995528396e-07 
-7.72552219359301869e-07 0.00000000000000000e+00 1.65622293053685931e-07 
-3.14294564790001878e-07 0.00000000000000000e+00 -7.35372004639843342e-09 
-4.76312765501001757e-07 0.00000000000000000e+00 8.41518890255810757e-08 
3.37346039432597082e-08 0.00000000000000000e+00 -1.32998205945291323e-07 
-1.44798142161249169e-07 0.00000000000000000e+00 -8.98781213307161475e-08 
4.55516742482476987e-07 0.00000000000000000e+00 -5.68513262036531460e-08 
2.35853996824742138e-07 0.00000000000000000e+00 -1.21913218116319869e-07 
9.80459675553822241e-07 0.00000000000000000e+00 1.30446833223832751e-07 
6.97718511673964663e-07 0.00000000000000000e+00 4.07114364197593992e-08 
1.59118448676904785e-06 0.00000000000000000e+00 1.27310743827532120e-07 
1.26928848431971980e-06 0.00000000000000000e+00 1.69537073481054116e-07 
2.25525408277230295e-06 0.00000000000000000e+00 -1.37799929950509864e-07 
1.93464977874426288e-06 0.00000000000000000e+00 8.67970567198385699e-09 
2.89026564715917326e-06 0.00000000000000000e+00 -2.11216884044663552e-07 
2.59729498363428517e-06 0.00000000000000000e+00 -2.36353231918668499e-07 
3.35740842440333707e-06 0.00000000000000000e+00 2.03271074648294240e-07 
3.13830326948725526e-06 0.00000000000000000e+00 -4.21886131071092754e-08 
3.46193913165094017e-06 0.00000000000000000e+00 3.13045684425607349e-07 
3.43862293540733928e-06 0.00000000000000000e+00 3.74978862943049467e-07 
3.11833818077890087e-06 0.00000000000000000e+00 -4.30069227100276830e-07 
3.37404973551320319e-06 0.00000000000000000e+00 -7.47500513869654707e-09 
-8.98881648312480204e-07 0.00000000000000000e+00 8.30232613736879032e-08 
2.83446667798807903e-06 0.00000000000000000e+00 -5.72968372470893248e-07 
-2.97069773274617369e-07 0.00000000000000000e+00 6.18011812405016449e-07 
1.10614785991700688e-05 0.00000000000000000e+00 1.45218235793315232e-07 
1.14462730199388035e-05 0.00000000000000000e+00 1.22286389796450412e-07 
1.10364109736723610e-05 0.00000000000000000e+00 -5.33878685350687927e-08 
1.01781497795944632e-05 0.00000000000000000e+00 -1.35580399991937089e-07 
9.12650804071084290e-06 0.00000000000000000e+00 -1.09680480457092526e-08 
7.99270311162173626e-06 0.00000000000000000e+00 1.58735090923556108e-07 
6.76677603120834484e-06 0.00000000000000000e+00 7.71195455137090801e-08 
5.51178562260292403e-06 0.00000000000000000e+00 -1.95906518999910384e-07 
4.29624690464675406e-06 0.00000000000000000e+00 -1.37993612414990591e-07 
3.07572550311945866e-06 0.00000000000000000e+00 3.20288059684194110e-07 
1.80870764373382173e-06 0.00000000000000000e+00 1.79615630359366082e-07 
5.92100628512914094e-07 0.00000000000000000e+00 -5.51541299081875291e-07 
1.06344785524931601e-05 0.00000000000000000e+00 1.67254691924590608e-08 
1.12899897803980395e-05 0.00000000000000000e+00 1.70161800125047316e-07 
1.12317291446598804e-05 0.00000000000000000e+00 3.71339810402768045e-08 
1.06799236690121043e-05 0.00000000000000000e+00 -1.18572615650469547e-07 
9.75653368310014301e-06 0.00000000000000000e+00 -9.62624419187902469e-08 
8.55234860990945746e-06 0.00000000000000000e+00 8.87825354394316427e-08 
7.32169739327762849e-06 0.00000000000000000e+00 1.59329479711568636e-07 
6.13351954761885464e-06 0.00000000000000000e+00 -6.37133457955116954e-08 
4.95359131387833974e-06 0.00000000000000000e+00 -2.37581345401187278e-07 
3.69635773391892844e-06 0.00000000000000000e+00 8.75343228681046371e-08 
2.42070278228941390e-06 0.00000000000000000e+00 3.89451246681510378e-07 
1.17820658006045459e-06 0.00000000000000000e+00 -2.45478562433517256e-07 
9.39368958311430647e-08 0.00000000000000000e+00 -3.74066919550803034e-07 
1.48958100919161953e-07 0.00000000000000000e+00 8.82958783124392657e-06 
1.48958100919953929e-07 0.00000000000000000e+00 8.82958783122609483e-06 
1.39654066934696749e-06 0.00000000000000000e+00 8.82699172476327789e-06 
1.39654066934559656e-06 0.00000000000000000e+00 8.82699172474252728e-06 
7.66255284093369685e-07 0.00000000000000000e+00 1.57894658295449960e-05 
7.66255284091204669e-07 0.00000000000000000e+00 1.57894658295589958e-05 
1.48958100920697624e-07 0.00000000000000000e+00 8.82958783123094833e-06 
1.39654066934600229e-06 0.00000000000000000e+00 8.82699172476865655e-06 
1.87424826926395162e-06 0.00000000000000000e+00 6.11967683953414150e-07 
1.87424826926147575e-06 0.00000000000000000e+00 6.11967683950729479e-07 
1.87424826926313847e-06 0.00000000000000000e+00 6.11967683942965575e-07 
-2.97069773275741381e-07 0.00000000000000000e+00 6.18011812419449890e-07 
-2.97069773276889111e-07 0.00000000000000000e+00 6.18011812404556086e-07 
-2.97069773277724286e-07 0.00000000000000000e+00 6.18011812409817431e-07 
-8.26959849005967582e-07 0.00000000000000000e+00 1.44472507550988643e-07 
-5.51733648935199895e-07 0.00000000000000000e+00 1.22178641455813092e-07 
-2.28334046100798211e-07 0.00000000000000000e+00 -5.30962693844654928e-08 
1.32026604357218849e-07 0.00000000000000000e+00 -1.34756406106922064e-07 
5.71500449806340945e-07 0.00000000000000000e+00 -9.82418934875765492e-09 
1.12416423304960450e-06 0.00000000000000000e+00 1.58907486538147663e-07 
1.76581104583404162e-06 0.00000000000000000e+00 7.55127299843932154e-08 
2.42477973932802912e-06 0.00000000000000000e+00 -1.98498509570335767e-07 
3.01574784981720301e-06 0.00000000000000000e+00 -1.42309918425409541e-07 
3.40984998739543787e-06 0.00000000000000000e+00 3.11714860263057388e-07 
3.44112547954238502e-06 0.00000000000000000e+00 1.65501011343630210e-07 
2.93958057986665843e-06 0.00000000000000000e+00 -5.66163258188357147e-07 
-9.34466844919499596e-07 0.00000000000000000e+00 1.58908305057704884e-08 
-6.92692818726483373e-07 0.00000000000000000e+00 1.69462554147510983e-07 
-3.92328821498919801e-07 0.00000000000000000e+00 3.69573123235986456e-08 
-5.69694375005861444e-08 0.00000000000000000e+00 -1.17840432167442102e-07 
3.45441036013144311e-07 0.00000000000000000e+00 -9.53623258475285723e-08 
8.34639202994754889e-07 0.00000000000000000e+00 8.94521627889924675e-08 
1.42429818601432846e-06 0.00000000000000000e+00 1.59531755140674875e-07 
2.09258672021304847e-06 0.00000000000000000e+00 -6.52972979216222428e-08 
2.75828131872731513e-06 0.00000000000000000e+00 -2.42949545929277390e-07 
3.25823394222309628e-06 0.00000000000000000e+00 8.01205381752760098e-08 
3.45708543301013252e-06 0.00000000000000000e+00 3.80796398760172609e-07 
3.23928429226480985e-06 0.00000000000000000e+00 -2.57904615042768876e-07 
2.50059417443007513e-06 0.00000000000000000e+00 -3.89355228175474298e-07 
9.86578820376250513e-06 0.00000000000000000e+00 -2.40589651507455550e-07 
9.86578820376076363e-06 0.00000000000000000e+00 -2.40589651522329660e-07 
9.86578820376060947e-06 0.00000000000000000e+00 -2.40589651515383778e-07 
7.66255284095147607e-07 0.00000000000000000e+00 1.57894658295557635e-05 
1.48958100915848361e-07 0.00000000000000000e+00 8.82958783124147695e-06 
1.39654066934681926e-06 0.00000000000000000e+00 8.82699172474687425e-06 
-8.26959849005323837e-07 0.00000000000000000e+00 1.44472507564776646e-07 
-5.51733648936633922e-07 0.00000000000000000e+00 1.22178641455865926e-07 
-2.28334046099399336e-07 0.00000000000000000e+00 -5.30962693870386730e-08 
1.32026604356544187e-07 0.00000000000000000e+00 -1.34756406108681457e-07 
5.71500449807490369e-07 0.00000000000000000e+00 -9.82418933317373100e-09 
1.12416423305154972e-06 0.00000000000000000e+00 1.58907486544982372e-07 
1.76581104583540111e-06 0.00000000000000000e+00 7.55127299804260042e-08 
2.42477973932819386e-06 0.00000000000000000e+00 -1.98498509571480108e-07 
3.01574784981886065e-06 0.00000000000000000e+00 -1.42309918419756285e-07 
3.40984998739445531e-06 0.00000000000000000e+00 3.11714860255376705e-07 
3.44112547953982952e-06 0.00000000000000000e+00 1.65501011352372649e-07 
2.93958057986544929e-06 0.00000000000000000e+00 -5.66163258188278796e-07 
-9.34466844918867710e-07 0.00000000000000000e+00 1.58908304867454402e-08 
-6.92692818724242971e-07 0.00000000000000000e+00 1.69462554143626702e-07 
-3.92328821500132752e-07 0.00000000000000000e+00 3.69573123257377214e-08 
-5.69694375000834304e-08 0.00000000000000000e+00 -1.17840432168371933e-07 
3.45441036012772887e-07 0.00000000000000000e+00 -9.53623258575187965e-08 
8.34639202994265940e-07 0.00000000000000000e+00 8.94521627880021801e-08 
1.42429818601401358e-06 0.00000000000000000e+00 1.59531755148284433e-07 
2.09258672021322211e-06 0.00000000000000000e+00 -6.52972979185432780e-08 
2.75828131872761328e-06 0.00000000000000000e+00 -2.42949545928953030e-07 
3.25823394222345034e-06 0.00000000000000000e+00 8.01205381791337155e-08 
3.45708543300923298e-06 0.00000000000000000e+00 3.80796398762943677e-07 
3.23928429226667883e-06 0.00000000000000000e+00 -2.57904615051595065e-07 
2.50059417443153626e-06 0.00000000000000000e+00 -3.89355228163951897e-07 
9.86578820376204434e-06 0.00000000000000000e+00 -2.40589651523912765e-07 
1.10614785991753950e-05 0.00000000000000000e+00 1.45218235813346502e-07 
1.14462730199392779e-05 0.00000000000000000e+00 1.22286389813125843e-07 
1.10364109736716139e-05 0.00000000000000000e+00 -5.33878685367252450e-08 
1.01781497795939669e-05 0.00000000000000000e+00 -1.35580399982948058e-07 
9.12650804071189830e-06 0.00000000000000000e+00 -1.09680480295280117e-08 
7.99270311162257821e-06 0.00000000000000000e+00 1.58735090931941946e-07 
6.76677603120833382e-06 0.00000000000000000e+00 7.71195455186210242e-08 