# vtk DataFile Version 2.0

ASCII

DATASET UNSTRUCTURED_GRID

POINTS 281 double 

0.00000000000000000e+00  6.00000000000000012e-03  8.68039800000000063e-03
0.00000000000000000e+00  6.00000000000000012e-03  2.15013699999999988e-02
0.00000000000000000e+00  5.99999699999999997e-03  3.38432499999999983e-02
0.00000000000000000e+00  6.00000000000000012e-03  4.61511800000000000e-02
0.00000000000000000e+00  5.99999399999999981e-03  5.84285100000000029e-02
0.00000000000000000e+00  5.99999899999999978e-03  7.03572799999999943e-02
0.00000000000000000e+00  6.00000000000000012e-03  7.56573400000000035e-02
0.00000000000000000e+00  6.00000000000000012e-03  1.52458600000000000e-02
0.00000000000000000e+00  5.99999899999999978e-03  2.76822099999999988e-02
0.00000000000000000e+00  5.99999899999999978e-03  3.99985900000000005e-02
0.00000000000000000e+00  5.99999800000000031e-03  5.22986000000000006e-02
0.00000000000000000e+00  5.99999800000000031e-03  6.44963600000000026e-02
0.00000000000000000e+00  3.00000000000000006e-03  3.07692300000000007e-03
0.00000000000000000e+00  3.00000000000000006e-03  1.04940499999999996e-02
0.00000000000000000e+00  3.00000000000000006e-03  7.41712199999999995e-03
0.00000000000000000e+00  3.00000000000000006e-03  2.30583799999999998e-02
0.00000000000000000e+00  3.00000000000000006e-03  1.99814599999999995e-02
0.00000000000000000e+00  2.99999900000000016e-03  3.53831699999999985e-02
0.00000000000000000e+00  2.99999900000000016e-03  3.23062400000000000e-02
0.00000000000000000e+00  3.00000000000000006e-03  4.76909699999999992e-02
0.00000000000000000e+00  3.00000000000000006e-03  4.46140500000000023e-02
0.00000000000000000e+00  2.99999699999999991e-03  5.99834799999999987e-02
0.00000000000000000e+00  2.99999699999999991e-03  5.69065600000000019e-02
0.00000000000000000e+00  2.99999900000000016e-03  7.21017199999999941e-02
0.00000000000000000e+00  2.99999900000000016e-03  6.90247900000000025e-02
0.00000000000000000e+00  3.00000000000000006e-03  7.78286700000000026e-02
0.00000000000000000e+00  3.00000000000000006e-03  7.47517500000000057e-02
0.00000000000000000e+00  5.99999899999999978e-03  7.30073100000000058e-02
0.00000000000000000e+00  6.00000000000000012e-03  7.78286700000000026e-02
0.00000000000000000e+00  8.99999999999999932e-03  7.47517500000000057e-02
0.00000000000000000e+00  8.99999999999999932e-03  7.78286700000000026e-02
0.00000000000000000e+00  8.99999999999999932e-03  3.07692300000000007e-03
0.00000000000000000e+00  8.99999999999999932e-03  7.41712199999999995e-03
0.00000000000000000e+00  8.99999999999999932e-03  1.04940499999999996e-02
0.00000000000000000e+00  8.99999999999999932e-03  1.99814599999999995e-02
0.00000000000000000e+00  8.99999999999999932e-03  2.30583799999999998e-02
0.00000000000000000e+00  8.99999899999999985e-03  3.23062400000000000e-02
0.00000000000000000e+00  8.99999899999999985e-03  3.53831699999999985e-02
0.00000000000000000e+00  8.99999999999999932e-03  4.46140500000000023e-02
0.00000000000000000e+00  8.99999999999999932e-03  4.76909699999999992e-02
0.00000000000000000e+00  8.99999699999999916e-03  5.69065600000000019e-02
0.00000000000000000e+00  8.99999699999999916e-03  5.99834799999999987e-02
0.00000000000000000e+00  8.99999899999999985e-03  6.90247900000000025e-02
0.00000000000000000e+00  8.99999899999999985e-03  7.21017199999999941e-02
0.00000000000000000e+00  6.00000000000000012e-03  4.34019900000000031e-03
0.00000000000000000e+00  3.00000000000000006e-03  1.37767800000000006e-02
0.00000000000000000e+00  6.00000000000000012e-03  1.19631300000000006e-02
0.00000000000000000e+00  3.00000000000000006e-03  1.68536999999999992e-02
0.00000000000000000e+00  6.00000000000000012e-03  1.83736200000000002e-02
0.00000000000000000e+00  5.99999800000000031e-03  3.07627299999999985e-02
0.00000000000000000e+00  3.00000000000000006e-03  2.92257200000000002e-02
0.00000000000000000e+00  3.00000000000000006e-03  2.61487999999999998e-02
0.00000000000000000e+00  8.99999999999999932e-03  2.92257200000000002e-02
0.00000000000000000e+00  6.00000000000000012e-03  4.30748800000000029e-02
0.00000000000000000e+00  2.99999900000000016e-03  4.15377600000000000e-02
0.00000000000000000e+00  2.99999900000000016e-03  3.84608300000000014e-02
0.00000000000000000e+00  8.99999899999999985e-03  4.15377600000000000e-02
0.00000000000000000e+00  5.99999599999999963e-03  5.53635499999999975e-02
0.00000000000000000e+00  2.99999900000000016e-03  5.38416099999999981e-02
0.00000000000000000e+00  2.99999900000000016e-03  5.07646799999999995e-02
0.00000000000000000e+00  8.99999899999999985e-03  5.38416099999999981e-02
0.00000000000000000e+00  5.99999800000000031e-03  6.74268199999999984e-02
0.00000000000000000e+00  2.99999900000000016e-03  6.60943300000000067e-02
0.00000000000000000e+00  2.99999900000000016e-03  6.30174099999999959e-02
0.00000000000000000e+00  8.99999899999999985e-03  6.60943300000000067e-02
0.00000000000000000e+00  5.99999899999999978e-03  4.92248900000000003e-02
0.00000000000000000e+00  8.99999999999999932e-03  1.68536999999999992e-02
0.00000000000000000e+00  5.99999899999999978e-03  2.45917899999999988e-02
0.00000000000000000e+00  8.99999999999999932e-03  2.61487999999999998e-02
0.00000000000000000e+00  8.99999999999999932e-03  1.37767800000000006e-02
0.00000000000000000e+00  5.99999800000000031e-03  3.69209200000000029e-02
0.00000000000000000e+00  8.99999899999999985e-03  3.84608300000000014e-02
0.00000000000000000e+00  8.99999899999999985e-03  5.07646799999999995e-02
0.00000000000000000e+00  5.99999599999999963e-03  6.14624299999999985e-02
0.00000000000000000e+00  8.99999899999999985e-03  6.30174099999999959e-02
1.20000000000000002e-02  1.20000000000000002e-02  8.00000000000000017e-02
0.00000000000000000e+00  0.00000000000000000e+00  8.00000000000000017e-02
1.20000000000000002e-02  6.00000000000000012e-03  0.00000000000000000e+00
1.20000000000000002e-02  3.00000000000000006e-03  0.00000000000000000e+00
1.20000000000000002e-02  8.99999999999999932e-03  0.00000000000000000e+00
1.20000000000000002e-02  0.00000000000000000e+00  8.00000000000000017e-02
1.20000000000000002e-02  0.00000000000000000e+00  0.00000000000000000e+00
0.00000000000000000e+00  1.20000000000000002e-02  0.00000000000000000e+00
1.20000000000000002e-02  5.99999899999999978e-03  8.68039699999999942e-03
1.20000000000000002e-02  5.99999899999999978e-03  1.52458600000000000e-02
1.20000000000000002e-02  5.99999899999999978e-03  2.15013699999999988e-02
1.20000000000000002e-02  6.00000000000000012e-03  2.76822099999999988e-02
1.20000000000000002e-02  5.99999899999999978e-03  3.38432399999999967e-02
1.20000000000000002e-02  5.99999800000000031e-03  3.99985900000000005e-02
1.20000000000000002e-02  5.99999699999999997e-03  4.61511800000000000e-02
1.20000000000000002e-02  5.99999300000000034e-03  5.22986100000000023e-02
1.20000000000000002e-02  5.99998599999999969e-03  5.84285400000000010e-02
1.20000000000000002e-02  5.99997800000000043e-03  6.44963800000000059e-02
1.20000000000000002e-02  5.99997500000000027e-03  7.03572999999999976e-02
1.20000000000000002e-02  5.99997500000000027e-03  7.56573600000000068e-02
1.20000000000000002e-02  3.00000000000000006e-03  3.07692300000000007e-03
1.20000000000000002e-02  3.00000000000000006e-03  7.41712099999999961e-03
1.20000000000000002e-02  3.00000000000000006e-03  1.04940399999999996e-02
1.20000000000000002e-02  2.99999900000000016e-03  1.37767800000000006e-02
1.20000000000000002e-02  2.99999900000000016e-03  1.68536999999999992e-02
1.20000000000000002e-02  5.99999899999999978e-03  1.19631300000000006e-02
1.20000000000000002e-02  3.00000000000000006e-03  1.99814500000000013e-02
1.20000000000000002e-02  3.00000000000000006e-03  2.30583799999999998e-02
1.20000000000000002e-02  5.99999899999999978e-03  1.83736099999999986e-02
1.20000000000000002e-02  3.00000000000000006e-03  2.61487999999999998e-02
1.20000000000000002e-02  3.00000000000000006e-03  2.92257200000000002e-02
1.20000000000000002e-02  5.99999899999999978e-03  2.45917899999999988e-02
1.20000000000000002e-02  3.00000000000000006e-03  3.23062299999999983e-02
1.20000000000000002e-02  3.00000000000000006e-03  3.53831599999999968e-02
1.20000000000000002e-02  5.99999899999999978e-03  3.07627200000000003e-02
1.20000000000000002e-02  2.99999900000000016e-03  3.84608300000000014e-02
1.20000000000000002e-02  2.99999900000000016e-03  4.15377499999999983e-02
1.20000000000000002e-02  5.99999899999999978e-03  3.69209100000000012e-02
1.20000000000000002e-02  2.99999799999999981e-03  4.46140500000000023e-02
1.20000000000000002e-02  2.99999799999999981e-03  4.76909800000000009e-02
1.20000000000000002e-02  5.99999800000000031e-03  4.30748800000000029e-02
1.20000000000000002e-02  2.99999699999999991e-03  5.07646900000000012e-02
1.20000000000000002e-02  2.99999699999999991e-03  5.38416099999999981e-02
1.20000000000000002e-02  5.99999500000000015e-03  4.92249000000000020e-02
1.20000000000000002e-02  2.99999299999999984e-03  5.69065799999999983e-02
1.20000000000000002e-02  2.99999299999999984e-03  5.99835000000000021e-02
1.20000000000000002e-02  5.99999000000000018e-03  5.53635800000000025e-02
1.20000000000000002e-02  2.99998900000000021e-03  6.30174200000000045e-02
1.20000000000000002e-02  2.99998900000000021e-03  6.60943499999999962e-02
1.20000000000000002e-02  5.99998200000000006e-03  6.14624599999999965e-02
1.20000000000000002e-02  2.99998799999999987e-03  6.90248100000000059e-02
1.20000000000000002e-02  2.99998799999999987e-03  7.21017300000000028e-02
1.20000000000000002e-02  5.99997700000000009e-03  6.74268400000000018e-02
1.20000000000000002e-02  2.99998699999999997e-03  7.47517600000000004e-02
1.20000000000000002e-02  2.99998699999999997e-03  7.78286799999999973e-02
1.20000000000000002e-02  5.99998700000000003e-03  7.78286799999999973e-02
1.20000000000000002e-02  5.99997500000000027e-03  7.30073299999999953e-02
1.20000000000000002e-02  8.99998699999999922e-03  7.78286799999999973e-02
1.20000000000000002e-02  8.99999999999999932e-03  3.07692300000000007e-03
[...]
POINT_DATA 281

SCALARS Rank unsigned_int
LOOKUP_TABLE default
0 0 0 0 0 0 0 0 0 0 0 0 0 0 0 0 0 0 0 0 0 0 0 0 0 0 0 0 0 0 0 0 0 0 0 0 0 0 0 0 0 0 0 0 0 0 0 0 0 0 0 0 0 0 0 0 0 0 0 0 0 0 0 0 0 0 0 0 0 0 0 0 0 0 0 0 0 0 0 0 0 0 0 0 0 0 0 0 0 0 0 0 0 0 0 0 0 0 0 0 0 0 0 0 0 0 0 0 0 0 0 0 0 0 0 0 0 0 0 0 0 0 0 0 0 0 0 0 0 0 0 0 0 0 0 0 0 0 0 0 0 0 0 0 0 0 0 0 0 0 0 0 0 0 0 0 0 0 0 0 0 0 0 0 0 0 0 0 0 0 0 0 0 0 0 0 0 0 0 0 0 0 0 0 0 0 0 0 0 0 0 0 0 0 0 0 0 0 0 0 0 0 0 0 0 0 0 0 0 0 0 0 0 0 0 0 0 0 0 0 0 0 0 0 0 0 0 0 0 0 0 0 0 0 0 0 0 0 0 0 0 0 0 0 0 0 0 0 0 0 0 0 0 0 0 0 0 0 0 0 0 0 0 0 0 0 0 0 0 0 0 0 0 0 0 0 0 0 0 0 0 

VECTORS Forces0 double
1.33167376134635497e-05 0.00000000000000000e+00 2.06636322313202001e-07 
1.26886627622842113e-05 0.00000000000000000e+00 -1.43020119047732372e-07 
1.01486864447225787e-05 0.00000000000000000e+00 1.06448559828904885e-07 
7.24981747651628172e-06 0.00000000000000000e+00 -7.68212319091140046e-08 
4.37428659740502423e-06 0.00000000000000000e+00 1.02056213179258710e-07 
1.55395380183955840e-06 0.00000000000000000e+00 -2.25172385608687557e-07 
4.43776350492850847e-07 0.00000000000000000e+00 -6.15201779708279790e-07 
1.33324824876875057e-05 0.00000000000000000e+00 4.90996671622989831e-08 
1.15890845224286174e-05 0.00000000000000000e+00 -1.16996396722596334e-07 
8.67262453368780911e-06 0.00000000000000000e+00 1.91755161755382143e-07 
5.84799332758269069e-06 0.00000000000000000e+00 -2.86534083166970364e-07 
2.91329137686251223e-06 0.00000000000000000e+00 4.71800276882467007e-07 
1.25774261094637046e-05 0.00000000000000000e+00 1.96242448846390951e-08 
1.34847378594426959e-05 0.00000000000000000e+00 1.88656768450072437e-07 
1.32017944344900292e-05 0.00000000000000000e+00 1.99964734238565339e-07 
1.23764554616766388e-05 0.00000000000000000e+00 -1.61814923829726855e-07 
1.29663431317632687e-05 0.00000000000000000e+00 -1.09995134446365369e-07 
9.84704244829766659e-06 0.00000000000000000e+00 1.56468829047310031e-07 
1.04727543180388657e-05 0.00000000000000000e+00 4.74146464854238397e-08 
6.86283532010018110e-06 0.00000000000000000e+00 -1.64184050909957972e-07 
7.65553625183327132e-06 0.00000000000000000e+00 1.26550311292999448e-08 
4.03155483567597065e-06 0.00000000000000000e+00 2.56275699182756072e-07 
4.71250136503743289e-06 0.00000000000000000e+00 -4.45458020394826115e-08 
1.15792070530139592e-06 0.00000000000000000e+00 -5.03259813211619778e-07 
1.86908632568333184e-06 0.00000000000000000e+00 7.63059864129728993e-09 
7.93643456330993207e-08 0.00000000000000000e+00 -2.32535724462896878e-07 
6.11791491250742250e-07 0.00000000000000000e+00 -6.71038804492222342e-07 
9.62971308340508548e-07 0.00000000000000000e+00 -6.07261674220882248e-07 
7.93643456412367662e-08 0.00000000000000000e+00 -2.32535724458945046e-07 
6.11791491251377524e-07 0.00000000000000000e+00 -6.71038804506440425e-07 
7.93643456345350415e-08 0.00000000000000000e+00 -2.32535724465951703e-07 
1.25774261094647515e-05 0.00000000000000000e+00 1.96242448611686592e-08 
1.32017944344859177e-05 0.00000000000000000e+00 1.99964734235204313e-07 
1.34847378594377289e-05 0.00000000000000000e+00 1.88656768459199906e-07 
1.29663431317646579e-05 0.00000000000000000e+00 -1.09995134408652153e-07 
1.23764554616752751e-05 0.00000000000000000e+00 -1.61814923796865524e-07 
1.04727543180373038e-05 0.00000000000000000e+00 4.74146464828391716e-08 
9.84704244829713465e-06 0.00000000000000000e+00 1.56468829030718032e-07 
7.65553625183370161e-06 0.00000000000000000e+00 1.26550311161495465e-08 
6.86283532010055210e-06 0.00000000000000000e+00 -1.64184050922623020e-07 
4.71250136503640798e-06 0.00000000000000000e+00 -4.45458020345363626e-08 
4.03155483567573010e-06 0.00000000000000000e+00 2.56275699189326824e-07 
1.86908632568708292e-06 0.00000000000000000e+00 7.63059865200971562e-09 
1.15792070529872861e-06 0.00000000000000000e+00 -5.03259813204752035e-07 
1.28735592566824971e-05 0.00000000000000000e+00 1.00123879494495785e-07 
1.34636407900006608e-05 0.00000000000000000e+00 1.00769568189347588e-07 
1.35709519134615420e-05 0.00000000000000000e+00 1.55779783626378128e-07 
1.32069988389556312e-05 0.00000000000000000e+00 -9.52411512788136505e-09 
1.31040417895769210e-05 0.00000000000000000e+00 -6.22758839034195934e-08 
1.08373221728076120e-05 0.00000000000000000e+00 -1.39563525983234431e-08 
1.12319869577458204e-05 0.00000000000000000e+00 -7.04154018296261267e-08 
1.18390838272788396e-05 0.00000000000000000e+00 -1.48569506194457292e-07 
1.12319869577450123e-05 0.00000000000000000e+00 -7.04154018126029350e-08 
8.00661820685353975e-06 0.00000000000000000e+00 9.27365218395276279e-08 
8.32579226544174904e-06 0.00000000000000000e+00 1.53801581378386219e-07 
9.06222064971598432e-06 0.00000000000000000e+00 2.03497854170034175e-07 
8.32579226544107650e-06 0.00000000000000000e+00 1.53801581364755342e-07 
5.07528570575097904e-06 0.00000000000000000e+00 -1.67802911723301238e-07 
5.45705829581644557e-06 0.00000000000000000e+00 -2.49067465292066657e-07 
6.18430104556333080e-06 0.00000000000000000e+00 -2.79812903714833085e-07 
5.45705829581614911e-06 0.00000000000000000e+00 -2.49067465304813232e-07 
2.24163271263643592e-06 0.00000000000000000e+00 2.51340358675964851e-07 
2.54269768510848098e-06 0.00000000000000000e+00 3.90406066275878508e-07 
3.27295742185903823e-06 0.00000000000000000e+00 4.61243715518827211e-07 
2.54269768510893796e-06 0.00000000000000000e+00 3.90406066252848741e-07 
6.50947545923272243e-06 0.00000000000000000e+00 -2.35969198649263503e-07 
1.32069988389527631e-05 0.00000000000000000e+00 -9.52411514969137818e-09 
1.20922446196593459e-05 0.00000000000000000e+00 -1.64030456481226794e-07 
1.18390838272829579e-05 0.00000000000000000e+00 -1.48569506189142187e-07 
1.34636407900010995e-05 0.00000000000000000e+00 1.00769568213535143e-07 
9.47704497846901608e-06 0.00000000000000000e+00 1.90777372999783680e-07 
9.06222064971568447e-06 0.00000000000000000e+00 2.03497854154948835e-07 
6.18430104556125896e-06 0.00000000000000000e+00 -2.79812903718899479e-07 
3.66332557660024245e-06 0.00000000000000000e+00 3.80514793301111458e-07 
3.27295742185714553e-06 0.00000000000000000e+00 4.61243715522766761e-07 
1.90272287008979096e-06 0.00000000000000000e+00 7.37481962073793861e-07 
-2.20369406762673968e-07 0.00000000000000000e+00 7.44541924487794799e-07 
-9.80099414558048745e-07 0.00000000000000000e+00 -2.91849942790560530e-07 
-9.80099414553220657e-07 0.00000000000000000e+00 -2.91849942815121945e-07 
-9.80099414551972977e-07 0.00000000000000000e+00 -2.91849942835179102e-07 
1.90272287008654852e-06 0.00000000000000000e+00 7.37481962079046736e-07 
-9.80099414551126791e-07 0.00000000000000000e+00 -2.91849942837277521e-07 
1.16698255246872083e-05 0.00000000000000000e+00 -2.90097450823065089e-07 
-6.58149594000280802e-07 0.00000000000000000e+00 2.06432233528265389e-07 
-3.09237018009929149e-07 0.00000000000000000e+00 4.96209703082199521e-08 
3.94500369994568677e-08 0.00000000000000000e+00 -1.41382199400634298e-07 
4.38769011504112998e-07 0.00000000000000000e+00 -1.15226725727809763e-07 
9.23635579091777960e-07 0.00000000000000000e+00 1.07656596630965033e-07 
1.51991947942063559e-06 0.00000000000000000e+00 1.92271473391680327e-07 
2.21014787850685187e-06 0.00000000000000000e+00 -7.84722175587449222e-08 
2.90831711847964491e-06 0.00000000000000000e+00 -2.92699324426834358e-07 
3.43680243747467993e-06 0.00000000000000000e+00 9.35285344662243582e-08 
3.64819872307835371e-06 0.00000000000000000e+00 4.61909538238977009e-07 
3.44475908503254571e-06 0.00000000000000000e+00 -2.39920497024467867e-07 
2.82837334447208213e-06 0.00000000000000000e+00 -6.35642853841786656e-07 
-9.16703282995575306e-07 0.00000000000000000e+00 1.91918417951318435e-08 
-7.22305847538225577e-07 0.00000000000000000e+00 1.99626800730969482e-07 
-5.65696062788435577e-07 0.00000000000000000e+00 1.89048945536589390e-07 
-3.90411766572366963e-07 0.00000000000000000e+00 1.01456217211152289e-07 
-2.19962205572680746e-07 0.00000000000000000e+00 -8.83395382787079200e-09 
-4.90097761828071485e-07 0.00000000000000000e+00 1.56691334892110483e-07 
-4.60429561698693308e-08 0.00000000000000000e+00 -1.08309260743437401e-07 
1.31394650138069064e-07 0.00000000000000000e+00 -1.60296438850395584e-07 
-1.36060036026379955e-07 0.00000000000000000e+00 -6.11324917727070258e-08 
3.31157969671043006e-07 0.00000000000000000e+00 -1.46956533844348022e-07 
5.47727554036584481e-07 0.00000000000000000e+00 -6.85614834786934499e-08 
2.26928666607207281e-07 0.00000000000000000e+00 -1.62527059229060141e-07 
7.87061612456705692e-07 0.00000000000000000e+00 4.90143153859083324e-08 
1.07065875787084217e-06 0.00000000000000000e+00 1.57176192658141409e-07 
6.61348513797041945e-07 0.00000000000000000e+00 -1.21428277317859334e-08 
1.36220379426377861e-06 0.00000000000000000e+00 2.04293093060329956e-07 
1.69130284992386929e-06 0.00000000000000000e+00 1.53442746103948450e-07 
1.21523826073751107e-06 0.00000000000000000e+00 1.91445211329180802e-07 
2.04636954071325219e-06 0.00000000000000000e+00 1.05270659439105586e-08 
2.38022705421686477e-06 0.00000000000000000e+00 -1.65994359526312659e-07 
1.87125383509095177e-06 0.00000000000000000e+00 9.11484110302809104e-08 
2.73936462799717302e-06 0.00000000000000000e+00 -2.84689477338702799e-07 
3.04891663836392998e-06 0.00000000000000000e+00 -2.54394643728735265e-07 
2.55722346366890566e-06 0.00000000000000000e+00 -2.38881449335168073e-07 
3.31211067778921755e-06 0.00000000000000000e+00 -5.06804615513464501e-08 
3.54455115243930745e-06 0.00000000000000000e+00 2.45248376942219003e-07 
3.18022600306610843e-06 0.00000000000000000e+00 -1.72785164499246150e-07 
3.63048593096993765e-06 0.00000000000000000e+00 4.52113328518439848e-07 
3.65261376877162663e-06 0.00000000000000000e+00 3.77593058351781317e-07 
3.59828106918445727e-06 0.00000000000000000e+00 3.70509520831298787e-07 
3.55418346511862341e-06 0.00000000000000000e+00 -8.55603379791417624e-09 
3.27399133810345114e-06 0.00000000000000000e+00 -5.17885149927931654e-07 
3.63534759615105056e-06 0.00000000000000000e+00 2.35447564063906477e-07 
2.96036453871046198e-06 0.00000000000000000e+00 -6.90033576604747213e-07 
2.39827289321368503e-06 0.00000000000000000e+00 -2.46906776904653565e-07 
2.39827289321028208e-06 0.00000000000000000e+00 -2.46906776908200939e-07 
3.17522717817578964e-06 0.00000000000000000e+00 -6.22909262783460935e-07 
2.39827289321154246e-06 0.00000000000000000e+00 -2.46906776903780274e-07 
-9.16703282994350496e-07 0.00000000000000000e+00 1.91918418289108822e-08 
-5.65696062788362732e-07 0.00000000000000000e+00 1.89048945551687646e-07 
-7.22305847538836287e-07 0.00000000000000000e+00 1.99626800700872496e-07 
-2.19962205571988720e-07 0.00000000000000000e+00 -8.83395380869841300e-09 
-3.90411766572972592e-07 0.00000000000000000e+00 1.01456217213953003e-07 
1.31394650137260148e-07 0.00000000000000000e+00 -1.60296438826970782e-07 
-4.60429561698718719e-08 0.00000000000000000e+00 -1.08309260750519020e-07 
5.47727554038505552e-07 0.00000000000000000e+00 -6.85614834940238992e-08 
3.31157969669565780e-07 0.00000000000000000e+00 -1.46956533796365723e-07 
1.07065875787176967e-06 0.00000000000000000e+00 1.57176192657413914e-07 
7.87061612459160605e-07 0.00000000000000000e+00 4.90143153829903039e-08 
1.69130284992351650e-06 0.00000000000000000e+00 1.53442746093745515e-07 
1.36220379426236470e-06 0.00000000000000000e+00 2.04293093078729947e-07 
2.38022705421752715e-06 0.00000000000000000e+00 -1.65994359526796262e-07 
2.04636954071274651e-06 0.00000000000000000e+00 1.05270659308809684e-08 
3.04891663836660999e-06 0.00000000000000000e+00 -2.54394643734011857e-07 
2.73936462799445743e-06 0.00000000000000000e+00 -2.84689477325410734e-07 
3.54455115244149195e-06 0.00000000000000000e+00 2.45248376935574877e-07 
3.31211067778825701e-06 0.00000000000000000e+00 -5.06804615407542502e-08 
3.65261376877046493e-06 0.00000000000000000e+00 3.77593058356667003e-07 
3.63048593097195570e-06 0.00000000000000000e+00 4.52113328528945598e-07 
3.27399133810673593e-06 0.00000000000000000e+00 -5.17885149932884150e-07 
3.55418346511854379e-06 0.00000000000000000e+00 -8.55603379494341994e-09 
-8.71040548522919839e-07 0.00000000000000000e+00 1.00085738575072019e-07 
2.96036453870984068e-06 0.00000000000000000e+00 -6.90033576602633866e-07 
-2.20369406764611132e-07 0.00000000000000000e+00 7.44541924464232037e-07 
1.30878977716740918e-05 0.00000000000000000e+00 1.74385505051096907e-07 
1.35643979665763319e-05 0.00000000000000000e+00 1.46368572878447137e-07 
1.30980804756386336e-05 0.00000000000000000e+00 -6.51459192820832040e-08 
1.20881638725675154e-05 0.00000000000000000e+00 -1.63929606249783756e-07 
1.08357004889914719e-05 0.00000000000000000e+00 -1.37036110702075152e-08 
9.47646262849422952e-06 0.00000000000000000e+00 1.90811339371931677e-07 
8.00619889422985098e-06 0.00000000000000000e+00 9.26416221538423676e-08 
6.50818755337208703e-06 0.00000000000000000e+00 -2.36197176741902246e-07 
5.07015194565429889e-06 0.00000000000000000e+00 -1.66376123187171097e-07 
3.64404568707585052e-06 0.00000000000000000e+00 3.85833250889872901e-07 
2.18152694309594702e-06 0.00000000000000000e+00 2.16281639113819753e-07 
7.89653559770495500e-07 0.00000000000000000e+00 -6.64756666334133965e-07 
1.25774261094664710e-05 0.00000000000000000e+00 1.96242448932498203e-08 
1.33680848992683624e-05 0.00000000000000000e+00 2.04331563503402966e-07 
1.33205466985322657e-05 0.00000000000000000e+00 4.40550609823121879e-08 
1.26811642576279793e-05 0.00000000000000000e+00 -1.43653103491686717e-07 
1.15872554351351825e-05 0.00000000000000000e+00 -1.16737082312072562e-07 
1.01481088322861262e-05 0.00000000000000000e+00 1.06553395212366464e-07 
8.67228689848379523e-06 0.00000000000000000e+00 1.91732286156467914e-07 
7.24912057704724853e-06 0.00000000000000000e+00 -7.69781196325120837e-08 
5.84576392284684427e-06 0.00000000000000000e+00 -2.86448919037987969e-07 
4.36709456620957380e-06 0.00000000000000000e+00 1.05369585308740174e-07 
2.88503882864744842e-06 0.00000000000000000e+00 4.69189417935959850e-07 
1.45819434006665755e-06 0.00000000000000000e+00 -2.95935317290057057e-07 
2.23955307683745348e-07 0.00000000000000000e+00 -4.50931641056857668e-07 
2.01629724948749578e-07 0.00000000000000000e+00 1.06397103477875724e-05 
2.01629724948492927e-07 0.00000000000000000e+00 1.06397103477993021e-05 
1.44708417745124873e-06 0.00000000000000000e+00 1.06366752278567037e-05 
1.44708417745032969e-06 0.00000000000000000e+00 1.06366752278437272e-05 
8.17478132643679910e-07 0.00000000000000000e+00 1.90265558944133330e-05 
8.17478132646767345e-07 0.00000000000000000e+00 1.90265558944112188e-05 
2.01629724946837825e-07 0.00000000000000000e+00 1.06397103478018534e-05 
1.44708417744679249e-06 0.00000000000000000e+00 1.06366752278457431e-05 
1.90272287008886431e-06 0.00000000000000000e+00 7.37481962079870899e-07 
1.90272287008635624e-06 0.00000000000000000e+00 7.37481962069126286e-07 
1.90272287009152314e-06 0.00000000000000000e+00 7.37481962080058094e-07 
-2.20369406764490854e-07 0.00000000000000000e+00 7.44541924455643123e-07 
-2.20369406762899279e-07 0.00000000000000000e+00 7.44541924455482187e-07 
-2.20369406761998883e-07 0.00000000000000000e+00 7.44541924446768759e-07 
-7.85638598963667249e-07 0.00000000000000000e+00 1.74136388488050851e-07 
-4.71635249756514326e-07 0.00000000000000000e+00 1.47285595921977098e-07 
-1.31183125787659558e-07 0.00000000000000000e+00 -6.39707652261320075e-08 
2.28452008282857854e-07 0.00000000000000000e+00 -1.62425430460832217e-07 
6.61852436338945431e-07 0.00000000000000000e+00 -1.18902127928848894e-08 
1.21543947802659842e-06 0.00000000000000000e+00 1.91479648645455158e-07 
1.87149523543485377e-06 0.00000000000000000e+00 9.10518578817456390e-08 
2.55791404116101218e-06 0.00000000000000000e+00 -2.39115237972337304e-07 
3.18203129875861839e-06 0.00000000000000000e+00 -1.71365173975696609e-07 
3.60025808483233741e-06 0.00000000000000000e+00 3.75897844434885865e-07 
3.62795005868152284e-06 0.00000000000000000e+00 1.99897826862075126e-07 
3.07670297778125895e-06 0.00000000000000000e+00 -6.81859050213051432e-07 
-9.16703282991717071e-07 0.00000000000000000e+00 1.91918418163117171e-08 
-6.30243894416495525e-07 0.00000000000000000e+00 2.04261013430503224e-07 
-3.01567056543807045e-07 0.00000000000000000e+00 4.45747989195505834e-08 
4.15772777625435561e-08 0.00000000000000000e+00 -1.42018760290476316e-07 
4.39488620844786242e-07 0.00000000000000000e+00 -1.14966469583736322e-07 
9.23905261139907060e-07 0.00000000000000000e+00 1.07760882436426874e-07 
1.52007042154459287e-06 0.00000000000000000e+00 1.92248066184128912e-07 
2.21043568404774841e-06 0.00000000000000000e+00 -7.86286204108278871e-08 
2.90919940915898925e-06 0.00000000000000000e+00 -2.92611895127240776e-07 
3.43938013819487370e-06 0.00000000000000000e+00 9.67774245382821818e-08 
3.64912095669738015e-06 0.00000000000000000e+00 4.59153217873490235e-07 
3.40681700864446418e-06 0.00000000000000000e+00 -3.10400298218473986e-07 
2.59257213863627453e-06 0.00000000000000000e+00 -4.68836252701118675e-07 
1.16698255246899747e-05 0.00000000000000000e+00 -2.90097450837950635e-07 
1.16698255246908336e-05 0.00000000000000000e+00 -2.90097450824803413e-07 
1.16698255246913588e-05 0.00000000000000000e+00 -2.90097450836198441e-07 
8.17478132646935904e-07 0.00000000000000000e+00 1.90265558944007122e-05 
2.01629724944436486e-07 0.00000000000000000e+00 1.06397103477895545e-05 
1.44708417744698900e-06 0.00000000000000000e+00 1.06366752278282959e-05 
-7.85638598959194068e-07 0.00000000000000000e+00 1.74136388482250793e-07 
-4.71635249755432665e-07 0.00000000000000000e+00 1.47285595939068847e-07 
-1.31183125788650587e-07 0.00000000000000000e+00 -6.39707652274142036e-08 
2.28452008280761871e-07 0.00000000000000000e+00 -1.62425430446956759e-07 
6.61852436340845750e-07 0.00000000000000000e+00 -1.18902127948768992e-08 
1.21543947802711447e-06 0.00000000000000000e+00 1.91479648646458839e-07 
1.87149523543537723e-06 0.00000000000000000e+00 9.10518578688769321e-08 
2.55791404115972766e-06 0.00000000000000000e+00 -2.39115237980631239e-07 
3.18203129875672273e-06 0.00000000000000000e+00 -1.71365173966231598e-07 
3.60025808483046293e-06 0.00000000000000000e+00 3.75897844444213180e-07 
3.62795005868063134e-06 0.00000000000000000e+00 1.99897826849915544e-07 
3.07670297778054278e-06 0.00000000000000000e+00 -6.81859050224923763e-07 
-9.16703282992069436e-07 0.00000000000000000e+00 1.91918418020424941e-08 
-6.30243894415975446e-07 0.00000000000000000e+00 2.04261013422944726e-07 
-3.01567056543347106e-07 0.00000000000000000e+00 4.45747989206229271e-08 
4.15772777611696687e-08 0.00000000000000000e+00 -1.42018760297606746e-07 
4.39488620844458017e-07 0.00000000000000000e+00 -1.14966469590633923e-07 
9.23905261142036289e-07 0.00000000000000000e+00 1.07760882442119465e-07 
1.52007042154389428e-06 0.00000000000000000e+00 1.92248066192634499e-07 
2.21043568404774756e-06 0.00000000000000000e+00 -7.86286204134961468e-08 
2.90919940915933992e-06 0.00000000000000000e+00 -2.92611895125009427e-07 
3.43938013819526291e-06 0.00000000000000000e+00 9.67774245300920084e-08 
3.64912095669923684e-06 0.00000000000000000e+00 4.59153217876670420e-07 
3.40681700864493259e-06 0.00000000000000000e+00 -3.10400298220068102e-07 
2.59257213863362417e-06 0.00000000000000000e+00 -4.68836252698069357e-07 
1.16698255246887957e-05 0.00000000000000000e+00 -2.90097450831186124e-07 
1.30878977716731618e-05 0.00000000000000000e+00 1.74385505037899392e-07 
1.35643979665768198e-05 0.00000000000000000e+00 1.46368572870164479e-07 
1.30980804756370785e-05 0.00000000000000000e+00 -6.51459192855982848e-08 
1.20881638725678932e-05 0.00000000000000000e+00 -1.63929606223539128e-07 
1.08357004889920513e-05 0.00000000000000000e+00 -1.37036110672529584e-08 
9.47646262849518159e-06 0.00000000000000000e+00 1.90811339370480498e-07 
8.00619889422832801e-06 0.00000000000000000e+00 9.26416221589177890e-08 