# vtk DataFile Version 2.0

ASCII

DATASET UNSTRUCTURED_GRID

POINTS 281 double 

0.00000000000000000e+00  6.00000000000000012e-03  8.68039800000000063e-03
0.00000000000000000e+00  6.00000000000000012e-03  2.15013699999999988e-02
0.00000000000000000e+00  5.99999699999999997e-03  3.38432499999999983e-02
0.00000000000000000e+00  6.00000000000000012e-03  4.61511800000000000e-02
0.00000000000000000e+00  5.99999399999999981e-03  5.84285100000000029e-02
0.00000000000000000e+00  5.99999899999999978e-03  7.03572799999999943e-02
0.00000000000000000e+00  6.00000000000000012e-03  7.56573400000000035e-02
0.00000000000000000e+00  6.00000000000000012e-03  1.52458600000000000e-02
0.00000000000000000e+00  5.99999899999999978e-03  2.76822099999999988e-02
0.00000000000000000e+00  5.99999899999999978e-03  3.99985900000000005e-02
0.00000000000000000e+00  5.99999800000000031e-03  5.22986000000000006e-02
0.00000000000000000e+00  5.99999800000000031e-03  6.44963600000000026e-02
0.00000000000000000e+00  3.00000000000000006e-03  3.07692300000000007e-03
0.00000000000000000e+00  3.00000000000000006e-03  1.04940499999999996e-02
0.00000000000000000e+00  3.00000000000000006e-03  7.41712199999999995e-03
0.00000000000000000e+00  3.00000000000000006e-03  2.30583799999999998e-02
0.00000000000000000e+00  3.00000000000000006e-03  1.99814599999999995e-02
0.00000000000000000e+00  2.99999900000000016e-03  3.53831699999999985e-02
0.00000000000000000e+00  2.99999900000000016e-03  3.23062400000000000e-02
0.00000000000000000e+00  3.00000000000000006e-03  4.76909699999999992e-02
0.00000000000000000e+00  3.00000000000000006e-03  4.46140500000000023e-02
0.00000000000000000e+00  2.99999699999999991e-03  5.99834799999999987e-02
0.00000000000000000e+00  2.99999699999999991e-03  5.69065600000000019e-02
0.00000000000000000e+00  2.99999900000000016e-03  7.21017199999999941e-02
0.00000000000000000e+00  2.99999900000000016e-03  6.90247900000000025e-02
0.00000000000000000e+00  3.00000000000000006e-03  7.78286700000000026e-02
0.00000000000000000e+00  3.00000000000000006e-03  7.47517500000000057e-02
0.00000000000000000e+00  5.99999899999999978e-03  7.30073100000000058e-02
0.00000000000000000e+00  6.00000000000000012e-03  7.78286700000000026e-02
0.00000000000000000e+00  8.99999999999999932e-03  7.47517500000000057e-02
0.00000000000000000e+00  8.99999999999999932e-03  7.78286700000000026e-02
0.00000000000000000e+00  8.99999999999999932e-03  3.07692300000000007e-03
0.00000000000000000e+00  8.99999999999999932e-03  7.41712199999999995e-03
0.00000000000000000e+00  8.99999999999999932e-03  1.04940499999999996e-02
0.00000000000000000e+00  8.99999999999999932e-03  1.99814599999999995e-02
0.00000000000000000e+00  8.99999999999999932e-03  2.30583799999999998e-02
0.00000000000000000e+00  8.99999899999999985e-03  3.23062400000000000e-02
0.00000000000000000e+00  8.99999899999999985e-03  3.53831699999999985e-02
0.00000000000000000e+00  8.99999999999999932e-03  4.46140500000000023e-02
0.00000000000000000e+00  8.99999999999999932e-03  4.76909699999999992e-02
0.00000000000000000e+00  8.99999699999999916e-03  5.69065600000000019e-02
0.00000000000000000e+00  8.99999699999999916e-03  5.99834799999999987e-02
0.00000000000000000e+00  8.99999899999999985e-03  6.90247900000000025e-02
0.00000000000000000e+00  8.99999899999999985e-03  7.21017199999999941e-02
0.00000000000000000e+00  6.00000000000000012e-03  4.34019900000000031e-03
0.00000000000000000e+00  3.00000000000000006e-03  1.37767800000000006e-02
0.00000000000000000e+00  6.00000000000000012e-03  1.19631300000000006e-02
0.00000000000000000e+00  3.00000000000000006e-03  1.68536999999999992e-02
0.00000000000000000e+00  6.00000000000000012e-03  1.83736200000000002e-02
0.00000000000000000e+00  5.99999800000000031e-03  3.07627299999999985e-02
0.00000000000000000e+00  3.00000000000000006e-03  2.92257200000000002e-02
0.00000000000000000e+00  3.00000000000000006e-03  2.61487999999999998e-02
0.00000000000000000e+00  8.99999999999999932e-03  2.92257200000000002e-02
0.00000000000000000e+00  6.00000000000000012e-03  4.30748800000000029e-02
0.00000000000000000e+00  2.99999900000000016e-03  4.15377600000000000e-02
0.00000000000000000e+00  2.99999900000000016e-03  3.84608300000000014e-02
0.00000000000000000e+00  8.99999899999999985e-03  4.15377600000000000e-02
0.00000000000000000e+00  5.99999599999999963e-03  5.53635499999999975e-02
0.00000000000000000e+00  2.99999900000000016e-03  5.38416099999999981e-02
0.00000000000000000e+00  2.99999900000000016e-03  5.07646799999999995e-02
0.00000000000000000e+00  8.99999899999999985e-03  5.38416099999999981e-02
0.00000000000000000e+00  5.99999800000000031e-03  6.74268199999999984e-02
0.00000000000000000e+00  2.99999900000000016e-03  6.60943300000000067e-02
0.00000000000000000e+00  2.99999900000000016e-03  6.30174099999999959e-02
0.00000000000000000e+00  8.99999899999999985e-03  6.60943300000000067e-02
0.00000000000000000e+00  5.99999899999999978e-03  4.92248900000000003e-02
0.00000000000000000e+00  8.99999999999999932e-03  1.68536999999999992e-02
0.00000000000000000e+00  5.99999899999999978e-03  2.45917899999999988e-02
0.00000000000000000e+00  8.99999999999999932e-03  2.61487999999999998e-02
0.00000000000000000e+00  8.99999999999999932e-03  1.37767800000000006e-02
0.00000000000000000e+00  5.99999800000000031e-03  3.69209200000000029e-02
0.00000000000000000e+00  8.99999899999999985e-03  3.84608300000000014e-02
0.00000000000000000e+00  8.99999899999999985e-03  5.07646799999999995e-02
0.00000000000000000e+00  5.99999599999999963e-03  6.14624299999999985e-02
0.00000000000000000e+00  8.99999899999999985e-03  6.30174099999999959e-02
1.20000000000000002e-02  1.20000000000000002e-02  8.00000000000000017e-02
0.00000000000000000e+00  0.00000000000000000e+00  8.00000000000000017e-02
1.20000000000000002e-02  6.00000000000000012e-03  0.00000000000000000e+00
1.20000000000000002e-02  3.00000000000000006e-03  0.00000000000000000e+00
1.20000000000000002e-02  8.99999999999999932e-03  0.00000000000000000e+00
1.20000000000000002e-02  0.00000000000000000e+00  8.00000000000000017e-02
1.20000000000000002e-02  0.00000000000000000e+00  0.00000000000000000e+00
0.00000000000000000e+00  1.20000000000000002e-02  0.00000000000000000e+00
1.20000000000000002e-02  5.99999899999999978e-03  8.68039699999999942e-03
1.20000000000000002e-02  5.99999899999999978e-03  1.52458600000000000e-02
1.20000000000000002e-02  5.99999899999999978e-03  2.15013699999999988e-02
1.20000000000000002e-02  6.00000000000000012e-03  2.76822099999999988e-02
1.20000000000000002e-02  5.99999899999999978e-03  3.38432399999999967e-02
1.20000000000000002e-02  5.99999800000000031e-03  3.99985900000000005e-02
1.20000000000000002e-02  5.99999699999999997e-03  4.61511800000000000e-02
1.20000000000000002e-02  5.99999300000000034e-03  5.22986100000000023e-02
1.20000000000000002e-02  5.99998599999999969e-03  5.84285400000000010e-02
1.20000000000000002e-02  5.99997800000000043e-03  6.44963800000000059e-02
1.20000000000000002e-02  5.99997500000000027e-03  7.03572999999999976e-02
1.20000000000000002e-02  5.99997500000000027e-03  7.56573600000000068e-02
1.20000000000000002e-02  3.00000000000000006e-03  3.07692300000000007e-03
1.20000000000000002e-02  3.00000000000000006e-03  7.41712099999999961e-03
1.20000000000000002e-02  3.00000000000000006e-03  1.04940399999999996e-02
1.20000000000000002e-02  2.99999900000000016e-03  1.37767800000000006e-02
1.20000000000000002e-02  2.99999900000000016e-03  1.68536999999999992e-02
1.20000000000000002e-02  5.99999899999999978e-03  1.19631300000000006e-02
1.20000000000000002e-02  3.00000000000000006e-03  1.99814500000000013e-02
1.20000000000000002e-02  3.00000000000000006e-03  2.30583799999999998e-02
1.20000000000000002e-02  5.99999899999999978e-03  1.83736099999999986e-02
1.20000000000000002e-02  3.00000000000000006e-03  2.61487999999999998e-02
1.20000000000000002e-02  3.00000000000000006e-03  2.92257200000000002e-02
1.20000000000000002e-02  5.99999899999999978e-03  2.45917899999999988e-02
1.20000000000000002e-02  3.00000000000000006e-03  3.23062299999999983e-02
1.20000000000000002e-02  3.00000000000000006e-03  3.53831599999999968e-02
1.20000000000000002e-02  5.99999899999999978e-03  3.07627200000000003e-02
1.20000000000000002e-02  2.99999900000000016e-03  3.84608300000000014e-02
1.20000000000000002e-02  2.99999900000000016e-03  4.15377499999999983e-02
1.20000000000000002e-02  5.99999899999999978e-03  3.69209100000000012e-02
1.20000000000000002e-02  2.99999799999999981e-03  4.46140500000000023e-02
1.20000000000000002e-02  2.99999799999999981e-03  4.76909800000000009e-02
1.20000000000000002e-02  5.99999800000000031e-03  4.30748800000000029e-02
1.20000000000000002e-02  2.99999699999999991e-03  5.07646900000000012e-02
1.20000000000000002e-02  2.99999699999999991e-03  5.38416099999999981e-02
1.20000000000000002e-02  5.99999500000000015e-03  4.92249000000000020e-02
1.20000000000000002e-02  2.99999299999999984e-03  5.69065799999999983e-02
1.20000000000000002e-02  2.99999299999999984e-03  5.99835000000000021e-02
1.20000000000000002e-02  5.99999000000000018e-03  5.53635800000000025e-02
1.20000000000000002e-02  2.99998900000000021e-03  6.30174200000000045e-02
1.20000000000000002e-02  2.99998900000000021e-03  6.60943499999999962e-02
1.20000000000000002e-02  5.99998200000000006e-03  6.14624599999999965e-02
1.20000000000000002e-02  2.99998799999999987e-03  6.90248100000000059e-02
1.20000000000000002e-02  2.99998799999999987e-03  7.21017300000000028e-02
1.20000000000000002e-02  5.99997700000000009e-03  6.74268400000000018e-02
1.20000000000000002e-02  2.99998699999999997e-03  7.47517600000000004e-02
1.20000000000000002e-02  2.99998699999999997e-03  7.78286799999999973e-02
1.20000000000000002e-02  5.99998700000000003e-03  7.78286799999999973e-02
1.20000000000000002e-02  5.99997500000000027e-03  7.30073299999999953e-02
1.20000000000000002e-02  8.99998699999999922e-03  7.78286799999999973e-02
1.20000000000000002e-02  8.99999999999999932e-03  3.07692300000000007e-03
[...]
POINT_DATA 281

SCALARS Rank unsigned_int
LOOKUP_TABLE default
0 0 0 0 0 0 0 0 0 0 0 0 0 0 0 0 0 0 0 0 0 0 0 0 0 0 0 0 0 0 0 0 0 0 0 0 0 0 0 0 0 0 0 0 0 0 0 0 0 0 0 0 0 0 0 0 0 0 0 0 0 0 0 0 0 0 0 0 0 0 0 0 0 0 0 0 0 0 0 0 0 0 0 0 0 0 0 0 0 0 0 0 0 0 0 0 0 0 0 0 0 0 0 0 0 0 0 0 0 0 0 0 0 0 0 0 0 0 0 0 0 0 0 0 0 0 0 0 0 0 0 0 0 0 0 0 0 0 0 0 0 0 0 0 0 0 0 0 0 0 0 0 0 0 0 0 0 0 0 0 0 0 0 0 0 0 0 0 0 0 0 0 0 0 0 0 0 0 0 0 0 0 0 0 0 0 0 0 0 0 0 0 0 0 0 0 0 0 0 0 0 0 0 0 0 0 0 0 0 0 0 0 0 0 0 0 0 0 0 0 0 0 0 0 0 0 0 0 0 0 0 0 0 0 0 0 0 0 0 0 0 0 0 0 0 0 0 0 0 0 0 0 0 0 0 0 0 0 0 0 0 0 0 0 0 0 0 0 0 0 0 0 0 0 0 0 0 0 0 0 0 

VECTORS Forces0 double
7.55887582792829924e-06 0.00000000000000000e+00 1.04244937705805305e-07 
7.05188440731069429e-06 0.00000000000000000e+00 -7.06172438901434544e-08 
5.49365783326888325e-06 0.00000000000000000e+00 5.46970801092005553e-08 
3.77796031307912728e-06 0.00000000000000000e+00 -3.76144589564562060e-08 
2.07323143444236825e-06 0.00000000000000000e+00 5.12423323010191344e-08 
3.77732810604073151e-07 0.00000000000000000e+00 -1.13950385081825439e-07 
-2.93997444920646203e-07 0.00000000000000000e+00 -3.10459254596400910e-07 
7.49544101222732200e-06 0.00000000000000000e+00 2.54058800783470511e-08 
6.36036493354718993e-06 0.00000000000000000e+00 -5.72421651771217298e-08 
4.61863478516439597e-06 0.00000000000000000e+00 9.73606638839534748e-08 
2.94687548441423989e-06 0.00000000000000000e+00 -1.43276644865092403e-07 
1.19985575779613269e-06 0.00000000000000000e+00 2.36424721867010558e-07 
7.16900874171923488e-06 0.00000000000000000e+00 1.01298163053786308e-08 
7.63636078852864842e-06 0.00000000000000000e+00 9.55229791446690627e-08 
7.50422407780009892e-06 0.00000000000000000e+00 1.00792893629438286e-07 
6.85768065292601466e-06 0.00000000000000000e+00 -8.02217977295203542e-08 
7.22662498245297773e-06 0.00000000000000000e+00 -5.38684449615359056e-08 
5.31014883986410068e-06 0.00000000000000000e+00 8.00149929751850381e-08 
5.68990654066781342e-06 0.00000000000000000e+00 2.49530698757490159e-08 
3.55155538376363287e-06 0.00000000000000000e+00 -8.16398766451132317e-08 
4.01393605716964593e-06 0.00000000000000000e+00 7.49975432919206119e-09 
1.86527636743577229e-06 0.00000000000000000e+00 1.28543102399718594e-07 
2.27775114009092796e-06 0.00000000000000000e+00 -2.22231469768541237e-08 
1.40588874694222574e-07 0.00000000000000000e+00 -2.53657612903886834e-07 
5.64928493206557034e-07 0.00000000000000000e+00 2.90691060617671607e-09 
-5.07253827811610987e-07 0.00000000000000000e+00 -1.18026722755689840e-07 
-1.91625909176764724e-07 0.00000000000000000e+00 -3.38341440106034529e-07 
2.26134100180549312e-08 0.00000000000000000e+00 -3.05993053652177107e-07 
-5.07253827808732769e-07 0.00000000000000000e+00 -1.18026722761964448e-07 
-1.91625909180951184e-07 0.00000000000000000e+00 -3.38341440099601737e-07 
-5.07253827811911684e-07 0.00000000000000000e+00 -1.18026722765602243e-07 
7.16900874172499640e-06 0.00000000000000000e+00 1.01298163047514029e-08 
7.50422407780028019e-06 0.00000000000000000e+00 1.00792893636789632e-07 
7.63636078852582611e-06 0.00000000000000000e+00 9.55229791622747352e-08 
7.22662498245528335e-06 0.00000000000000000e+00 -5.38684449496661682e-08 
6.85768065292535651e-06 0.00000000000000000e+00 -8.02217977254725558e-08 
5.68990654066717307e-06 0.00000000000000000e+00 2.49530698794737903e-08 
5.31014883986378219e-06 0.00000000000000000e+00 8.00149929817321264e-08 
4.01393605716788325e-06 0.00000000000000000e+00 7.49975431925350599e-09 
3.55155538376258382e-06 0.00000000000000000e+00 -8.16398766432316539e-08 
2.27775114009091949e-06 0.00000000000000000e+00 -2.22231469729659248e-08 
1.86527636743695242e-06 0.00000000000000000e+00 1.28543102405496762e-07 
5.64928493206765404e-07 0.00000000000000000e+00 2.90691061366046392e-09 
1.40588874696160162e-07 0.00000000000000000e+00 -2.53657612907644748e-07 
7.33528687368417564e-06 0.00000000000000000e+00 5.06878802451043078e-08 
7.58760074960221000e-06 0.00000000000000000e+00 5.14658031368540007e-08 
7.66922263149225216e-06 0.00000000000000000e+00 7.92503118854920165e-08 
7.40374920801080871e-06 0.00000000000000000e+00 -3.95122573795222367e-09 
7.32545098745073479e-06 0.00000000000000000e+00 -3.01899580586825692e-08 
5.90877499839673521e-06 0.00000000000000000e+00 -5.80213093209372183e-09 
6.14443127687171839e-06 0.00000000000000000e+00 -3.39452166468920650e-08 
6.51856415200214905e-06 0.00000000000000000e+00 -7.33566424846775577e-08 
6.14443127687295421e-06 0.00000000000000000e+00 -3.39452166451048520e-08 
4.22141186520632377e-06 0.00000000000000000e+00 4.77237903169647948e-08 
4.41252570735711573e-06 0.00000000000000000e+00 7.83048003828199695e-08 
4.84777934566974760e-06 0.00000000000000000e+00 1.03385861769223067e-07 
4.41252570735772983e-06 0.00000000000000000e+00 7.83048003818699162e-08 
2.49399027491370232e-06 0.00000000000000000e+00 -8.39592860918110487e-08 
2.71833229821304270e-06 0.00000000000000000e+00 -1.24607794847940193e-07 
3.14745292783712855e-06 0.00000000000000000e+00 -1.39842765738874554e-07 
2.71833229821340650e-06 0.00000000000000000e+00 -1.24607794835569065e-07 
7.88993920140367076e-07 0.00000000000000000e+00 1.25323424147003831e-07 
9.73871637299284302e-07 0.00000000000000000e+00 1.95338135067273433e-07 
1.41585801440413596e-06 0.00000000000000000e+00 2.31271065635682085e-07 
9.73871637296222702e-07 0.00000000000000000e+00 1.95338135056953395e-07 
3.34238617484880663e-06 0.00000000000000000e+00 -1.17783500596775068e-07 
7.40374920801081125e-06 0.00000000000000000e+00 -3.95122574985062783e-09 
6.67954565468768569e-06 0.00000000000000000e+00 -8.13295893097403139e-08 
6.51856415200205334e-06 0.00000000000000000e+00 -7.33566424799375613e-08 
7.58760074960228623e-06 0.00000000000000000e+00 5.14658031482963703e-08 
5.09073549048908954e-06 0.00000000000000000e+00 9.72014528311421292e-08 
4.84777934566936304e-06 0.00000000000000000e+00 1.03385861769472095e-07 
3.14745292783766981e-06 0.00000000000000000e+00 -1.39842765740715898e-07 
1.64735352312137703e-06 0.00000000000000000e+00 1.90842131544795400e-07 
1.41585801440503805e-06 0.00000000000000000e+00 2.31271065633660852e-07 
1.93723491236272944e-06 0.00000000000000000e+00 3.70469448424657497e-07 
-6.79243356737330994e-07 0.00000000000000000e+00 3.72892027173551803e-07 
-8.27906313047052335e-07 0.00000000000000000e+00 -1.46158336585624847e-07 
-8.27906313043216547e-07 0.00000000000000000e+00 -1.46158336596599483e-07 
-8.27906313045958816e-07 0.00000000000000000e+00 -1.46158336581970985e-07 
1.93723491236559580e-06 0.00000000000000000e+00 3.70469448430697901e-07 
-8.27906313043301673e-07 0.00000000000000000e+00 -1.46158336591670942e-07 
6.64514492853362022e-06 0.00000000000000000e+00 -1.45827870124535633e-07 
-6.58941789576025101e-07 0.00000000000000000e+00 1.03958794039188871e-07 
-3.82452039863876222e-07 0.00000000000000000e+00 2.50967925835679080e-08 
-4.94203919544403355e-08 0.00000000000000000e+00 -7.09518655409515556e-08 
3.57713109136615661e-07 0.00000000000000000e+00 -5.79782708770964608e-08 
8.38858979989235152e-07 0.00000000000000000e+00 5.37638653052544259e-08 
1.39392282351482578e-06 0.00000000000000000e+00 9.61775300381704066e-08 
1.99937034247881508e-06 0.00000000000000000e+00 -3.96497841476927592e-08 
2.58656319020420781e-06 0.00000000000000000e+00 -1.46974716892422882e-07 
3.01843347704867684e-06 0.00000000000000000e+00 4.70112288808907763e-08 
3.19532473389057422e-06 0.00000000000000000e+00 2.31961569035942170e-07 
3.05512463480605601e-06 0.00000000000000000e+00 -1.20152426821134504e-07 
2.60877149051125769e-06 0.00000000000000000e+00 -3.18519041274850635e-07 
-8.16543269476424247e-07 0.00000000000000000e+00 1.00169684078535020e-08 
-7.02514876371429362e-07 0.00000000000000000e+00 1.00565089979343960e-07 
-5.93111477742245766e-07 0.00000000000000000e+00 9.51892712460693676e-08 
-4.53352973330286579e-07 0.00000000000000000e+00 5.11460543252523643e-08 
-3.01483540159531245e-07 0.00000000000000000e+00 -4.28329184788430420e-09 
-5.35664998337447119e-07 0.00000000000000000e+00 7.89079508904356681e-08 
-1.35170598165029451e-07 0.00000000000000000e+00 -5.43039741363193644e-08 
4.40328604508492240e-08 0.00000000000000000e+00 -8.04920668375199516e-08 
-2.22485078700870863e-07 0.00000000000000000e+00 -3.05759042269029786e-08 
2.48190840894743961e-07 0.00000000000000000e+00 -7.38721893747627250e-08 
4.68197641440932890e-07 0.00000000000000000e+00 -3.46030040531571972e-08 
1.41860041946406552e-07 0.00000000000000000e+00 -8.16526942036265336e-08 
7.06355554816401747e-07 0.00000000000000000e+00 2.43376434480616898e-08 
9.79000902245506314e-07 0.00000000000000000e+00 7.86251102224390770e-08 
5.82362474486860836e-07 0.00000000000000000e+00 -6.33104407740113590e-09 
1.25053223590602251e-06 0.00000000000000000e+00 1.02221909596886146e-07 
1.54751345781449461e-06 0.00000000000000000e+00 7.67098223081088892e-08 
1.11485123024148784e-06 0.00000000000000000e+00 9.58052229814533582e-08 
1.85932677168373320e-06 0.00000000000000000e+00 5.03896135013799829e-09 
2.14351274940063671e-06 0.00000000000000000e+00 -8.35705804820652433e-08 
1.70681854049109618e-06 0.00000000000000000e+00 4.54848807804058929e-08 
2.44598987646538666e-06 0.00000000000000000e+00 -1.43018871480167864e-07 
2.70084131808011682e-06 0.00000000000000000e+00 -1.27750351709335557e-07 
2.29285766298201278e-06 0.00000000000000000e+00 -1.20108041370323462e-07 
2.91525901443836416e-06 0.00000000000000000e+00 -2.54456393216483498e-08 
3.10818577047615830e-06 0.00000000000000000e+00 1.23239523909121813e-07 
2.80731410824755823e-06 0.00000000000000000e+00 -8.67795425106052710e-08 
3.17828489440569000e-06 0.00000000000000000e+00 2.27054326651604031e-07 
3.20467019233278725e-06 0.00000000000000000e+00 1.89644859397797873e-07 
3.15157043323605139e-06 0.00000000000000000e+00 1.86111713760611880e-07 
3.13799768308790765e-06 0.00000000000000000e+00 -4.09574712703991338e-09 
2.92827319964058461e-06 0.00000000000000000e+00 -2.59570242222100104e-07 
3.19708079004736126e-06 0.00000000000000000e+00 1.18317136036403494e-07 
2.70283216464190950e-06 0.00000000000000000e+00 -3.45842447628187229e-07 
2.29437996446285201e-06 0.00000000000000000e+00 -1.23499008949495574e-07 
2.29437996446146753e-06 0.00000000000000000e+00 -1.23499008932375344e-07 
2.85647282255899090e-06 0.00000000000000000e+00 -3.12234035143796399e-07 
2.29437996445878117e-06 0.00000000000000000e+00 -1.23499008946864689e-07 
-8.16543269474459554e-07 0.00000000000000000e+00 1.00169684029590677e-08 
-5.93111477744254081e-07 0.00000000000000000e+00 9.51892712438987927e-08 
-7.02514876369747154e-07 0.00000000000000000e+00 1.00565089992645871e-07 
-3.01483540157705465e-07 0.00000000000000000e+00 -4.28329184050500610e-09 
-4.53352973329934213e-07 0.00000000000000000e+00 5.11460543204122062e-08 
4.40328604511035456e-08 0.00000000000000000e+00 -8.04920668259862216e-08 
-1.35170598163343432e-07 0.00000000000000000e+00 -5.43039741482909045e-08 
4.68197641441848744e-07 0.00000000000000000e+00 -3.46030040541747485e-08 
2.48190840893938857e-07 0.00000000000000000e+00 -7.38721893829261109e-08 
9.79000902245467138e-07 0.00000000000000000e+00 7.86251102228556849e-08 
7.06355554816364689e-07 0.00000000000000000e+00 2.43376434434378958e-08 
1.54751345781291362e-06 0.00000000000000000e+00 7.67098223005686284e-08 
1.25053223590623173e-06 0.00000000000000000e+00 1.02221909599735883e-07 
2.14351274940075106e-06 0.00000000000000000e+00 -8.35705804803374549e-08 
1.85932677168328046e-06 0.00000000000000000e+00 5.03896134907097500e-09 
2.70084131807739022e-06 0.00000000000000000e+00 -1.27750351703767798e-07 
2.44598987646664620e-06 0.00000000000000000e+00 -1.43018871477730738e-07 
3.10818577047625909e-06 0.00000000000000000e+00 1.23239523913689438e-07 
2.91525901443674082e-06 0.00000000000000000e+00 -2.54456393216826017e-08 
3.20467019233130029e-06 0.00000000000000000e+00 1.89644859398107252e-07 
3.17828489440656964e-06 0.00000000000000000e+00 2.27054326640288518e-07 
2.92827319963809053e-06 0.00000000000000000e+00 -2.59570242225061702e-07 
3.13799768308678872e-06 0.00000000000000000e+00 -4.09574713695305759e-09 
-7.95437500384848273e-07 0.00000000000000000e+00 5.06210905767249106e-08 
2.70283216464108491e-06 0.00000000000000000e+00 -3.45842447615012691e-07 
-6.79243356738066219e-07 0.00000000000000000e+00 3.72892027160781088e-07 
7.44832788116334282e-06 0.00000000000000000e+00 8.79383285274475238e-08 
7.66165757037577673e-06 0.00000000000000000e+00 7.45187988790220619e-08 
7.32091451726764262e-06 0.00000000000000000e+00 -3.16131681779774252e-08 
6.67696837675562733e-06 0.00000000000000000e+00 -8.12772074533872662e-08 
5.90780528427481190e-06 0.00000000000000000e+00 -5.67585426352814323e-09 
5.09039415627955134e-06 0.00000000000000000e+00 9.72182249837036152e-08 
4.22116074684394301e-06 0.00000000000000000e+00 4.76762579168067854e-08 
3.34161835219994296e-06 0.00000000000000000e+00 -1.17898229817838592e-07 
2.49095408253096349e-06 0.00000000000000000e+00 -8.32450138545268027e-08 
1.63596833145411542e-06 0.00000000000000000e+00 1.93508286116771505e-07 
7.52236058212724925e-07 0.00000000000000000e+00 1.07689979942946733e-07 
-8.29124966110594091e-08 0.00000000000000000e+00 -3.35005695464170542e-07 
7.16900874172243751e-06 0.00000000000000000e+00 1.01298163027618284e-08 
7.58291519714950706e-06 0.00000000000000000e+00 1.03162347539092897e-07 
7.48694333185807318e-06 0.00000000000000000e+00 2.28702142054314245e-08 
7.04722278334879483e-06 0.00000000000000000e+00 -7.09404838505405409e-08 
6.35922592291846561e-06 0.00000000000000000e+00 -5.71107569722812104e-08 
5.49330643508140933e-06 0.00000000000000000e+00 5.47500518933346437e-08 
4.61843525377278414e-06 0.00000000000000000e+00 9.73491187586760933e-08 
3.77755442825475312e-06 0.00000000000000000e+00 -3.76935584470322040e-08 
2.94556752324994359e-06 0.00000000000000000e+00 -1.43234588345227666e-07 
2.06885842509039288e-06 0.00000000000000000e+00 5.29029282270324949e-08 
1.18274853109431277e-06 0.00000000000000000e+00 2.35099507833528032e-07 
3.20671763132171671e-07 0.00000000000000000e+00 -1.49482401900351832e-07 
-4.23787549156262876e-07 0.00000000000000000e+00 -2.27872801357695487e-07 
-9.90445964762545860e-08 0.00000000000000000e+00 5.33954889814321168e-06 
-9.90445964763930759e-08 0.00000000000000000e+00 5.33954889814330570e-06 
1.33160627283769184e-06 0.00000000000000000e+00 5.33858750492859926e-06 
1.33160627283778417e-06 0.00000000000000000e+00 5.33858750493256337e-06 
6.11032418842155119e-07 0.00000000000000000e+00 9.54917561582470954e-06 
6.11032418843320636e-07 0.00000000000000000e+00 9.54917561581570219e-06 
-9.90445964775145475e-08 0.00000000000000000e+00 5.33954889814143037e-06 
1.33160627283960698e-06 0.00000000000000000e+00 5.33858750492624366e-06 
1.93723491236526164e-06 0.00000000000000000e+00 3.70469448427648159e-07 
1.93723491236523877e-06 0.00000000000000000e+00 3.70469448445675138e-07 
1.93723491236384117e-06 0.00000000000000000e+00 3.70469448432806589e-07 
-6.79243356738746810e-07 0.00000000000000000e+00 3.72892027155031005e-07 
-6.79243356739746309e-07 0.00000000000000000e+00 3.72892027175595694e-07 
-6.79243356738766292e-07 0.00000000000000000e+00 3.72892027163080359e-07 
-7.43846995562484602e-07 0.00000000000000000e+00 8.77841820974888986e-08 
-5.20891654273944397e-07 0.00000000000000000e+00 7.41791102716912514e-08 
-2.17818400080669691e-07 0.00000000000000000e+00 -3.20030911045528547e-08 
1.43418547021720247e-07 0.00000000000000000e+00 -8.16022604569291923e-08 
5.82864399228909584e-07 0.00000000000000000e+00 -6.20441085065792782e-09 
1.11503868794121450e-06 0.00000000000000000e+00 9.58224557576429188e-08 
1.70703082270492022e-06 0.00000000000000000e+00 4.54364790558513354e-08 
2.29343943827239738e-06 0.00000000000000000e+00 -1.20225129992234933e-07 
2.80878348616686944e-06 0.00000000000000000e+00 -8.60664506882512371e-08 
3.15316199372293778e-06 0.00000000000000000e+00 1.88815460125893330e-07 
3.19240539558728554e-06 0.00000000000000000e+00 1.00479993320068775e-07 
2.78568728323413811e-06 0.00000000000000000e+00 -3.41779017325472478e-07 
-8.16543269473035692e-07 0.00000000000000000e+00 1.00169683971114302e-08 
-6.39462128940863578e-07 0.00000000000000000e+00 1.02856923127631551e-07 
-3.75607501333830773e-07 0.00000000000000000e+00 2.25607659551558598e-08 
-4.72669192741067104e-08 0.00000000000000000e+00 -7.12725226363909068e-08 
3.58443615219372173e-07 0.00000000000000000e+00 -5.78478725546769068e-08 
8.39118284586443348e-07 0.00000000000000000e+00 5.38162124659324145e-08 
1.39405904196366334e-06 0.00000000000000000e+00 9.61657864265212902e-08 
1.99961510043515981e-06 0.00000000000000000e+00 -3.97283024628609493e-08 
2.58728590728590920e-06 0.00000000000000000e+00 -1.46930760460357308e-07 
3.02057823826202453e-06 0.00000000000000000e+00 4.86437401482449256e-08 
3.19639880360070519e-06 0.00000000000000000e+00 2.30577794815906692e-07 
3.02661570679385576e-06 0.00000000000000000e+00 -1.55504649850185246e-07 
2.43669564658148853e-06 0.00000000000000000e+00 -2.34834418792011703e-07 
6.64514492853093258e-06 0.00000000000000000e+00 -1.45827870113458666e-07 
6.64514492853223193e-06 0.00000000000000000e+00 -1.45827870107390522e-07 
6.64514492853191260e-06 0.00000000000000000e+00 -1.45827870105176272e-07 
6.11032418841663840e-07 0.00000000000000000e+00 9.54917561581780284e-06 
-9.90445964776513433e-08 0.00000000000000000e+00 5.33954889812758307e-06 
1.33160627284036508e-06 0.00000000000000000e+00 5.33858750492906512e-06 
-7.43846995561781988e-07 0.00000000000000000e+00 8.77841820980753631e-08 
-5.20891654274390783e-07 0.00000000000000000e+00 7.41791102783888468e-08 
-2.17818400080669691e-07 0.00000000000000000e+00 -3.20030911002232988e-08 
1.43418547021781234e-07 0.00000000000000000e+00 -8.16022604564006437e-08 
5.82864399228888408e-07 0.00000000000000000e+00 -6.20441085121898127e-09 
1.11503868794186481e-06 0.00000000000000000e+00 9.58224557629366629e-08 
1.70703082270468538e-06 0.00000000000000000e+00 4.54364790573938883e-08 
2.29343943827183918e-06 0.00000000000000000e+00 -1.20225129991335754e-07 
2.80878348616604231e-06 0.00000000000000000e+00 -8.60664506857886079e-08 
3.15316199372404189e-06 0.00000000000000000e+00 1.88815460130590446e-07 
3.19240539558871152e-06 0.00000000000000000e+00 1.00479993325039376e-07 
2.78568728323575679e-06 0.00000000000000000e+00 -3.41779017325371257e-07 
-8.16543269473310131e-07 0.00000000000000000e+00 1.00169683998146432e-08 
-6.39462128939380000e-07 0.00000000000000000e+00 1.02856923121457157e-07 
-3.75607501333006186e-07 0.00000000000000000e+00 2.25607659582533534e-08 
-4.72669192749931304e-08 0.00000000000000000e+00 -7.12725226474042939e-08 
3.58443615218327781e-07 0.00000000000000000e+00 -5.78478725493988857e-08 
8.39118284585661643e-07 0.00000000000000000e+00 5.38162124691251993e-08 
1.39405904196409173e-06 0.00000000000000000e+00 9.61657864233474313e-08 
1.99961510043514795e-06 0.00000000000000000e+00 -3.97283024624096661e-08 
2.58728590728590454e-06 0.00000000000000000e+00 -1.46930760461732625e-07 
3.02057823826240231e-06 0.00000000000000000e+00 4.86437401493671914e-08 
3.19639880360154078e-06 0.00000000000000000e+00 2.30577794809190674e-07 
3.02661570679253693e-06 0.00000000000000000e+00 -1.55504649853010206e-07 
2.43669564658165581e-06 0.00000000000000000e+00 -2.34834418797310741e-07 
6.64514492853181265e-06 0.00000000000000000e+00 -1.45827870116407399e-07 
7.44832788116237297e-06 0.00000000000000000e+00 8.79383285252010601e-08 
7.66165757037616636e-06 0.00000000000000000e+00 7.45187988819168632e-08 
7.32091451726793823e-06 0.00000000000000000e+00 -3.16131681771847347e-08 
6.67696837675481503e-06 0.00000000000000000e+00 -8.12772074470332485e-08 
5.90780528427370144e-06 0.00000000000000000e+00 -5.67585426659657302e-09 
5.09039415627836380e-06 0.00000000000000000e+00 9.72182249811260939e-08 
4.22116074684523389e-06 0.00000000000000000e+00 4.76762579203441009e-08 