# vtk DataFile Version 2.0

ASCII

DATASET UNSTRUCTURED_GRID

POINTS 281 double 

0.00000000000000000e+00  6.00000000000000012e-03  8.68039800000000063e-03
0.00000000000000000e+00  6.00000000000000012e-03  2.15013699999999988e-02
0.00000000000000000e+00  5.99999699999999997e-03  3.38432499999999983e-02
0.00000000000000000e+00  6.00000000000000012e-03  4.61511800000000000e-02
0.00000000000000000e+00  5.99999399999999981e-03  5.84285100000000029e-02
0.00000000000000000e+00  5.99999899999999978e-03  7.03572799999999943e-02
0.00000000000000000e+00  6.00000000000000012e-03  7.56573400000000035e-02
0.00000000000000000e+00  6.00000000000000012e-03  1.52458600000000000e-02
0.00000000000000000e+00  5.99999899999999978e-03  2.76822099999999988e-02
0.00000000000000000e+00  5.99999899999999978e-03  3.99985900000000005e-02
0.00000000000000000e+00  5.99999800000000031e-03  5.22986000000000006e-02
0.00000000000000000e+00  5.99999800000000031e-03  6.44963600000000026e-02
0.00000000000000000e+00  3.00000000000000006e-03  3.07692300000000007e-03
0.00000000000000000e+00  3.00000000000000006e-03  1.04940499999999996e-02
0.00000000000000000e+00  3.00000000000000006e-03  7.41712199999999995e-03
0.00000000000000000e+00  3.00000000000000006e-03  2.30583799999999998e-02
0.00000000000000000e+00  3.00000000000000006e-03  1.99814599999999995e-02
0.00000000000000000e+00  2.99999900000000016e-03  3.53831699999999985e-02
0.00000000000000000e+00  2.99999900000000016e-03  3.23062400000000000e-02
0.00000000000000000e+00  3.00000000000000006e-03  4.76909699999999992e-02
0.00000000000000000e+00  3.00000000000000006e-03  4.46140500000000023e-02
0.00000000000000000e+00  2.99999699999999991e-03  5.99834799999999987e-02
0.00000000000000000e+00  2.99999699999999991e-03  5.69065600000000019e-02
0.00000000000000000e+00  2.99999900000000016e-03  7.21017199999999941e-02
0.00000000000000000e+00  2.99999900000000016e-03  6.90247900000000025e-02
0.00000000000000000e+00  3.00000000000000006e-03  7.78286700000000026e-02
0.00000000000000000e+00  3.00000000000000006e-03  7.47517500000000057e-02
0.00000000000000000e+00  5.99999899999999978e-03  7.30073100000000058e-02
0.00000000000000000e+00  6.00000000000000012e-03  7.78286700000000026e-02
0.00000000000000000e+00  8.99999999999999932e-03  7.47517500000000057e-02
0.00000000000000000e+00  8.99999999999999932e-03  7.78286700000000026e-02
0.00000000000000000e+00  8.99999999999999932e-03  3.07692300000000007e-03
0.00000000000000000e+00  8.99999999999999932e-03  7.41712199999999995e-03
0.00000000000000000e+00  8.99999999999999932e-03  1.04940499999999996e-02
0.00000000000000000e+00  8.99999999999999932e-03  1.99814599999999995e-02
0.00000000000000000e+00  8.99999999999999932e-03  2.30583799999999998e-02
0.00000000000000000e+00  8.99999899999999985e-03  3.23062400000000000e-02
0.00000000000000000e+00  8.99999899999999985e-03  3.53831699999999985e-02
0.00000000000000000e+00  8.99999999999999932e-03  4.46140500000000023e-02
0.00000000000000000e+00  8.99999999999999932e-03  4.76909699999999992e-02
0.00000000000000000e+00  8.99999699999999916e-03  5.69065600000000019e-02
0.00000000000000000e+00  8.99999699999999916e-03  5.99834799999999987e-02
0.00000000000000000e+00  8.99999899999999985e-03  6.90247900000000025e-02
0.00000000000000000e+00  8.99999899999999985e-03  7.21017199999999941e-02
0.00000000000000000e+00  6.00000000000000012e-03  4.34019900000000031e-03
0.00000000000000000e+00  3.00000000000000006e-03  1.37767800000000006e-02
0.00000000000000000e+00  6.00000000000000012e-03  1.19631300000000006e-02
0.00000000000000000e+00  3.00000000000000006e-03  1.68536999999999992e-02
0.00000000000000000e+00  6.00000000000000012e-03  1.83736200000000002e-02
0.00000000000000000e+00  5.99999800000000031e-03  3.07627299999999985e-02
0.00000000000000000e+00  3.00000000000000006e-03  2.92257200000000002e-02
0.00000000000000000e+00  3.00000000000000006e-03  2.61487999999999998e-02
0.00000000000000000e+00  8.99999999999999932e-03  2.92257200000000002e-02
0.00000000000000000e+00  6.00000000000000012e-03  4.30748800000000029e-02
0.00000000000000000e+00  2.99999900000000016e-03  4.15377600000000000e-02
0.00000000000000000e+00  2.99999900000000016e-03  3.84608300000000014e-02
0.00000000000000000e+00  8.99999899999999985e-03  4.15377600000000000e-02
0.00000000000000000e+00  5.99999599999999963e-03  5.53635499999999975e-02
0.00000000000000000e+00  2.99999900000000016e-03  5.38416099999999981e-02
0.00000000000000000e+00  2.99999900000000016e-03  5.07646799999999995e-02
0.00000000000000000e+00  8.99999899999999985e-03  5.38416099999999981e-02
0.00000000000000000e+00  5.99999800000000031e-03  6.74268199999999984e-02
0.00000000000000000e+00  2.99999900000000016e-03  6.60943300000000067e-02
0.00000000000000000e+00  2.99999900000000016e-03  6.30174099999999959e-02
0.00000000000000000e+00  8.99999899999999985e-03  6.60943300000000067e-02
0.00000000000000000e+00  5.99999899999999978e-03  4.92248900000000003e-02
0.00000000000000000e+00  8.99999999999999932e-03  1.68536999999999992e-02
0.00000000000000000e+00  5.99999899999999978e-03  2.45917899999999988e-02
0.00000000000000000e+00  8.99999999999999932e-03  2.61487999999999998e-02
0.00000000000000000e+00  8.99999999999999932e-03  1.37767800000000006e-02
0.00000000000000000e+00  5.99999800000000031e-03  3.69209200000000029e-02
0.00000000000000000e+00  8.99999899999999985e-03  3.84608300000000014e-02
0.00000000000000000e+00  8.99999899999999985e-03  5.07646799999999995e-02
0.00000000000000000e+00  5.99999599999999963e-03  6.14624299999999985e-02
0.00000000000000000e+00  8.99999899999999985e-03  6.30174099999999959e-02
1.20000000000000002e-02  1.20000000000000002e-02  8.00000000000000017e-02
0.00000000000000000e+00  0.00000000000000000e+00  8.00000000000000017e-02
1.20000000000000002e-02  6.00000000000000012e-03  0.00000000000000000e+00
1.20000000000000002e-02  3.00000000000000006e-03  0.00000000000000000e+00
1.20000000000000002e-02  8.99999999999999932e-03  0.00000000000000000e+00
1.20000000000000002e-02  0.00000000000000000e+00  8.00000000000000017e-02
1.20000000000000002e-02  0.00000000000000000e+00  0.00000000000000000e+00
0.00000000000000000e+00  1.20000000000000002e-02  0.00000000000000000e+00
1.20000000000000002e-02  5.99999899999999978e-03  8.68039699999999942e-03
1.20000000000000002e-02  5.99999899999999978e-03  1.52458600000000000e-02
1.20000000000000002e-02  5.99999899999999978e-03  2.15013699999999988e-02
1.20000000000000002e-02  6.00000000000000012e-03  2.76822099999999988e-02
1.20000000000000002e-02  5.99999899999999978e-03  3.38432399999999967e-02
1.20000000000000002e-02  5.99999800000000031e-03  3.99985900000000005e-02
1.20000000000000002e-02  5.99999699999999997e-03  4.61511800000000000e-02
1.20000000000000002e-02  5.99999300000000034e-03  5.22986100000000023e-02
1.20000000000000002e-02  5.99998599999999969e-03  5.84285400000000010e-02
1.20000000000000002e-02  5.99997800000000043e-03  6.44963800000000059e-02
1.20000000000000002e-02  5.99997500000000027e-03  7.03572999999999976e-02
1.20000000000000002e-02  5.99997500000000027e-03  7.56573600000000068e-02
1.20000000000000002e-02  3.00000000000000006e-03  3.07692300000000007e-03
1.20000000000000002e-02  3.00000000000000006e-03  7.41712099999999961e-03
1.20000000000000002e-02  3.00000000000000006e-03  1.04940399999999996e-02
1.20000000000000002e-02  2.99999900000000016e-03  1.37767800000000006e-02
1.20000000000000002e-02  2.99999900000000016e-03  1.68536999999999992e-02
1.20000000000000002e-02  5.99999899999999978e-03  1.19631300000000006e-02
1.20000000000000002e-02  3.00000000000000006e-03  1.99814500000000013e-02
1.20000000000000002e-02  3.00000000000000006e-03  2.30583799999999998e-02
1.20000000000000002e-02  5.99999899999999978e-03  1.83736099999999986e-02
1.20000000000000002e-02  3.00000000000000006e-03  2.61487999999999998e-02
1.20000000000000002e-02  3.00000000000000006e-03  2.92257200000000002e-02
1.20000000000000002e-02  5.99999899999999978e-03  2.45917899999999988e-02
1.20000000000000002e-02  3.00000000000000006e-03  3.23062299999999983e-02
1.20000000000000002e-02  3.00000000000000006e-03  3.53831599999999968e-02
1.20000000000000002e-02  5.99999899999999978e-03  3.07627200000000003e-02
1.20000000000000002e-02  2.99999900000000016e-03  3.84608300000000014e-02
1.20000000000000002e-02  2.99999900000000016e-03  4.15377499999999983e-02
1.20000000000000002e-02  5.99999899999999978e-03  3.69209100000000012e-02
1.20000000000000002e-02  2.99999799999999981e-03  4.46140500000000023e-02
1.20000000000000002e-02  2.99999799999999981e-03  4.76909800000000009e-02
1.20000000000000002e-02  5.99999800000000031e-03  4.30748800000000029e-02
1.20000000000000002e-02  2.99999699999999991e-03  5.07646900000000012e-02
1.20000000000000002e-02  2.99999699999999991e-03  5.38416099999999981e-02
1.20000000000000002e-02  5.99999500000000015e-03  4.92249000000000020e-02
1.20000000000000002e-02  2.99999299999999984e-03  5.69065799999999983e-02
1.20000000000000002e-02  2.99999299999999984e-03  5.99835000000000021e-02
1.20000000000000002e-02  5.99999000000000018e-03  5.53635800000000025e-02
1.20000000000000002e-02  2.99998900000000021e-03  6.30174200000000045e-02
1.20000000000000002e-02  2.99998900000000021e-03  6.60943499999999962e-02
1.20000000000000002e-02  5.99998200000000006e-03  6.14624599999999965e-02
1.20000000000000002e-02  2.99998799999999987e-03  6.90248100000000059e-02
1.20000000000000002e-02  2.99998799999999987e-03  7.21017300000000028e-02
1.20000000000000002e-02  5.99997700000000009e-03  6.74268400000000018e-02
1.20000000000000002e-02  2.99998699999999997e-03  7.47517600000000004e-02
1.20000000000000002e-02  2.99998699999999997e-03  7.78286799999999973e-02
1.20000000000000002e-02  5.99998700000000003e-03  7.78286799999999973e-02
1.20000000000000002e-02  5.99997500000000027e-03  7.30073299999999953e-02
1.20000000000000002e-02  8.99998699999999922e-03  7.78286799999999973e-02
1.20000000000000002e-02  8.99999999999999932e-03  3.07692300000000007e-03
[...]
POINT_DATA 281

SCALARS Rank unsigned_int
LOOKUP_TABLE default
0 0 0 0 0 0 0 0 0 0 0 0 0 0 0 0 0 0 0 0 0 0 0 0 0 0 0 0 0 0 0 0 0 0 0 0 0 0 0 0 0 0 0 0 0 0 0 0 0 0 0 0 0 0 0 0 0 0 0 0 0 0 0 0 0 0 0 0 0 0 0 0 0 0 0 0 0 0 0 0 0 0 0 0 0 0 0 0 0 0 0 0 0 0 0 0 0 0 0 0 0 0 0 0 0 0 0 0 0 0 0 0 0 0 0 0 0 0 0 0 0 0 0 0 0 0 0 0 0 0 0 0 0 0 0 0 0 0 0 0 0 0 0 0 0 0 0 0 0 0 0 0 0 0 0 0 0 0 0 0 0 0 0 0 0 0 0 0 0 0 0 0 0 0 0 0 0 0 0 0 0 0 0 0 0 0 0 0 0 0 0 0 0 0 0 0 0 0 0 0 0 0 0 0 0 0 0 0 0 0 0 0 0 0 0 0 0 0 0 0 0 0 0 0 0 0 0 0 0 0 0 0 0 0 0 0 0 0 0 0 0 0 0 0 0 0 0 0 0 0 0 0 0 0 0 0 0 0 0 0 0 0 0 0 0 0 0 0 0 0 0 0 0 0 0 0 0 0 0 0 0 

VECTORS Forces0 double
2.93754812187567611e-02 0.00000000000000000e+00 -3.11287243433445255e-03 
2.81818994603111120e-02 0.00000000000000000e+00 -3.43877154748591183e-03 
2.24562613598885026e-02 0.00000000000000000e+00 -1.69976803003707997e-03 
1.38835044046911760e-02 0.00000000000000000e+00 -1.77305037002474270e-04 
5.45895725214737542e-03 0.00000000000000000e+00 1.95000709746493398e-04 
7.72171535907940519e-04 0.00000000000000000e+00 4.95155871590191959e-05 
-6.08283803336678134e-05 0.00000000000000000e+00 3.80838389646267551e-05 
2.94590487521747373e-02 0.00000000000000000e+00 -3.59556599337928270e-03 
2.58706181025756196e-02 0.00000000000000000e+00 -2.71286139252260210e-03 
1.83634057714495424e-02 0.00000000000000000e+00 -8.06475791504299567e-04 
9.39616728167512287e-03 0.00000000000000000e+00 1.44056534171484760e-04 
2.55277433082980133e-03 0.00000000000000000e+00 1.19482091900521243e-04 
2.76277199617453936e-02 0.00000000000000000e+00 -2.32763192381185138e-03 
2.98450023241464100e-02 0.00000000000000000e+00 -3.38077646905867064e-03 
2.90986511456023285e-02 0.00000000000000000e+00 -2.93708107188179416e-03 
2.74457856456124041e-02 0.00000000000000000e+00 -3.23411736722858337e-03 
2.88422796135932268e-02 0.00000000000000000e+00 -3.60348478561886955e-03 
2.17436256008481307e-02 0.00000000000000000e+00 -1.49398146687471675e-03 
2.32117904135421757e-02 0.00000000000000000e+00 -1.92807647206451132e-03 
1.26286609514054786e-02 0.00000000000000000e+00 -6.66373325296905296e-05 
1.51856608627219201e-02 0.00000000000000000e+00 -3.08328452284454971e-04 
4.67395407332227199e-03 0.00000000000000000e+00 1.86780734524323767e-04 
6.29794879068850191e-03 0.00000000000000000e+00 1.95427469378292362e-04 
4.18589986999263813e-04 0.00000000000000000e+00 3.86766076722120630e-05 
1.09822696250741914e-03 0.00000000000000000e+00 6.20295563879147025e-05 
-2.15377839949094376e-04 0.00000000000000000e+00 5.11208630167971843e-05 
3.22130704974742842e-05 0.00000000000000000e+00 3.55191593934475611e-05 
2.66946435197757011e-04 0.00000000000000000e+00 3.57786507469243052e-05 
-2.15377839945369003e-04 0.00000000000000000e+00 5.11208630141631422e-05 
3.22130704908426532e-05 0.00000000000000000e+00 3.55191593915598025e-05 
-2.15377839946050587e-04 0.00000000000000000e+00 5.11208630157720169e-05 
2.76277199617410742e-02 0.00000000000000000e+00 -2.32763192380994405e-03 
2.90986511456056106e-02 0.00000000000000000e+00 -2.93708107188282806e-03 
2.98450023241475342e-02 0.00000000000000000e+00 -3.38077646905924787e-03 
2.88422796135883522e-02 0.00000000000000000e+00 -3.60348478562082936e-03 
2.74457856456252550e-02 0.00000000000000000e+00 -3.23411736722770560e-03 
2.32117904135479280e-02 0.00000000000000000e+00 -1.92807647206460174e-03 
2.17436256008532412e-02 0.00000000000000000e+00 -1.49398146687490844e-03 
1.51856608627207335e-02 0.00000000000000000e+00 -3.08328452286356879e-04 
1.26286609514012563e-02 0.00000000000000000e+00 -6.66373325292538129e-05 
6.29794879068958091e-03 0.00000000000000000e+00 1.95427469380123146e-04 
4.67395407332211413e-03 0.00000000000000000e+00 1.86780734523313291e-04 
1.09822696251764360e-03 0.00000000000000000e+00 6.20295563886194340e-05 
4.18589987000302045e-04 0.00000000000000000e+00 3.86766076707890477e-05 
2.83981604731228868e-02 0.00000000000000000e+00 -2.54339576129912785e-03 
2.98036214970310853e-02 0.00000000000000000e+00 -3.60085356531604115e-03 
3.01138620185528831e-02 0.00000000000000000e+00 -3.56054805417669847e-03 
2.91976757405330231e-02 0.00000000000000000e+00 -3.60405577788528277e-03 
2.90499460776286536e-02 0.00000000000000000e+00 -3.62088843033060281e-03 
2.40813036974398993e-02 0.00000000000000000e+00 -2.18636141658312038e-03 
2.50430172560006763e-02 0.00000000000000000e+00 -2.46504361392941478e-03 
2.63399855262513062e-02 0.00000000000000000e+00 -2.87840333447044600e-03 
2.50430172560016616e-02 0.00000000000000000e+00 -2.46504361392789906e-03 
1.63025409572113873e-02 0.00000000000000000e+00 -4.52663790638299743e-04 
1.73009784118795321e-02 0.00000000000000000e+00 -6.15870165480994925e-04 
1.95321643214553080e-02 0.00000000000000000e+00 -1.02622615599528492e-03 
1.73009784118774435e-02 0.00000000000000000e+00 -6.15870165480607973e-04 
7.24735561844222064e-03 0.00000000000000000e+00 1.88737593528692712e-04 
8.28653504708370958e-03 0.00000000000000000e+00 1.73094275004104036e-04 
1.04274513472555150e-02 0.00000000000000000e+00 9.40088520168250787e-05 
8.28653504708316314e-03 0.00000000000000000e+00 1.73094275005820436e-04 
1.54564383303467680e-03 0.00000000000000000e+00 8.00276554730725866e-05 
1.96818030822890847e-03 0.00000000000000000e+00 9.66315912341131442e-05 
3.17893502638692729e-03 0.00000000000000000e+00 1.42831586151278937e-04 
1.96818030823560841e-03 0.00000000000000000e+00 9.66315912355098134e-05 
1.14776037580395368e-02 0.00000000000000000e+00 2.34816952199918397e-05 
2.91976757405389420e-02 0.00000000000000000e+00 -3.60405577788457413e-03 
2.68265493049169128e-02 0.00000000000000000e+00 -3.04490579881462912e-03 
2.63399855262462027e-02 0.00000000000000000e+00 -2.87840333447017798e-03 
2.98036214970345825e-02 0.00000000000000000e+00 -3.60085356531734437e-03 
2.07421604565510634e-02 0.00000000000000000e+00 -1.26618426511969991e-03 
1.95321643214507977e-02 0.00000000000000000e+00 -1.02622615599634484e-03 
1.04274513472582871e-02 0.00000000000000000e+00 9.40088520172526881e-05 
3.91746256436907841e-03 0.00000000000000000e+00 1.67452310413856439e-04 
3.17893502639153081e-03 0.00000000000000000e+00 1.42831586150151259e-04 
-3.88404362966286384e-04 0.00000000000000000e+00 8.84613555808625438e-05 
-2.87568934897833501e-04 0.00000000000000000e+00 7.20713333772084565e-05 
-1.06520859588341466e-03 0.00000000000000000e+00 5.12573646822882473e-04 
-1.06520859588761269e-03 0.00000000000000000e+00 5.12573646822942104e-04 
-1.06520859588430630e-03 0.00000000000000000e+00 5.12573646822045686e-04 
-3.88404362973041614e-04 0.00000000000000000e+00 8.84613555820041003e-05 
-1.06520859588571143e-03 0.00000000000000000e+00 5.12573646820734452e-04 
2.52575559536788244e-02 0.00000000000000000e+00 -1.77902983651225194e-03 
-2.07515960222346834e-04 0.00000000000000000e+00 -2.86695783133353873e-05 
1.04633093517115654e-04 0.00000000000000000e+00 -2.14951875771848090e-04 
1.65000792467909950e-04 0.00000000000000000e+00 -2.00577658292553783e-04 
1.76293930427189017e-04 0.00000000000000000e+00 -8.23023829822649191e-05 
1.91945205966249108e-04 0.00000000000000000e+00 4.14214153817113020e-05 
1.49048637583219714e-04 0.00000000000000000e+00 1.09080867192020008e-04 
3.21190856170531152e-05 0.00000000000000000e+00 1.02980924685445015e-04 
-6.67883223123684705e-05 0.00000000000000000e+00 4.15606515027908591e-05 
-4.94939757086165107e-05 0.00000000000000000e+00 -3.36542020766733742e-05 
7.54109835044960899e-05 0.00000000000000000e+00 -7.96747152332547123e-05 
1.78772175462097002e-04 0.00000000000000000e+00 -6.92865825444808887e-05 
5.46881218264220131e-05 0.00000000000000000e+00 -3.44901008574934081e-06 
-7.51227938343756031e-04 0.00000000000000000e+00 2.93357316397641868e-04 
-3.09552314614912295e-04 0.00000000000000000e+00 3.24056852498907108e-05 
-8.44798610672193597e-05 0.00000000000000000e+00 -1.02786756137814432e-04 
6.53013526524145034e-05 0.00000000000000000e+00 -1.93057349098302842e-04 
1.34439974786948512e-04 0.00000000000000000e+00 -2.27000139381080911e-04 
-6.54614295816208745e-06 0.00000000000000000e+00 -1.50206407363857116e-04 
1.60926191502804158e-04 0.00000000000000000e+00 -2.17867577778982813e-04 
1.68134158035406362e-04 0.00000000000000000e+00 -1.76581235765155319e-04 
1.50663517789278295e-04 0.00000000000000000e+00 -2.27352227021544631e-04 
1.72960825250739460e-04 0.00000000000000000e+00 -1.15738521540052257e-04 
1.81912149836050633e-04 0.00000000000000000e+00 -4.87548817771745193e-05 
1.69605446572160246e-04 0.00000000000000000e+00 -1.47853694011819973e-04 
1.91034165366770517e-04 0.00000000000000000e+00 1.41098166297169804e-05 
1.89581258213011004e-04 0.00000000000000000e+00 6.49872642770985161e-05 
1.86625183912387350e-04 0.00000000000000000e+00 -1.62573836309971921e-05 
1.68585050229928276e-04 0.00000000000000000e+00 9.90653085355737862e-05 
1.24578200196751726e-04 0.00000000000000000e+00 1.14392508340572014e-04 
1.81624385418308428e-04 0.00000000000000000e+00 8.42936761062398698e-05 
6.42179103736010605e-05 0.00000000000000000e+00 1.11055310028148038e-04 
9.23631919647852507e-07 0.00000000000000000e+00 9.14672394762315664e-05 
9.55362396743810512e-05 0.00000000000000000e+00 1.14909615273747648e-04 
-5.05496387969600443e-05 0.00000000000000000e+00 6.00754707274125173e-05 
-7.50609759065180621e-05 0.00000000000000000e+00 2.22319743062088975e-05 
-2.71826526601884449e-05 0.00000000000000000e+00 7.68766032856532997e-05 
-6.62446512694389432e-05 0.00000000000000000e+00 -1.60681815222427421e-05 
-2.54224492799257270e-05 0.00000000000000000e+00 -4.95667247095699014e-05 
-7.46030704804334643e-05 0.00000000000000000e+00 2.85189027722366493e-06 
3.95432206090164646e-05 0.00000000000000000e+00 -7.28752683817932798e-05 
1.12518001351615714e-04 0.00000000000000000e+00 -8.30029583631582981e-05 
4.51796185533087817e-06 0.00000000000000000e+00 -6.24369935015910913e-05 
1.66562760885638657e-04 0.00000000000000000e+00 -7.72981000863267361e-05 
1.74227619362500575e-04 0.00000000000000000e+00 -5.36012804409694620e-05 
1.40807240019622459e-04 0.00000000000000000e+00 -8.24337112608996935e-05 
1.02863254087438719e-04 0.00000000000000000e+00 -1.85158818838423849e-05 
-1.16254467347328712e-04 0.00000000000000000e+00 3.85832037774280640e-05 
-1.16254467360807080e-04 0.00000000000000000e+00 3.85832037771956110e-05 
1.59871895346218350e-04 0.00000000000000000e+00 -4.31272337485270944e-05 
-1.16254467357479880e-04 0.00000000000000000e+00 3.85832037769279215e-05 
-7.51227938343128061e-04 0.00000000000000000e+00 2.93357316396377905e-04 
-8.44798610644368632e-05 0.00000000000000000e+00 -1.02786756137996903e-04 
-3.09552314632946480e-04 0.00000000000000000e+00 3.24056852496793998e-05 
1.34439974777568862e-04 0.00000000000000000e+00 -2.27000139378554232e-04 
6.53013526626805969e-05 0.00000000000000000e+00 -1.93057349097395744e-04 
1.68134158036256377e-04 0.00000000000000000e+00 -1.76581235765423171e-04 
1.60926191501152701e-04 0.00000000000000000e+00 -2.17867577778545229e-04 
1.81912149840187949e-04 0.00000000000000000e+00 -4.87548817762052425e-05 
1.72960825248767079e-04 0.00000000000000000e+00 -1.15738521539562197e-04 
1.89581258209452219e-04 0.00000000000000000e+00 6.49872642766623416e-05 
1.91034165368110591e-04 0.00000000000000000e+00 1.41098166299461808e-05 
1.24578200197063976e-04 0.00000000000000000e+00 1.14392508340606437e-04 
1.68585050223941745e-04 0.00000000000000000e+00 9.90653085346967480e-05 
9.23631920771085958e-07 0.00000000000000000e+00 9.14672394767032079e-05 
6.42179103777323044e-05 0.00000000000000000e+00 1.11055310027550615e-04 
-7.50609759151409388e-05 0.00000000000000000e+00 2.22319743068168096e-05 
-5.05496387972614525e-05 0.00000000000000000e+00 6.00754707273531302e-05 
-2.54224492734786272e-05 0.00000000000000000e+00 -4.95667247102116949e-05 
-6.62446512788619611e-05 0.00000000000000000e+00 -1.60681815241389033e-05 
1.12518001354478984e-04 0.00000000000000000e+00 -8.30029583631556960e-05 
3.95432206028072388e-05 0.00000000000000000e+00 -7.28752683813265308e-05 
1.74227619365430956e-04 0.00000000000000000e+00 -5.36012804430743321e-05 
1.66562760885258752e-04 0.00000000000000000e+00 -7.72981000875755202e-05 
-6.11495021765970414e-04 0.00000000000000000e+00 2.10191567773108809e-04 
1.02863254078223000e-04 0.00000000000000000e+00 -1.85158818838596237e-05 
-2.87568934888236686e-04 0.00000000000000000e+00 7.20713333768380389e-05 
2.88585224179936026e-02 0.00000000000000000e+00 -2.77521688076204365e-03 
3.00949296193257984e-02 0.00000000000000000e+00 -3.57995724169043236e-03 
2.90427132405783155e-02 0.00000000000000000e+00 -3.62164244700168957e-03 
2.68181968978754293e-02 0.00000000000000000e+00 -3.04220091858983669e-03 
2.40773787485234307e-02 0.00000000000000000e+00 -2.18521287374525601e-03 
2.07404960570119618e-02 0.00000000000000000e+00 -1.26584117487133939e-03 
1.63012157375483635e-02 0.00000000000000000e+00 -4.52463400009660060e-04 
1.14734104703617824e-02 0.00000000000000000e+00 2.37887741512355242e-05 
7.23364285054621005e-03 0.00000000000000000e+00 1.88884807985654596e-04 
3.87955934269512475e-03 0.00000000000000000e+00 1.66297514197059291e-04 
1.46758081854862256e-03 0.00000000000000000e+00 7.69570014947461420e-05 
1.44567468581460241e-04 0.00000000000000000e+00 3.47813379143420000e-05 
2.76277199617476418e-02 0.00000000000000000e+00 -2.32763192381074463e-03 
2.95110328877696247e-02 0.00000000000000000e+00 -3.19322074698052873e-03 
2.94305230903702877e-02 0.00000000000000000e+00 -3.59542442284392465e-03 
2.81637646464949591e-02 0.00000000000000000e+00 -3.43395370316074491e-03 
2.58669291870309466e-02 0.00000000000000000e+00 -2.71162935410032254e-03 
2.24549231389582910e-02 0.00000000000000000e+00 -1.69936459699741079e-03 
1.83623817269990726e-02 0.00000000000000000e+00 -8.06287248623417901e-04 
1.38812553782958654e-02 0.00000000000000000e+00 -1.77094701681255860e-04 
9.38965746229633753e-03 0.00000000000000000e+00 1.44280765873243698e-04 
5.44172155088020262e-03 0.00000000000000000e+00 1.94917836960948590e-04 
2.50591686962690213e-03 0.00000000000000000e+00 1.17676216944983722e-04 
6.80991212186090678e-04 0.00000000000000000e+00 4.63480860571103217e-05 
-1.62293091730834964e-04 0.00000000000000000e+00 4.45885200397744207e-05 
-4.52076643234484434e-04 0.00000000000000000e+00 7.88161753199825702e-05 
-4.52076643238855070e-04 0.00000000000000000e+00 7.88161753211681453e-05 
-1.97476216860873149e-04 0.00000000000000000e+00 7.50900104500837654e-05 
-1.97476216855569666e-04 0.00000000000000000e+00 7.50900104495346170e-05 
-3.21097800273218359e-04 0.00000000000000000e+00 8.05567870174509035e-05 
-3.21097800276569736e-04 0.00000000000000000e+00 8.05567870187894053e-05 
-4.52076643238613835e-04 0.00000000000000000e+00 7.88161753211564359e-05 
-1.97476216868672683e-04 0.00000000000000000e+00 7.50900104507184574e-05 
-3.88404362972615523e-04 0.00000000000000000e+00 8.84613555819386145e-05 
-3.88404362984401017e-04 0.00000000000000000e+00 8.84613555822039187e-05 
-3.88404362979109026e-04 0.00000000000000000e+00 8.84613555825174700e-05 
-2.87568934893193875e-04 0.00000000000000000e+00 7.20713333764471569e-05 
-2.87568934891166091e-04 0.00000000000000000e+00 7.20713333771985090e-05 
-2.87568934891265730e-04 0.00000000000000000e+00 7.20713333769568945e-05 
-4.24705144445880055e-04 0.00000000000000000e+00 1.00707129831845792e-04 
8.95813918260096382e-06 0.00000000000000000e+00 -1.59664355286064140e-04 
1.51360467876649114e-04 0.00000000000000000e+00 -2.27078884351461497e-04 
1.69638411713136461e-04 0.00000000000000000e+00 -1.47384518660964516e-04 
1.86645047519015510e-04 0.00000000000000000e+00 -1.61236958815684346e-05 
1.81609720201372256e-04 0.00000000000000000e+00 8.43177754925171524e-05 
9.54955984179039135e-05 0.00000000000000000e+00 1.14907359633734023e-04 
-2.72824259098102215e-05 0.00000000000000000e+00 7.68162218244319557e-05 
-7.45426728569126485e-05 0.00000000000000000e+00 2.58714188195031417e-06 
6.17020348477556217e-06 0.00000000000000000e+00 -6.30260103566871225e-05 
1.45850470811020915e-04 0.00000000000000000e+00 -8.19313197323788230e-05 
1.38025559537187099e-04 0.00000000000000000e+00 -3.20300650839416709e-05 
-7.51227938349421638e-04 0.00000000000000000e+00 2.93357316396789577e-04 
-1.67488643456578120e-04 0.00000000000000000e+00 -5.28737163281243604e-05 
1.07663322116443276e-04 0.00000000000000000e+00 -2.16463899572131213e-04 
1.65075589097129219e-04 0.00000000000000000e+00 -2.00072570726613896e-04 
1.76322676308823286e-04 0.00000000000000000e+00 -8.20807105902160634e-05 
1.91944117242724553e-04 0.00000000000000000e+00 4.14697727259995461e-05 
1.49028266103186033e-04 0.00000000000000000e+00 1.09087911792302503e-04 
3.20634591415622008e-05 0.00000000000000000e+00 1.02963779382963641e-04 
-6.68609902123211766e-05 0.00000000000000000e+00 4.14482304336936721e-05 
-4.90535521844994793e-05 0.00000000000000000e+00 -3.40162658801707184e-05 
7.82863494673681861e-05 0.00000000000000000e+00 -8.00737320732374159e-05 
1.80210817821932609e-04 0.00000000000000000e+00 -6.61242757588551146e-05 
-3.38053729748912662e-05 0.00000000000000000e+00 2.00466534112023802e-05 
2.52575559536761148e-02 0.00000000000000000e+00 -1.77902983651500083e-03 
2.52575559536765762e-02 0.00000000000000000e+00 -1.77902983651568518e-03 
2.52575559536748276e-02 0.00000000000000000e+00 -1.77902983651567000e-03 
-3.21097800275085897e-04 0.00000000000000000e+00 8.05567870186490011e-05 
-4.52076643238188069e-04 0.00000000000000000e+00 7.88161753217184999e-05 
-1.97476216860184030e-04 0.00000000000000000e+00 7.50900104516389450e-05 
-4.24705144447649473e-04 0.00000000000000000e+00 1.00707129833047196e-04 
8.95813918303290997e-06 0.00000000000000000e+00 -1.59664355286721871e-04 
1.51360467878402919e-04 0.00000000000000000e+00 -2.27078884350314411e-04 
1.69638411707606163e-04 0.00000000000000000e+00 -1.47384518661391420e-04 
1.86645047519509906e-04 0.00000000000000000e+00 -1.61236958814914020e-05 
1.81609720203064479e-04 0.00000000000000000e+00 8.43177754919018676e-05 
9.54955984147389105e-05 0.00000000000000000e+00 1.14907359633927554e-04 
-2.72824259116637735e-05 0.00000000000000000e+00 7.68162218248435460e-05 
-7.45426728546295356e-05 0.00000000000000000e+00 2.58714188139926842e-06 
6.17020349127231843e-06 0.00000000000000000e+00 -6.30260103569216354e-05 
1.45850470806599755e-04 0.00000000000000000e+00 -8.19313197325208535e-05 
1.38025559530915857e-04 0.00000000000000000e+00 -3.20300650852284021e-05 
-7.51227938349563885e-04 0.00000000000000000e+00 2.93357316397000671e-04 
-1.67488643463697425e-04 0.00000000000000000e+00 -5.28737163289247185e-05 
1.07663322116183067e-04 0.00000000000000000e+00 -2.16463899572021438e-04 
1.65075589091408101e-04 0.00000000000000000e+00 -2.00072570726816316e-04 
1.76322676313226014e-04 0.00000000000000000e+00 -8.20807105900624862e-05 
1.91944117246324104e-04 0.00000000000000000e+00 4.14697727258194059e-05 
1.49028266100706245e-04 0.00000000000000000e+00 1.09087911792228452e-04 
3.20634591436746603e-05 0.00000000000000000e+00 1.02963779382385259e-04 
-6.68609902129990198e-05 0.00000000000000000e+00 4.14482304339833710e-05 
-4.90535521840139736e-05 0.00000000000000000e+00 -3.40162658797818693e-05 
7.82863494751167622e-05 0.00000000000000000e+00 -8.00737320731481861e-05 
1.80210817818680002e-04 0.00000000000000000e+00 -6.61242757574137763e-05 
-3.38053729747238654e-05 0.00000000000000000e+00 2.00466534098921219e-05 
2.52575559536902527e-02 0.00000000000000000e+00 -1.77902983651333983e-03 
2.88585224180058081e-02 0.00000000000000000e+00 -2.77521688076113769e-03 
3.00949296193226135e-02 0.00000000000000000e+00 -3.57995724169001862e-03 
2.90427132405819237e-02 0.00000000000000000e+00 -3.62164244700132094e-03 
2.68181968978855913e-02 0.00000000000000000e+00 -3.04220091859017929e-03 
2.40773787485213109e-02 0.00000000000000000e+00 -2.18521287374595467e-03 
2.07404960570177488e-02 0.00000000000000000e+00 -1.26584117487082331e-03 
1.63012157375492343e-02 0.00000000000000000e+00 -4.52463400009455797e-04 