# vtk DataFile Version 2.0

ASCII

DATASET UNSTRUCTURED_GRID

POINTS 281 double 

0.00000000000000000e+00  6.00000000000000012e-03  8.68039800000000063e-03
0.00000000000000000e+00  6.00000000000000012e-03  2.15013699999999988e-02
0.00000000000000000e+00  5.99999699999999997e-03  3.38432499999999983e-02
0.00000000000000000e+00  6.00000000000000012e-03  4.61511800000000000e-02
0.00000000000000000e+00  5.99999399999999981e-03  5.84285100000000029e-02
0.00000000000000000e+00  5.99999899999999978e-03  7.03572799999999943e-02
0.00000000000000000e+00  6.00000000000000012e-03  7.56573400000000035e-02
0.00000000000000000e+00  6.00000000000000012e-03  1.52458600000000000e-02
0.00000000000000000e+00  5.99999899999999978e-03  2.76822099999999988e-02
0.00000000000000000e+00  5.99999899999999978e-03  3.99985900000000005e-02
0.00000000000000000e+00  5.99999800000000031e-03  5.22986000000000006e-02
0.00000000000000000e+00  5.99999800000000031e-03  6.44963600000000026e-02
0.00000000000000000e+00  3.00000000000000006e-03  3.07692300000000007e-03
0.00000000000000000e+00  3.00000000000000006e-03  1.04940499999999996e-02
0.00000000000000000e+00  3.00000000000000006e-03  7.41712199999999995e-03
0.00000000000000000e+00  3.00000000000000006e-03  2.30583799999999998e-02
0.00000000000000000e+00  3.00000000000000006e-03  1.99814599999999995e-02
0.00000000000000000e+00  2.99999900000000016e-03  3.53831699999999985e-02
0.00000000000000000e+00  2.99999900000000016e-03  3.23062400000000000e-02
0.00000000000000000e+00  3.00000000000000006e-03  4.76909699999999992e-02
0.00000000000000000e+00  3.00000000000000006e-03  4.46140500000000023e-02
0.00000000000000000e+00  2.99999699999999991e-03  5.99834799999999987e-02
0.00000000000000000e+00  2.99999699999999991e-03  5.69065600000000019e-02
0.00000000000000000e+00  2.99999900000000016e-03  7.21017199999999941e-02
0.00000000000000000e+00  2.99999900000000016e-03  6.90247900000000025e-02
0.00000000000000000e+00  3.00000000000000006e-03  7.78286700000000026e-02
0.00000000000000000e+00  3.00000000000000006e-03  7.47517500000000057e-02
0.00000000000000000e+00  5.99999899999999978e-03  7.30073100000000058e-02
0.00000000000000000e+00  6.00000000000000012e-03  7.78286700000000026e-02
0.00000000000000000e+00  8.99999999999999932e-03  7.47517500000000057e-02
0.00000000000000000e+00  8.99999999999999932e-03  7.78286700000000026e-02
0.00000000000000000e+00  8.99999999999999932e-03  3.07692300000000007e-03
0.00000000000000000e+00  8.99999999999999932e-03  7.41712199999999995e-03
0.00000000000000000e+00  8.99999999999999932e-03  1.04940499999999996e-02
0.00000000000000000e+00  8.99999999999999932e-03  1.99814599999999995e-02
0.00000000000000000e+00  8.99999999999999932e-03  2.30583799999999998e-02
0.00000000000000000e+00  8.99999899999999985e-03  3.23062400000000000e-02
0.00000000000000000e+00  8.99999899999999985e-03  3.53831699999999985e-02
0.00000000000000000e+00  8.99999999999999932e-03  4.46140500000000023e-02
0.00000000000000000e+00  8.99999999999999932e-03  4.76909699999999992e-02
0.00000000000000000e+00  8.99999699999999916e-03  5.69065600000000019e-02
0.00000000000000000e+00  8.99999699999999916e-03  5.99834799999999987e-02
0.00000000000000000e+00  8.99999899999999985e-03  6.90247900000000025e-02
0.00000000000000000e+00  8.99999899999999985e-03  7.21017199999999941e-02
0.00000000000000000e+00  6.00000000000000012e-03  4.34019900000000031e-03
0.00000000000000000e+00  3.00000000000000006e-03  1.37767800000000006e-02
0.00000000000000000e+00  6.00000000000000012e-03  1.19631300000000006e-02
0.00000000000000000e+00  3.00000000000000006e-03  1.68536999999999992e-02
0.00000000000000000e+00  6.00000000000000012e-03  1.83736200000000002e-02
0.00000000000000000e+00  5.99999800000000031e-03  3.07627299999999985e-02
0.00000000000000000e+00  3.00000000000000006e-03  2.92257200000000002e-02
0.00000000000000000e+00  3.00000000000000006e-03  2.61487999999999998e-02
0.00000000000000000e+00  8.99999999999999932e-03  2.92257200000000002e-02
0.00000000000000000e+00  6.00000000000000012e-03  4.30748800000000029e-02
0.00000000000000000e+00  2.99999900000000016e-03  4.15377600000000000e-02
0.00000000000000000e+00  2.99999900000000016e-03  3.84608300000000014e-02
0.00000000000000000e+00  8.99999899999999985e-03  4.15377600000000000e-02
0.00000000000000000e+00  5.99999599999999963e-03  5.53635499999999975e-02
0.00000000000000000e+00  2.99999900000000016e-03  5.38416099999999981e-02
0.00000000000000000e+00  2.99999900000000016e-03  5.07646799999999995e-02
0.00000000000000000e+00  8.99999899999999985e-03  5.38416099999999981e-02
0.00000000000000000e+00  5.99999800000000031e-03  6.74268199999999984e-02
0.00000000000000000e+00  2.99999900000000016e-03  6.60943300000000067e-02
0.00000000000000000e+00  2.99999900000000016e-03  6.30174099999999959e-02
0.00000000000000000e+00  8.99999899999999985e-03  6.60943300000000067e-02
0.00000000000000000e+00  5.99999899999999978e-03  4.92248900000000003e-02
0.00000000000000000e+00  8.99999999999999932e-03  1.68536999999999992e-02
0.00000000000000000e+00  5.99999899999999978e-03  2.45917899999999988e-02
0.00000000000000000e+00  8.99999999999999932e-03  2.61487999999999998e-02
0.00000000000000000e+00  8.99999999999999932e-03  1.37767800000000006e-02
0.00000000000000000e+00  5.99999800000000031e-03  3.69209200000000029e-02
0.00000000000000000e+00  8.99999899999999985e-03  3.84608300000000014e-02
0.00000000000000000e+00  8.99999899999999985e-03  5.07646799999999995e-02
0.00000000000000000e+00  5.99999599999999963e-03  6.14624299999999985e-02
0.00000000000000000e+00  8.99999899999999985e-03  6.30174099999999959e-02
1.20000000000000002e-02  1.20000000000000002e-02  8.00000000000000017e-02
0.00000000000000000e+00  0.00000000000000000e+00  8.00000000000000017e-02
1.20000000000000002e-02  6.00000000000000012e-03  0.00000000000000000e+00
1.20000000000000002e-02  3.00000000000000006e-03  0.00000000000000000e+00
1.20000000000000002e-02  8.99999999999999932e-03  0.00000000000000000e+00
1.20000000000000002e-02  0.00000000000000000e+00  8.00000000000000017e-02
1.20000000000000002e-02  0.00000000000000000e+00  0.00000000000000000e+00
0.00000000000000000e+00  1.20000000000000002e-02  0.00000000000000000e+00
1.20000000000000002e-02  5.99999899999999978e-03  8.68039699999999942e-03
1.20000000000000002e-02  5.99999899999999978e-03  1.52458600000000000e-02
1.20000000000000002e-02  5.99999899999999978e-03  2.15013699999999988e-02
1.20000000000000002e-02  6.00000000000000012e-03  2.76822099999999988e-02
1.20000000000000002e-02  5.99999899999999978e-03  3.38432399999999967e-02
1.20000000000000002e-02  5.99999800000000031e-03  3.99985900000000005e-02
1.20000000000000002e-02  5.99999699999999997e-03  4.61511800000000000e-02
1.20000000000000002e-02  5.99999300000000034e-03  5.22986100000000023e-02
1.20000000000000002e-02  5.99998599999999969e-03  5.84285400000000010e-02
1.20000000000000002e-02  5.99997800000000043e-03  6.44963800000000059e-02
1.20000000000000002e-02  5.99997500000000027e-03  7.03572999999999976e-02
1.20000000000000002e-02  5.99997500000000027e-03  7.56573600000000068e-02
1.20000000000000002e-02  3.00000000000000006e-03  3.07692300000000007e-03
1.20000000000000002e-02  3.00000000000000006e-03  7.41712099999999961e-03
1.20000000000000002e-02  3.00000000000000006e-03  1.04940399999999996e-02
1.20000000000000002e-02  2.99999900000000016e-03  1.37767800000000006e-02
1.20000000000000002e-02  2.99999900000000016e-03  1.68536999999999992e-02
1.20000000000000002e-02  5.99999899999999978e-03  1.19631300000000006e-02
1.20000000000000002e-02  3.00000000000000006e-03  1.99814500000000013e-02
1.20000000000000002e-02  3.00000000000000006e-03  2.30583799999999998e-02
1.20000000000000002e-02  5.99999899999999978e-03  1.83736099999999986e-02
1.20000000000000002e-02  3.00000000000000006e-03  2.61487999999999998e-02
1.20000000000000002e-02  3.00000000000000006e-03  2.92257200000000002e-02
1.20000000000000002e-02  5.99999899999999978e-03  2.45917899999999988e-02
1.20000000000000002e-02  3.00000000000000006e-03  3.23062299999999983e-02
1.20000000000000002e-02  3.00000000000000006e-03  3.53831599999999968e-02
1.20000000000000002e-02  5.99999899999999978e-03  3.07627200000000003e-02
1.20000000000000002e-02  2.99999900000000016e-03  3.84608300000000014e-02
1.20000000000000002e-02  2.99999900000000016e-03  4.15377499999999983e-02
1.20000000000000002e-02  5.99999899999999978e-03  3.69209100000000012e-02
1.20000000000000002e-02  2.99999799999999981e-03  4.46140500000000023e-02
1.20000000000000002e-02  2.99999799999999981e-03  4.76909800000000009e-02
1.20000000000000002e-02  5.99999800000000031e-03  4.30748800000000029e-02
1.20000000000000002e-02  2.99999699999999991e-03  5.07646900000000012e-02
1.20000000000000002e-02  2.99999699999999991e-03  5.38416099999999981e-02
1.20000000000000002e-02  5.99999500000000015e-03  4.92249000000000020e-02
1.20000000000000002e-02  2.99999299999999984e-03  5.69065799999999983e-02
1.20000000000000002e-02  2.99999299999999984e-03  5.99835000000000021e-02
1.20000000000000002e-02  5.99999000000000018e-03  5.53635800000000025e-02
1.20000000000000002e-02  2.99998900000000021e-03  6.30174200000000045e-02
1.20000000000000002e-02  2.99998900000000021e-03  6.60943499999999962e-02
1.20000000000000002e-02  5.99998200000000006e-03  6.14624599999999965e-02
1.20000000000000002e-02  2.99998799999999987e-03  6.90248100000000059e-02
1.20000000000000002e-02  2.99998799999999987e-03  7.21017300000000028e-02
1.20000000000000002e-02  5.99997700000000009e-03  6.74268400000000018e-02
1.20000000000000002e-02  2.99998699999999997e-03  7.47517600000000004e-02
1.20000000000000002e-02  2.99998699999999997e-03  7.78286799999999973e-02
1.20000000000000002e-02  5.99998700000000003e-03  7.78286799999999973e-02
1.20000000000000002e-02  5.99997500000000027e-03  7.30073299999999953e-02
1.20000000000000002e-02  8.99998699999999922e-03  7.78286799999999973e-02
1.20000000000000002e-02  8.99999999999999932e-03  3.07692300000000007e-03
[...]
POINT_DATA 281

SCALARS Rank unsigned_int
LOOKUP_TABLE default
0 0 0 0 0 0 0 0 0 0 0 0 0 0 0 0 0 0 0 0 0 0 0 0 0 0 0 0 0 0 0 0 0 0 0 0 0 0 0 0 0 0 0 0 0 0 0 0 0 0 0 0 0 0 0 0 0 0 0 0 0 0 0 0 0 0 0 0 0 0 0 0 0 0 0 0 0 0 0 0 0 0 0 0 0 0 0 0 0 0 0 0 0 0 0 0 0 0 0 0 0 0 0 0 0 0 0 0 0 0 0 0 0 0 0 0 0 0 0 0 0 0 0 0 0 0 0 0 0 0 0 0 0 0 0 0 0 0 0 0 0 0 0 0 0 0 0 0 0 0 0 0 0 0 0 0 0 0 0 0 0 0 0 0 0 0 0 0 0 0 0 0 0 0 0 0 0 0 0 0 0 0 0 0 0 0 0 0 0 0 0 0 0 0 0 0 0 0 0 0 0 0 0 0 0 0 0 0 0 0 0 0 0 0 0 0 0 0 0 0 0 0 0 0 0 0 0 0 0 0 0 0 0 0 0 0 0 0 0 0 0 0 0 0 0 0 0 0 0 0 0 0 0 0 0 0 0 0 0 0 0 0 0 0 0 0 0 0 0 0 0 0 0 0 0 0 0 0 0 0 0 

VECTORS Forces0 double
1.27194203427436810e-02 0.00000000000000000e+00 -3.69059001161112623e-03 
1.19019970281499833e-02 0.00000000000000000e+00 -6.85891031548890948e-03 
8.69266798629320797e-03 0.00000000000000000e+00 -7.18047498334746428e-03 
5.32703898599229744e-03 0.00000000000000000e+00 -5.11789241554081765e-03 
3.59206695219273665e-03 0.00000000000000000e+00 -3.90919996021390787e-03 
2.61448135965804173e-03 0.00000000000000000e+00 -3.18354545869780096e-03 
2.02554088660041650e-03 0.00000000000000000e+00 -2.43299620457369543e-03 
1.27074274266615328e-02 0.00000000000000000e+00 -5.46709166914944016e-03 
1.05292953673843444e-02 0.00000000000000000e+00 -7.56693302365549388e-03 
6.86045146836773180e-03 0.00000000000000000e+00 -6.19361168555278545e-03 
4.25756444795600576e-03 0.00000000000000000e+00 -4.33797550363229471e-03 
3.11560951919437074e-03 0.00000000000000000e+00 -3.62098642262592739e-03 
1.18642856347830547e-02 0.00000000000000000e+00 -2.17565676665961187e-03 
1.29411243649902759e-02 0.00000000000000000e+00 -4.30263238764320901e-03 
1.25822533707862956e-02 0.00000000000000000e+00 -3.30715327092868678e-03 
1.14947139989967119e-02 0.00000000000000000e+00 -6.96218474961512145e-03 
1.22664998776514794e-02 0.00000000000000000e+00 -6.72354243292512012e-03 
8.32198392161230885e-03 0.00000000000000000e+00 -7.16145399334755604e-03 
9.09859651949797635e-03 0.00000000000000000e+00 -7.22509907569505137e-03 
4.97517691829907956e-03 0.00000000000000000e+00 -4.80071021942460752e-03 
5.72738013230232948e-03 0.00000000000000000e+00 -5.49586203775810894e-03 
3.50105479349440731e-03 0.00000000000000000e+00 -3.92399443647736216e-03 
3.69524321682397410e-03 0.00000000000000000e+00 -3.90931051683498631e-03 
2.40823632074803253e-03 0.00000000000000000e+00 -2.91465343712551993e-03 
2.77478167982480066e-03 0.00000000000000000e+00 -3.39410092441883374e-03 
1.72959891521325604e-03 0.00000000000000000e+00 -1.95759689601032695e-03 
2.12264363419181886e-03 0.00000000000000000e+00 -2.55979089833755728e-03 
2.30736716075134784e-03 0.00000000000000000e+00 -2.78793450557421286e-03 
1.72959891521023371e-03 0.00000000000000000e+00 -1.95759689600626726e-03 
2.12264363419468680e-03 0.00000000000000000e+00 -2.55979089835579746e-03 
1.72959891521125416e-03 0.00000000000000000e+00 -1.95759689600363438e-03 
1.18642856347728233e-02 0.00000000000000000e+00 -2.17565676664840989e-03 
1.25822533707823266e-02 0.00000000000000000e+00 -3.30715327093195240e-03 
1.29411243649862149e-02 0.00000000000000000e+00 -4.30263238763796147e-03 
1.22664998776492052e-02 0.00000000000000000e+00 -6.72354243292127684e-03 
1.14947139989981587e-02 0.00000000000000000e+00 -6.96218474960716514e-03 
9.09859651950069293e-03 0.00000000000000000e+00 -7.22509907569300700e-03 
8.32198392160896951e-03 0.00000000000000000e+00 -7.16145399334793681e-03 
5.72738013230305112e-03 0.00000000000000000e+00 -5.49586203775492225e-03 
4.97517691830206936e-03 0.00000000000000000e+00 -4.80071021942589989e-03 
3.69524321682468491e-03 0.00000000000000000e+00 -3.90931051683990251e-03 
3.50105479348992998e-03 0.00000000000000000e+00 -3.92399443647612877e-03 
2.77478167982096692e-03 0.00000000000000000e+00 -3.39410092441773219e-03 
2.40823632074510432e-03 0.00000000000000000e+00 -2.91465343712175818e-03 
1.22274142993372189e-02 0.00000000000000000e+00 -2.51628845732373855e-03 
1.28952956648225540e-02 0.00000000000000000e+00 -5.16499744047336194e-03 
1.30597589427272100e-02 0.00000000000000000e+00 -4.78208656843113252e-03 
1.25434907066754257e-02 0.00000000000000000e+00 -5.86899966849448174e-03 
1.24242491517651855e-02 0.00000000000000000e+00 -6.30118689130975112e-03 
9.56402800186477269e-03 0.00000000000000000e+00 -7.33995980840368260e-03 
1.00743993062296540e-02 0.00000000000000000e+00 -7.50994080758074067e-03 
1.08282579765262253e-02 0.00000000000000000e+00 -7.35434018739382529e-03 
1.00743993062304190e-02 0.00000000000000000e+00 -7.50994080758104945e-03 
6.09320812901234087e-03 0.00000000000000000e+00 -5.75351259265145364e-03 
6.44962835199371348e-03 0.00000000000000000e+00 -5.94151899666586682e-03 
7.33977491265884463e-03 0.00000000000000000e+00 -6.53976597622528497e-03 
6.44962835199435532e-03 0.00000000000000000e+00 -5.94151899666603336e-03 
3.83968398024827576e-03 0.00000000000000000e+00 -3.97999480380742919e-03 
4.03110502072384809e-03 0.00000000000000000e+00 -4.13592662160151229e-03 
4.46247707000752957e-03 0.00000000000000000e+00 -4.45677154859043176e-03 
4.03110502072365814e-03 0.00000000000000000e+00 -4.13592662160083401e-03 
2.92873157243955101e-03 0.00000000000000000e+00 -3.55518804438622509e-03 
3.01347663821779563e-03 0.00000000000000000e+00 -3.58500165646365729e-03 
3.22929650666676322e-03 0.00000000000000000e+00 -3.69663335036398300e-03 
3.01347663822016743e-03 0.00000000000000000e+00 -3.58500165646117967e-03 
4.68814447491978144e-03 0.00000000000000000e+00 -4.58119430908141608e-03 
1.25434907066771708e-02 0.00000000000000000e+00 -5.86899966848344803e-03 
1.11347845754463312e-02 0.00000000000000000e+00 -7.12029281736731388e-03 
1.08282579765262132e-02 0.00000000000000000e+00 -7.35434018739482536e-03 
1.28952956648247814e-02 0.00000000000000000e+00 -5.16499744047707599e-03 
7.85983715296013560e-03 0.00000000000000000e+00 -6.92546992087207571e-03 
7.33977491265506293e-03 0.00000000000000000e+00 -6.53976597622317902e-03 
4.46247707000406880e-03 0.00000000000000000e+00 -4.45677154858699701e-03 
3.36773689804853883e-03 0.00000000000000000e+00 -3.81568989014512529e-03 
3.22929650666736734e-03 0.00000000000000000e+00 -3.69663335036069613e-03 
-4.79438520401941212e-04 0.00000000000000000e+00 5.07019089552337488e-04 
1.44585548626458113e-03 0.00000000000000000e+00 -1.46845716833183442e-03 
-4.75653820402330524e-04 0.00000000000000000e+00 7.36837667986626576e-04 
-4.75653820406648250e-04 0.00000000000000000e+00 7.36837667978971567e-04 
-4.75653820393414045e-04 0.00000000000000000e+00 7.36837667981527899e-04 
-4.79438520399483108e-04 0.00000000000000000e+00 5.07019089539384850e-04 
-4.75653820408148786e-04 0.00000000000000000e+00 7.36837667980150095e-04 
1.07612847838493321e-02 0.00000000000000000e+00 -1.39729545775400571e-03 
9.59409355701534324e-05 0.00000000000000000e+00 -1.00958680386257051e-04 
2.85285612451245891e-04 0.00000000000000000e+00 -2.94445172087960476e-04 
2.41491930898193012e-04 0.00000000000000000e+00 -2.91745112679719280e-04 
8.04694982445275364e-05 0.00000000000000000e+00 -1.99517583400088812e-04 
-1.03832742021523305e-04 0.00000000000000000e+00 -5.03926460249094857e-05 
-2.31197877370365910e-04 0.00000000000000000e+00 1.20729098456328840e-04 
-2.27390019351318267e-04 0.00000000000000000e+00 2.22221812945990567e-04 
-6.48974842656457846e-05 0.00000000000000000e+00 1.56987542344423501e-04 
1.82459336196529542e-04 0.00000000000000000e+00 -6.28676026535377028e-05 
3.52477552333746523e-04 0.00000000000000000e+00 -2.81676511557665333e-04 
2.88131485088767775e-04 0.00000000000000000e+00 -2.90384638641643777e-04 
-3.61276172377485985e-05 0.00000000000000000e+00 1.08106239329695362e-05 
-2.60476269013684366e-04 0.00000000000000000e+00 3.41771540017936934e-04 
2.86780915173903818e-05 0.00000000000000000e+00 -2.72410344575319160e-05 
1.76512251299521157e-04 0.00000000000000000e+00 -1.83717238081209305e-04 
2.67427387528817561e-04 0.00000000000000000e+00 -2.74019160495467197e-04 
2.91604834018432328e-04 0.00000000000000000e+00 -3.06432503960134023e-04 
2.26158856077800403e-04 0.00000000000000000e+00 -2.32774602660422778e-04 
2.67867061372778254e-04 0.00000000000000000e+00 -3.03874256459479451e-04 
2.07708458075241771e-04 0.00000000000000000e+00 -2.74581831000338941e-04 
2.85249276550568042e-04 0.00000000000000000e+00 -3.08866088821830459e-04 
1.25755828872675402e-04 0.00000000000000000e+00 -2.28231442390301222e-04 
3.33608205667962527e-05 0.00000000000000000e+00 -1.66818684519436415e-04 
1.68712112068867377e-04 0.00000000000000000e+00 -2.53096073879795908e-04 
-6.02892387909432278e-05 0.00000000000000000e+00 -9.14087472972474965e-05 
-1.43554058250920256e-04 0.00000000000000000e+00 -8.31620590707283513e-06 
-1.41780234023728677e-05 0.00000000000000000e+00 -1.30161241638824187e-04 
-2.08789062488333487e-04 0.00000000000000000e+00 7.93908147312504930e-05 
-2.44869510346307955e-04 0.00000000000000000e+00 1.56916760373788591e-04 
-1.79063364868864184e-04 0.00000000000000000e+00 3.57431477062778252e-05 
-2.43236831932553934e-04 0.00000000000000000e+00 2.08826718592975552e-04 
-2.00999567303911222e-04 0.00000000000000000e+00 2.24228346501049487e-04 
-2.48981482446034897e-04 0.00000000000000000e+00 1.86751546491276631e-04 
-1.18422960933026834e-04 0.00000000000000000e+00 1.91124332827750422e-04 
-5.74281833259261760e-06 0.00000000000000000e+00 1.12953670612387942e-04 
-1.64389903078995212e-04 0.00000000000000000e+00 2.14027907833236336e-04 
1.20550528630389113e-04 0.00000000000000000e+00 5.31654167602682789e-07 
2.40665794363114662e-04 0.00000000000000000e+00 -1.28023738193244356e-04 
5.64238253554598176e-05 0.00000000000000000e+00 6.06635153524297220e-05 
3.27558892634559513e-04 0.00000000000000000e+00 -2.39836345610657659e-04 
3.62780378787336125e-04 0.00000000000000000e+00 -3.12717632636937311e-04 
2.88371201682580515e-04 0.00000000000000000e+00 -1.85867107208661668e-04 
3.28826695086480289e-04 0.00000000000000000e+00 -3.16560640959366764e-04 
2.10086634264607992e-04 0.00000000000000000e+00 -2.27280674206750574e-04 
3.56624453792124638e-04 0.00000000000000000e+00 -3.24267118853424977e-04 
3.75921547091486447e-05 0.00000000000000000e+00 -6.44022575213477227e-05 
-2.40261353183049940e-04 0.00000000000000000e+00 2.31912187342972920e-04 
-2.40261353182055998e-04 0.00000000000000000e+00 2.31912187345342878e-04 
1.58410355635261308e-04 0.00000000000000000e+00 -1.80963617823601031e-04 
-2.40261353181089052e-04 0.00000000000000000e+00 2.31912187345600809e-04 
-2.60476269014836223e-04 0.00000000000000000e+00 3.41771540012843027e-04 
1.76512251301679153e-04 0.00000000000000000e+00 -1.83717238081058330e-04 
2.86780915203489527e-05 0.00000000000000000e+00 -2.72410344641878874e-05 
2.91604834015755650e-04 0.00000000000000000e+00 -3.06432503961256498e-04 
2.67427387533346924e-04 0.00000000000000000e+00 -2.74019160498422949e-04 
2.07708458078588920e-04 0.00000000000000000e+00 -2.74581830994296248e-04 
2.67867061370929906e-04 0.00000000000000000e+00 -3.03874256459865644e-04 
3.33608205682547215e-05 0.00000000000000000e+00 -1.66818684514945215e-04 
1.25755828874619160e-04 0.00000000000000000e+00 -2.28231442387039941e-04 
-1.43554058250935002e-04 0.00000000000000000e+00 -8.31620590707283513e-06 
-6.02892387909584066e-05 0.00000000000000000e+00 -9.14087472973606872e-05 
-2.44869510345156098e-04 0.00000000000000000e+00 1.56916760372861815e-04 
-2.08789062487030710e-04 0.00000000000000000e+00 7.93908147301888422e-05 
-2.00999567307692920e-04 0.00000000000000000e+00 2.24228346503459452e-04 
-2.43236831930754158e-04 0.00000000000000000e+00 2.08826718587431376e-04 
-5.74281832997557040e-06 0.00000000000000000e+00 1.12953670610336631e-04 
-1.18422960934869544e-04 0.00000000000000000e+00 1.91124332824724197e-04 
2.40665794363163776e-04 0.00000000000000000e+00 -1.28023738188527426e-04 
1.20550528627499064e-04 0.00000000000000000e+00 5.31654166161127581e-07 
3.62780378790532787e-04 0.00000000000000000e+00 -3.12717632636116299e-04 
3.27558892633287039e-04 0.00000000000000000e+00 -2.39836345619310026e-04 
2.10086634265496875e-04 0.00000000000000000e+00 -2.27280674201611239e-04 
3.28826695085172036e-04 0.00000000000000000e+00 -3.16560640963533732e-04 
-1.68866641401967717e-04 0.00000000000000000e+00 2.14304543393993444e-04 
3.75921547140532907e-05 0.00000000000000000e+00 -6.44022575123556751e-05 
1.44585548625832789e-03 0.00000000000000000e+00 -1.46845716832960139e-03 
1.24588887722671283e-02 0.00000000000000000e+00 -2.96479357822938177e-03 
1.30482361677095662e-02 0.00000000000000000e+00 -4.86701501679903930e-03 
1.24176919536744066e-02 0.00000000000000000e+00 -6.32675724397518957e-03 
1.11297314516604819e-02 0.00000000000000000e+00 -7.12335710618301754e-03 
9.56194005171805139e-03 0.00000000000000000e+00 -7.33931292712556617e-03 
7.85910366736503746e-03 0.00000000000000000e+00 -6.92494877193099417e-03 
6.09275687358321223e-03 0.00000000000000000e+00 -5.75327564605100129e-03 
4.68717350009187871e-03 0.00000000000000000e+00 -4.58055627933503986e-03 
3.83736869872935418e-03 0.00000000000000000e+00 -3.97841202502778254e-03 
3.36059985671235918e-03 0.00000000000000000e+00 -3.80919482209725801e-03 
2.90937176601295620e-03 0.00000000000000000e+00 -3.54331054215371432e-03 
2.21726411525146683e-03 0.00000000000000000e+00 -2.67666861519052102e-03 
1.18642856347774203e-02 0.00000000000000000e+00 -2.17565676665411930e-03 
1.27847037499016630e-02 0.00000000000000000e+00 -3.86981943765787482e-03 
1.26910024031363939e-02 0.00000000000000000e+00 -5.49844595951856727e-03 
1.18921083854770446e-02 0.00000000000000000e+00 -6.86105622709690891e-03 
1.05270657253332053e-02 0.00000000000000000e+00 -7.56783867439379723e-03 
8.69195278714880205e-03 0.00000000000000000e+00 -7.18044719613942974e-03 
6.86004258152107457e-03 0.00000000000000000e+00 -6.19333577027200276e-03 
5.32637596955173181e-03 0.00000000000000000e+00 -5.11726629150240000e-03 
4.25621191901852727e-03 0.00000000000000000e+00 -4.33684474155167105e-03 
3.59014517521814890e-03 0.00000000000000000e+00 -3.90972384469080638e-03 
3.10734910519921362e-03 0.00000000000000000e+00 -3.61685539572079292e-03 
2.56452328384429353e-03 0.00000000000000000e+00 -3.11737998174085136e-03 
1.85856184623041029e-03 0.00000000000000000e+00 -2.17350703052285451e-03 
9.06521184744712126e-04 0.00000000000000000e+00 -9.39690353708775238e-04 
9.06521184739659419e-04 0.00000000000000000e+00 -9.39690353716685577e-04 
3.17579365328850169e-05 0.00000000000000000e+00 -1.95908270912450312e-05 
3.17579365336995780e-05 0.00000000000000000e+00 -1.95908270991942931e-05 
4.61091090749950151e-04 0.00000000000000000e+00 -4.77919710321112032e-04 
4.61091090743777571e-04 0.00000000000000000e+00 -4.77919710330241556e-04 
9.06521184741544738e-04 0.00000000000000000e+00 -9.39690353710290302e-04 
3.17579365336019456e-05 0.00000000000000000e+00 -1.95908271052819799e-05 
-4.79438520396010192e-04 0.00000000000000000e+00 5.07019089542360118e-04 
-4.79438520395324976e-04 0.00000000000000000e+00 5.07019089544215296e-04 
-4.79438520395409327e-04 0.00000000000000000e+00 5.07019089539662840e-04 
1.44585548626358887e-03 0.00000000000000000e+00 -1.46845716833054313e-03 
1.44585548626562912e-03 0.00000000000000000e+00 -1.46845716833163904e-03 
1.44585548626400087e-03 0.00000000000000000e+00 -1.46845716833659970e-03 
-4.69899002603615858e-05 0.00000000000000000e+00 6.09308158162749148e-05 
2.35605899187722793e-04 0.00000000000000000e+00 -2.42150114913296873e-04 
2.84563181666566602e-04 0.00000000000000000e+00 -3.08785028502529173e-04 
1.68082184490116578e-04 0.00000000000000000e+00 -2.52741347633836063e-04 
-1.43771023379688400e-05 0.00000000000000000e+00 -1.30001217929187667e-04 
-1.79109881158450373e-04 0.00000000000000000e+00 3.58057643286274961e-05 
-2.48980385842010243e-04 0.00000000000000000e+00 1.86786048143318498e-04 
-1.64231447438796253e-04 0.00000000000000000e+00 2.13964553512465354e-04 
5.72968743213204704e-05 0.00000000000000000e+00 5.98862834382056001e-05 
2.90569591634830986e-04 0.00000000000000000e+00 -1.88689930046270570e-04 
3.53627258071019708e-04 0.00000000000000000e+00 -3.24743336994347742e-04 
1.03874188288248954e-04 0.00000000000000000e+00 -1.29529544373877599e-04 
-2.60476269016839828e-04 0.00000000000000000e+00 3.41771540017787097e-04 
1.22340025344729487e-04 0.00000000000000000e+00 -1.28876496023076173e-04 
2.86337137981748917e-04 0.00000000000000000e+00 -2.95876833877376259e-04 
2.40756329568047857e-04 0.00000000000000000e+00 -2.91385259800133680e-04 
8.01654014555717098e-05 0.00000000000000000e+00 -1.99316929980034415e-04 
-1.03911839732568544e-04 0.00000000000000000e+00 -5.03139163535843526e-05 
-2.31214609842536671e-04 0.00000000000000000e+00 1.20764970880196359e-04 
-2.27353413720033048e-04 0.00000000000000000e+00 2.22235706213552876e-04 
-6.45636453058304573e-05 0.00000000000000000e+00 1.56757077148799465e-04 
1.83760121791466956e-04 0.00000000000000000e+00 -6.42618382402085006e-05 
3.53875912726097036e-04 0.00000000000000000e+00 -2.84543091002897441e-04 
2.72288616158802073e-04 0.00000000000000000e+00 -2.78509354245420838e-04 
-1.50450007938792931e-04 0.00000000000000000e+00 1.32682734846329960e-04 
1.07612847838501301e-02 0.00000000000000000e+00 -1.39729545775642196e-03 
1.07612847838510599e-02 0.00000000000000000e+00 -1.39729545776222613e-03 
1.07612847838484404e-02 0.00000000000000000e+00 -1.39729545776583848e-03 
4.61091090748729448e-04 0.00000000000000000e+00 -4.77919710325609302e-04 
9.06521184735374110e-04 0.00000000000000000e+00 -9.39690353713970301e-04 
3.17579365352368140e-05 0.00000000000000000e+00 -1.95908270951483759e-05 
-4.69899002610494037e-05 0.00000000000000000e+00 6.09308158170601482e-05 
2.35605899189739409e-04 0.00000000000000000e+00 -2.42150114914741897e-04 
2.84563181665176222e-04 0.00000000000000000e+00 -3.08785028505158363e-04 
1.68082184489641264e-04 0.00000000000000000e+00 -2.52741347636503200e-04 
-1.43771023364552937e-05 0.00000000000000000e+00 -1.30001217930415417e-04 
-1.79109881158894029e-04 0.00000000000000000e+00 3.58057643290173752e-05 
-2.48980385842825997e-04 0.00000000000000000e+00 1.86786048144815564e-04 
-1.64231447437154554e-04 0.00000000000000000e+00 2.13964553510696804e-04 
5.72968743215772095e-05 0.00000000000000000e+00 5.98862834379557999e-05 
2.90569591634152818e-04 0.00000000000000000e+00 -1.88689930047658457e-04 
3.53627258070187799e-04 0.00000000000000000e+00 -3.24743336990714580e-04 
1.03874188292120125e-04 0.00000000000000000e+00 -1.29529544377926878e-04 
-2.60476269013524772e-04 0.00000000000000000e+00 3.41771540019114703e-04 
1.22340025345839710e-04 0.00000000000000000e+00 -1.28876496028456716e-04 
2.86337137983433334e-04 0.00000000000000000e+00 -2.95876833872519684e-04 
2.40756329567392132e-04 0.00000000000000000e+00 -2.91385259800088360e-04 
8.01654014547069501e-05 0.00000000000000000e+00 -1.99316929978919421e-04 
-1.03911839730828616e-04 0.00000000000000000e+00 -5.03139163520582297e-05 
-2.31214609840985395e-04 0.00000000000000000e+00 1.20764970880296105e-04 
-2.27353413718367497e-04 0.00000000000000000e+00 2.22235706214653125e-04 
-6.45636453042544611e-05 0.00000000000000000e+00 1.56757077150413191e-04 
1.83760121793409412e-04 0.00000000000000000e+00 -6.42618382418957360e-05 
3.53875912726768428e-04 0.00000000000000000e+00 -2.84543091002466470e-04 
2.72288616158929467e-04 0.00000000000000000e+00 -2.78509354242482488e-04 
-1.50450007940647757e-04 0.00000000000000000e+00 1.32682734852454618e-04 
1.07612847838512264e-02 0.00000000000000000e+00 -1.39729545776405496e-03 
1.24588887722663268e-02 0.00000000000000000e+00 -2.96479357822711448e-03 
1.30482361677085566e-02 0.00000000000000000e+00 -4.86701501679466953e-03 
1.24176919536711679e-02 0.00000000000000000e+00 -6.32675724397507681e-03 
1.11297314516605479e-02 0.00000000000000000e+00 -7.12335710618384067e-03 
9.56194005171957621e-03 0.00000000000000000e+00 -7.33931292712998798e-03 
7.85910366736363060e-03 0.00000000000000000e+00 -6.92494877193120754e-03 