# vtk DataFile Version 2.0

ASCII

DATASET UNSTRUCTURED_GRID

POINTS 281 double 

0.00000000000000000e+00  6.00000000000000012e-03  8.68039800000000063e-03
0.00000000000000000e+00  6.00000000000000012e-03  2.15013699999999988e-02
0.00000000000000000e+00  5.99999699999999997e-03  3.38432499999999983e-02
0.00000000000000000e+00  6.00000000000000012e-03  4.61511800000000000e-02
0.00000000000000000e+00  5.99999399999999981e-03  5.84285100000000029e-02
0.00000000000000000e+00  5.99999899999999978e-03  7.03572799999999943e-02
0.00000000000000000e+00  6.00000000000000012e-03  7.56573400000000035e-02
0.00000000000000000e+00  6.00000000000000012e-03  1.52458600000000000e-02
0.00000000000000000e+00  5.99999899999999978e-03  2.76822099999999988e-02
0.00000000000000000e+00  5.99999899999999978e-03  3.99985900000000005e-02
0.00000000000000000e+00  5.99999800000000031e-03  5.22986000000000006e-02
0.00000000000000000e+00  5.99999800000000031e-03  6.44963600000000026e-02
0.00000000000000000e+00  3.00000000000000006e-03  3.07692300000000007e-03
0.00000000000000000e+00  3.00000000000000006e-03  1.04940499999999996e-02
0.00000000000000000e+00  3.00000000000000006e-03  7.41712199999999995e-03
0.00000000000000000e+00  3.00000000000000006e-03  2.30583799999999998e-02
0.00000000000000000e+00  3.00000000000000006e-03  1.99814599999999995e-02
0.00000000000000000e+00  2.99999900000000016e-03  3.53831699999999985e-02
0.00000000000000000e+00  2.99999900000000016e-03  3.23062400000000000e-02
0.00000000000000000e+00  3.00000000000000006e-03  4.76909699999999992e-02
0.00000000000000000e+00  3.00000000000000006e-03  4.46140500000000023e-02
0.00000000000000000e+00  2.99999699999999991e-03  5.99834799999999987e-02
0.00000000000000000e+00  2.99999699999999991e-03  5.69065600000000019e-02
0.00000000000000000e+00  2.99999900000000016e-03  7.21017199999999941e-02
0.00000000000000000e+00  2.99999900000000016e-03  6.90247900000000025e-02
0.00000000000000000e+00  3.00000000000000006e-03  7.78286700000000026e-02
0.00000000000000000e+00  3.00000000000000006e-03  7.47517500000000057e-02
0.00000000000000000e+00  5.99999899999999978e-03  7.30073100000000058e-02
0.00000000000000000e+00  6.00000000000000012e-03  7.78286700000000026e-02
0.00000000000000000e+00  8.99999999999999932e-03  7.47517500000000057e-02
0.00000000000000000e+00  8.99999999999999932e-03  7.78286700000000026e-02
0.00000000000000000e+00  8.99999999999999932e-03  3.07692300000000007e-03
0.00000000000000000e+00  8.99999999999999932e-03  7.41712199999999995e-03
0.00000000000000000e+00  8.99999999999999932e-03  1.04940499999999996e-02
0.00000000000000000e+00  8.99999999999999932e-03  1.99814599999999995e-02
0.00000000000000000e+00  8.99999999999999932e-03  2.30583799999999998e-02
0.00000000000000000e+00  8.99999899999999985e-03  3.23062400000000000e-02
0.00000000000000000e+00  8.99999899999999985e-03  3.53831699999999985e-02
0.00000000000000000e+00  8.99999999999999932e-03  4.46140500000000023e-02
0.00000000000000000e+00  8.99999999999999932e-03  4.76909699999999992e-02
0.00000000000000000e+00  8.99999699999999916e-03  5.69065600000000019e-02
0.00000000000000000e+00  8.99999699999999916e-03  5.99834799999999987e-02
0.00000000000000000e+00  8.99999899999999985e-03  6.90247900000000025e-02
0.00000000000000000e+00  8.99999899999999985e-03  7.21017199999999941e-02
0.00000000000000000e+00  6.00000000000000012e-03  4.34019900000000031e-03
0.00000000000000000e+00  3.00000000000000006e-03  1.37767800000000006e-02
0.00000000000000000e+00  6.00000000000000012e-03  1.19631300000000006e-02
0.00000000000000000e+00  3.00000000000000006e-03  1.68536999999999992e-02
0.00000000000000000e+00  6.00000000000000012e-03  1.83736200000000002e-02
0.00000000000000000e+00  5.99999800000000031e-03  3.07627299999999985e-02
0.00000000000000000e+00  3.00000000000000006e-03  2.92257200000000002e-02
0.00000000000000000e+00  3.00000000000000006e-03  2.61487999999999998e-02
0.00000000000000000e+00  8.99999999999999932e-03  2.92257200000000002e-02
0.00000000000000000e+00  6.00000000000000012e-03  4.30748800000000029e-02
0.00000000000000000e+00  2.99999900000000016e-03  4.15377600000000000e-02
0.00000000000000000e+00  2.99999900000000016e-03  3.84608300000000014e-02
0.00000000000000000e+00  8.99999899999999985e-03  4.15377600000000000e-02
0.00000000000000000e+00  5.99999599999999963e-03  5.53635499999999975e-02
0.00000000000000000e+00  2.99999900000000016e-03  5.38416099999999981e-02
0.00000000000000000e+00  2.99999900000000016e-03  5.07646799999999995e-02
0.00000000000000000e+00  8.99999899999999985e-03  5.38416099999999981e-02
0.00000000000000000e+00  5.99999800000000031e-03  6.74268199999999984e-02
0.00000000000000000e+00  2.99999900000000016e-03  6.60943300000000067e-02
0.00000000000000000e+00  2.99999900000000016e-03  6.30174099999999959e-02
0.00000000000000000e+00  8.99999899999999985e-03  6.60943300000000067e-02
0.00000000000000000e+00  5.99999899999999978e-03  4.92248900000000003e-02
0.00000000000000000e+00  8.99999999999999932e-03  1.68536999999999992e-02
0.00000000000000000e+00  5.99999899999999978e-03  2.45917899999999988e-02
0.00000000000000000e+00  8.99999999999999932e-03  2.61487999999999998e-02
0.00000000000000000e+00  8.99999999999999932e-03  1.37767800000000006e-02
0.00000000000000000e+00  5.99999800000000031e-03  3.69209200000000029e-02
0.00000000000000000e+00  8.99999899999999985e-03  3.84608300000000014e-02
0.00000000000000000e+00  8.99999899999999985e-03  5.07646799999999995e-02
0.00000000000000000e+00  5.99999599999999963e-03  6.14624299999999985e-02
0.00000000000000000e+00  8.99999899999999985e-03  6.30174099999999959e-02
1.20000000000000002e-02  1.20000000000000002e-02  8.00000000000000017e-02
0.00000000000000000e+00  0.00000000000000000e+00  8.00000000000000017e-02
1.20000000000000002e-02  6.00000000000000012e-03  0.00000000000000000e+00
1.20000000000000002e-02  3.00000000000000006e-03  0.00000000000000000e+00
1.20000000000000002e-02  8.99999999999999932e-03  0.00000000000000000e+00
1.20000000000000002e-02  0.00000000000000000e+00  8.00000000000000017e-02
1.20000000000000002e-02  0.00000000000000000e+00  0.00000000000000000e+00
0.00000000000000000e+00  1.20000000000000002e-02  0.00000000000000000e+00
1.20000000000000002e-02  5.99999899999999978e-03  8.68039699999999942e-03
1.20000000000000002e-02  5.99999899999999978e-03  1.52458600000000000e-02
1.20000000000000002e-02  5.99999899999999978e-03  2.15013699999999988e-02
1.20000000000000002e-02  6.00000000000000012e-03  2.76822099999999988e-02
1.20000000000000002e-02  5.99999899999999978e-03  3.38432399999999967e-02
1.20000000000000002e-02  5.99999800000000031e-03  3.99985900000000005e-02
1.20000000000000002e-02  5.99999699999999997e-03  4.61511800000000000e-02
1.20000000000000002e-02  5.99999300000000034e-03  5.22986100000000023e-02
1.20000000000000002e-02  5.99998599999999969e-03  5.84285400000000010e-02
1.20000000000000002e-02  5.99997800000000043e-03  6.44963800000000059e-02
1.20000000000000002e-02  5.99997500000000027e-03  7.03572999999999976e-02
1.20000000000000002e-02  5.99997500000000027e-03  7.56573600000000068e-02
1.20000000000000002e-02  3.00000000000000006e-03  3.07692300000000007e-03
1.20000000000000002e-02  3.00000000000000006e-03  7.41712099999999961e-03
1.20000000000000002e-02  3.00000000000000006e-03  1.04940399999999996e-02
1.20000000000000002e-02  2.99999900000000016e-03  1.37767800000000006e-02
1.20000000000000002e-02  2.99999900000000016e-03  1.68536999999999992e-02
1.20000000000000002e-02  5.99999899999999978e-03  1.19631300000000006e-02
1.20000000000000002e-02  3.00000000000000006e-03  1.99814500000000013e-02
1.20000000000000002e-02  3.00000000000000006e-03  2.30583799999999998e-02
1.20000000000000002e-02  5.99999899999999978e-03  1.83736099999999986e-02
1.20000000000000002e-02  3.00000000000000006e-03  2.61487999999999998e-02
1.20000000000000002e-02  3.00000000000000006e-03  2.92257200000000002e-02
1.20000000000000002e-02  5.99999899999999978e-03  2.45917899999999988e-02
1.20000000000000002e-02  3.00000000000000006e-03  3.23062299999999983e-02
1.20000000000000002e-02  3.00000000000000006e-03  3.53831599999999968e-02
1.20000000000000002e-02  5.99999899999999978e-03  3.07627200000000003e-02
1.20000000000000002e-02  2.99999900000000016e-03  3.84608300000000014e-02
1.20000000000000002e-02  2.99999900000000016e-03  4.15377499999999983e-02
1.20000000000000002e-02  5.99999899999999978e-03  3.69209100000000012e-02
1.20000000000000002e-02  2.99999799999999981e-03  4.46140500000000023e-02
1.20000000000000002e-02  2.99999799999999981e-03  4.76909800000000009e-02
1.20000000000000002e-02  5.99999800000000031e-03  4.30748800000000029e-02
1.20000000000000002e-02  2.99999699999999991e-03  5.07646900000000012e-02
1.20000000000000002e-02  2.99999699999999991e-03  5.38416099999999981e-02
1.20000000000000002e-02  5.99999500000000015e-03  4.92249000000000020e-02
1.20000000000000002e-02  2.99999299999999984e-03  5.69065799999999983e-02
1.20000000000000002e-02  2.99999299999999984e-03  5.99835000000000021e-02
1.20000000000000002e-02  5.99999000000000018e-03  5.53635800000000025e-02
1.20000000000000002e-02  2.99998900000000021e-03  6.30174200000000045e-02
1.20000000000000002e-02  2.99998900000000021e-03  6.60943499999999962e-02
1.20000000000000002e-02  5.99998200000000006e-03  6.14624599999999965e-02
1.20000000000000002e-02  2.99998799999999987e-03  6.90248100000000059e-02
1.20000000000000002e-02  2.99998799999999987e-03  7.21017300000000028e-02
1.20000000000000002e-02  5.99997700000000009e-03  6.74268400000000018e-02
1.20000000000000002e-02  2.99998699999999997e-03  7.47517600000000004e-02
1.20000000000000002e-02  2.99998699999999997e-03  7.78286799999999973e-02
1.20000000000000002e-02  5.99998700000000003e-03  7.78286799999999973e-02
1.20000000000000002e-02  5.99997500000000027e-03  7.30073299999999953e-02
1.20000000000000002e-02  8.99998699999999922e-03  7.78286799999999973e-02
1.20000000000000002e-02  8.99999999999999932e-03  3.07692300000000007e-03
[...]
POINT_DATA 281

SCALARS Rank unsigned_int
LOOKUP_TABLE default
0 0 0 0 0 0 0 0 0 0 0 0 0 0 0 0 0 0 0 0 0 0 0 0 0 0 0 0 0 0 0 0 0 0 0 0 0 0 0 0 0 0 0 0 0 0 0 0 0 0 0 0 0 0 0 0 0 0 0 0 0 0 0 0 0 0 0 0 0 0 0 0 0 0 0 0 0 0 0 0 0 0 0 0 0 0 0 0 0 0 0 0 0 0 0 0 0 0 0 0 0 0 0 0 0 0 0 0 0 0 0 0 0 0 0 0 0 0 0 0 0 0 0 0 0 0 0 0 0 0 0 0 0 0 0 0 0 0 0 0 0 0 0 0 0 0 0 0 0 0 0 0 0 0 0 0 0 0 0 0 0 0 0 0 0 0 0 0 0 0 0 0 0 0 0 0 0 0 0 0 0 0 0 0 0 0 0 0 0 0 0 0 0 0 0 0 0 0 0 0 0 0 0 0 0 0 0 0 0 0 0 0 0 0 0 0 0 0 0 0 0 0 0 0 0 0 0 0 0 0 0 0 0 0 0 0 0 0 0 0 0 0 0 0 0 0 0 0 0 0 0 0 0 0 0 0 0 0 0 0 0 0 0 0 0 0 0 0 0 0 0 0 0 0 0 0 0 0 0 0 0 

VECTORS Forces0 double
1.70247824430201471e-02 0.00000000000000000e+00 -4.34517631097260017e-03 
1.36537604351055532e-02 0.00000000000000000e+00 -6.22051493119408182e-03 
8.70009493337461567e-03 0.00000000000000000e+00 -5.75316211795104306e-03 
5.15910611850078655e-03 0.00000000000000000e+00 -4.21358872679690553e-03 
3.47830870032722183e-03 0.00000000000000000e+00 -3.09471196394278236e-03 
2.51396536794238267e-03 0.00000000000000000e+00 -2.38101154632841192e-03 
1.92499185718151308e-03 0.00000000000000000e+00 -1.92975822864742798e-03 
1.57684046475319826e-02 0.00000000000000000e+00 -5.54596309450258729e-03 
1.12022945974559456e-02 0.00000000000000000e+00 -6.28684895084013779e-03 
6.65782430875961912e-03 0.00000000000000000e+00 -4.98312125875626909e-03 
4.14913294687183336e-03 0.00000000000000000e+00 -3.57758392501326917e-03 
3.00484486623846074e-03 0.00000000000000000e+00 -2.74100562665128113e-03 
1.66790162348878050e-02 0.00000000000000000e+00 -3.14707628386026251e-03 
1.70075609826668486e-02 0.00000000000000000e+00 -4.76909729471299351e-03 
1.70634207622079211e-02 0.00000000000000000e+00 -4.06304302000717790e-03 
1.29088636774798513e-02 0.00000000000000000e+00 -6.22676333354831371e-03 
1.43612122112617129e-02 0.00000000000000000e+00 -6.17910503014511628e-03 
8.25488149253779738e-03 0.00000000000000000e+00 -5.64393880550653239e-03 
9.21663070763390282e-03 0.00000000000000000e+00 -5.87258232919428327e-03 
4.81624830003244721e-03 0.00000000000000000e+00 -4.00393508679759702e-03 
5.55583696240931606e-03 0.00000000000000000e+00 -4.44853847400616433e-03 
3.39035514774473122e-03 0.00000000000000000e+00 -3.02994572922210461e-03 
3.57992055990084259e-03 0.00000000000000000e+00 -3.16877553306911227e-03 
2.30651355413511935e-03 0.00000000000000000e+00 -2.22480844376287150e-03 
2.67608379539081495e-03 0.00000000000000000e+00 -2.50261489355514590e-03 
1.61369414771297482e-03 0.00000000000000000e+00 -1.67466821042113107e-03 
2.02243348604084399e-03 0.00000000000000000e+00 -2.00705438743097129e-03 
2.20590811400018811e-03 0.00000000000000000e+00 -2.14854104132648814e-03 
1.61369414770105120e-03 0.00000000000000000e+00 -1.67466821042592238e-03 
2.02243348604490541e-03 0.00000000000000000e+00 -2.00705438743255162e-03 
1.61369414770124939e-03 0.00000000000000000e+00 -1.67466821042146132e-03 
1.66790162348875691e-02 0.00000000000000000e+00 -3.14707628386056738e-03 
1.70634207622057249e-02 0.00000000000000000e+00 -4.06304302000417422e-03 
1.70075609826619671e-02 0.00000000000000000e+00 -4.76909729471260146e-03 
1.43612122112576641e-02 0.00000000000000000e+00 -6.17910503014626206e-03 
1.29088636774763767e-02 0.00000000000000000e+00 -6.22676333355095223e-03 
9.21663070763305975e-03 0.00000000000000000e+00 -5.87258232919512894e-03 
8.25488149253727696e-03 0.00000000000000000e+00 -5.64393880550678739e-03 
5.55583696240951209e-03 0.00000000000000000e+00 -4.44853847400466986e-03 
4.81624830003495128e-03 0.00000000000000000e+00 -4.00393508679686063e-03 
3.57992055990516249e-03 0.00000000000000000e+00 -3.16877553306974587e-03 
3.39035514773724806e-03 0.00000000000000000e+00 -3.02994572921730029e-03 
2.67608379539804615e-03 0.00000000000000000e+00 -2.50261489355106193e-03 
2.30651355413737883e-03 0.00000000000000000e+00 -2.22480844376430351e-03 
1.70781114812322832e-02 0.00000000000000000e+00 -3.42740439019058015e-03 
1.63176191683183230e-02 0.00000000000000000e+00 -5.35521074049112762e-03 
1.69062159718303753e-02 0.00000000000000000e+00 -5.08979383812701355e-03 
1.52449105472443683e-02 0.00000000000000000e+00 -5.76890494809582845e-03 
1.48230519001713683e-02 0.00000000000000000e+00 -5.98584646269325997e-03 
9.83436448192748225e-03 0.00000000000000000e+00 -6.01786514164936656e-03 
1.05371135173633439e-02 0.00000000000000000e+00 -6.17934787696542299e-03 
1.17067798092261519e-02 0.00000000000000000e+00 -6.27317205075484524e-03 
1.05371135173613316e-02 0.00000000000000000e+00 -6.17934787696578988e-03 
5.90713682133635169e-03 0.00000000000000000e+00 -4.63600537146169507e-03 
6.24721975629712826e-03 0.00000000000000000e+00 -4.79607933296936385e-03 
7.16143165527527697e-03 0.00000000000000000e+00 -5.20928257435906462e-03 
6.24721975629838507e-03 0.00000000000000000e+00 -4.79607933297134491e-03 
3.72575110014555658e-03 0.00000000000000000e+00 -3.27494283736576557e-03 
3.92117932823476002e-03 0.00000000000000000e+00 -3.41600340365315032e-03 
4.33964068351628401e-03 0.00000000000000000e+00 -3.70485106656522371e-03 
3.92117932823698393e-03 0.00000000000000000e+00 -3.41600340365459361e-03 
2.82870476811391451e-03 0.00000000000000000e+00 -2.61530923462691915e-03 
2.90817105817197351e-03 0.00000000000000000e+00 -2.67160743904603379e-03 
3.11643413652168931e-03 0.00000000000000000e+00 -2.82345064542514467e-03 
2.90817105817136766e-03 0.00000000000000000e+00 -2.67160743904951755e-03 
4.54484435419485241e-03 0.00000000000000000e+00 -3.83496471539426917e-03 
1.52449105472468923e-02 0.00000000000000000e+00 -5.76890494809476073e-03 
1.22580041371069346e-02 0.00000000000000000e+00 -6.24101051107604950e-03 
1.17067798092200526e-02 0.00000000000000000e+00 -6.27317205075504387e-03 
1.63176191683142152e-02 0.00000000000000000e+00 -5.35521074048985347e-03 
7.73014115918331871e-03 0.00000000000000000e+00 -5.45388176125293292e-03 
7.16143165527010576e-03 0.00000000000000000e+00 -5.20928257435900044e-03 
4.33964068352020449e-03 0.00000000000000000e+00 -3.70485106656582436e-03 
3.25548651925397373e-03 0.00000000000000000e+00 -2.92809171599758876e-03 
3.11643413651917960e-03 0.00000000000000000e+00 -2.82345064542596303e-03 
-5.85231491175818627e-04 0.00000000000000000e+00 3.86654339802540382e-04 
1.31550327503081278e-03 0.00000000000000000e+00 -1.41455216721585500e-03 
-2.60531948657785996e-05 0.00000000000000000e+00 1.08590405104883872e-03 
-2.60531948658341108e-05 0.00000000000000000e+00 1.08590405104534932e-03 
-2.60531948637194829e-05 0.00000000000000000e+00 1.08590405104555922e-03 
-5.85231491174733340e-04 0.00000000000000000e+00 3.86654339799023230e-04 
-2.60531948685576267e-05 0.00000000000000000e+00 1.08590405104466063e-03 
1.52612393660804656e-02 0.00000000000000000e+00 -2.48450789633996097e-03 
2.80720794087739936e-04 0.00000000000000000e+00 1.89396509939502883e-04 
2.17292433413933709e-04 0.00000000000000000e+00 -2.29439827045953894e-04 
-4.19241178311842024e-05 0.00000000000000000e+00 -3.84228921425114345e-04 
-2.93065852193792218e-04 0.00000000000000000e+00 -3.41190690953361046e-04 
-4.15617389438173294e-04 0.00000000000000000e+00 -1.88481474345042168e-04 
-3.76630423101568840e-04 0.00000000000000000e+00 -2.34207501394371079e-05 
-1.96088044014429847e-04 0.00000000000000000e+00 7.19198122264369196e-05 
7.30250690084600516e-05 0.00000000000000000e+00 5.61741241619369112e-05 
3.37506792988526518e-04 0.00000000000000000e+00 -4.70850122120625318e-05 
4.63059809637754449e-04 0.00000000000000000e+00 -1.45624887164480456e-04 
3.24809952798317579e-04 0.00000000000000000e+00 -1.20444958190090993e-04 
-7.91339464590442513e-05 0.00000000000000000e+00 8.13736984200105409e-05 
9.12563591803306417e-05 0.00000000000000000e+00 7.31977643287553843e-04 
2.55746765999549923e-04 0.00000000000000000e+00 2.98639913477529904e-04 
2.95835956277921584e-04 0.00000000000000000e+00 4.77708688513214135e-05 
2.58258411423457240e-04 0.00000000000000000e+00 -1.58758665636429331e-04 
1.61036414946429791e-04 0.00000000000000000e+00 -2.91675375549577413e-04 
2.88961541738898492e-04 0.00000000000000000e+00 -5.28134354486874542e-05 
2.80070011125963107e-05 0.00000000000000000e+00 -3.67750948909885856e-04 
-1.12299248781512227e-04 0.00000000000000000e+00 -3.88961098026680691e-04 
9.88328103412164019e-05 0.00000000000000000e+00 -3.35790964448858540e-04 
-2.39726484005257966e-04 0.00000000000000000e+00 -3.65959427744425719e-04 
-3.38268840628428325e-04 0.00000000000000000e+00 -3.09534194038032801e-04 
-1.78568813910835202e-04 0.00000000000000000e+00 -3.82287925687854529e-04 
-4.00159993442970115e-04 0.00000000000000000e+00 -2.31510397262130592e-04 
-4.20635237365392844e-04 0.00000000000000000e+00 -1.44986676348724094e-04 
-3.74256385516886104e-04 0.00000000000000000e+00 -2.72308173422257588e-04 
-4.00935150582579279e-04 0.00000000000000000e+00 -6.10330307815011984e-05 
-3.43295597385574682e-04 0.00000000000000000e+00 9.37409834420975467e-06 
-4.15641073724500206e-04 0.00000000000000000e+00 -1.01909620279971784e-04 
-2.52098561887037519e-04 0.00000000000000000e+00 5.76560446234135711e-05 
-1.34437483737122462e-04 0.00000000000000000e+00 7.87950607996953635e-05 
-3.01395245044504365e-04 0.00000000000000000e+00 3.67086929350513811e-05 
1.61379795494290660e-06 0.00000000000000000e+00 7.05172737660604966e-05 
1.44411160767177156e-04 0.00000000000000000e+00 3.59440409262895587e-05 
-6.80894626725927750e-05 0.00000000000000000e+00 7.83174647410213309e-05 
2.78722859548881092e-04 0.00000000000000000e+00 -1.71766624085143517e-05 
3.88489402063788242e-04 0.00000000000000000e+00 -7.75404490096880252e-05 
2.13216917636613139e-04 0.00000000000000000e+00 1.12896395175003284e-05 
4.52781122701671930e-04 0.00000000000000000e+00 -1.28551132964340679e-04 
4.55280498062592056e-04 0.00000000000000000e+00 -1.55335906469382970e-04 
4.26568232152736487e-04 0.00000000000000000e+00 -1.04463602883920743e-04 
3.83859634347785304e-04 0.00000000000000000e+00 -1.42267498388081983e-04 
2.21479449131253007e-04 0.00000000000000000e+00 -7.49772473396090235e-05 
4.32634874425720734e-04 0.00000000000000000e+00 -1.54961809866765646e-04 
8.59672198390357072e-06 0.00000000000000000e+00 3.31989106996105615e-05 
-3.15748657140812062e-04 0.00000000000000000e+00 2.19005371883681247e-04 
-3.15748657145826443e-04 0.00000000000000000e+00 2.19005371884149243e-04 
1.56199408214182739e-04 0.00000000000000000e+00 -4.34230625845774478e-05 
-3.15748657143374411e-04 0.00000000000000000e+00 2.19005371881131691e-04 
9.12563591740943108e-05 0.00000000000000000e+00 7.31977643287924206e-04 
2.95835956281760527e-04 0.00000000000000000e+00 4.77708688516774655e-05 
2.55746766006296263e-04 0.00000000000000000e+00 2.98639913478463185e-04 
1.61036414945017726e-04 0.00000000000000000e+00 -2.91675375548211752e-04 
2.58258411422245535e-04 0.00000000000000000e+00 -1.58758665635657813e-04 
-1.12299248781991878e-04 0.00000000000000000e+00 -3.88961098025130715e-04 
2.80070011125902391e-05 0.00000000000000000e+00 -3.67750948909583580e-04 
-3.38268840628383222e-04 0.00000000000000000e+00 -3.09534194037527563e-04 
-2.39726484004192846e-04 0.00000000000000000e+00 -3.65959427745596658e-04 
-4.20635237365145213e-04 0.00000000000000000e+00 -1.44986676347916147e-04 
-4.00159993440368030e-04 0.00000000000000000e+00 -2.31510397262848984e-04 
-3.43295597387051365e-04 0.00000000000000000e+00 9.37409834487892425e-06 
-4.00935150581192801e-04 0.00000000000000000e+00 -6.10330307811872134e-05 
-1.34437483734820484e-04 0.00000000000000000e+00 7.87950607998705706e-05 
-2.52098561886792923e-04 0.00000000000000000e+00 5.76560446234137880e-05 
1.44411160770529617e-04 0.00000000000000000e+00 3.59440409262517201e-05 
1.61379795416553364e-06 0.00000000000000000e+00 7.05172737655517890e-05 
3.88489402067512693e-04 0.00000000000000000e+00 -7.75404490085799706e-05 
2.78722859547468485e-04 0.00000000000000000e+00 -1.71766624084379154e-05 
4.55280498054425303e-04 0.00000000000000000e+00 -1.55335906469264467e-04 
4.52781122704781422e-04 0.00000000000000000e+00 -1.28551132968991689e-04 
2.21479449135573227e-04 0.00000000000000000e+00 -7.49772473399442588e-05 
3.83859634350894471e-04 0.00000000000000000e+00 -1.42267498388378078e-04 
1.48795542348953956e-04 0.00000000000000000e+00 5.97342235111599190e-04 
8.59672198396374394e-06 0.00000000000000000e+00 3.31989107011423224e-05 
1.31550327501974351e-03 0.00000000000000000e+00 -1.41455216721365993e-03 
1.71171721360320744e-02 0.00000000000000000e+00 -3.79649992529077374e-03 
1.68234361593567056e-02 0.00000000000000000e+00 -5.14854731418256349e-03 
1.47998892494803913e-02 0.00000000000000000e+00 -5.99810150383079613e-03 
1.22488662144429553e-02 0.00000000000000000e+00 -6.24138846388938486e-03 
9.83154350376352036e-03 0.00000000000000000e+00 -6.01719750881136561e-03 
7.72932356389423314e-03 0.00000000000000000e+00 -5.45354417525647020e-03 
5.90671300716396307e-03 0.00000000000000000e+00 -4.63579853169455471e-03 
4.54394544860882692e-03 0.00000000000000000e+00 -3.83440078595825721e-03 
3.72339316303296275e-03 0.00000000000000000e+00 -3.27323142299038418e-03 
3.24825875578835114e-03 0.00000000000000000e+00 -2.92262946077821066e-03 
2.81019684159703907e-03 0.00000000000000000e+00 -2.60201752857280822e-03 
2.11638040724525462e-03 0.00000000000000000e+00 -2.08004102173486296e-03 
1.66790162348850746e-02 0.00000000000000000e+00 -3.14707628386320199e-03 
1.70159935481589281e-02 0.00000000000000000e+00 -4.47226393820222574e-03 
1.57191203815502771e-02 0.00000000000000000e+00 -5.56443191440005470e-03 
1.36354454431492755e-02 0.00000000000000000e+00 -6.22074964987836404e-03 
1.11987616280622808e-02 0.00000000000000000e+00 -6.28670233567919616e-03 
8.69920872355500231e-03 0.00000000000000000e+00 -5.75295842073037401e-03 
6.65740499178761862e-03 0.00000000000000000e+00 -4.98293128634882086e-03 
5.15845237849141183e-03 0.00000000000000000e+00 -4.21319367948441367e-03 
4.14779960905129266e-03 0.00000000000000000e+00 -3.57665558653774002e-03 
3.47645037785641658e-03 0.00000000000000000e+00 -3.09335637522680472e-03 
2.99688458381671720e-03 0.00000000000000000e+00 -2.73520989156459879e-03 
2.46350922834427622e-03 0.00000000000000000e+00 -2.34309290372132365e-03 
1.75045881873600812e-03 0.00000000000000000e+00 -1.78819953191404176e-03 
7.61605380108021498e-04 0.00000000000000000e+00 -9.53720894461359387e-04 
7.61605380115796312e-04 0.00000000000000000e+00 -9.53720894462916735e-04 
-8.85726977289284177e-05 0.00000000000000000e+00 -9.50276854428894153e-05 
-8.85726977283404548e-05 0.00000000000000000e+00 -9.50276854418882630e-05 
3.22778480129901025e-04 0.00000000000000000e+00 -5.27934985830876328e-04 
3.22778480123626801e-04 0.00000000000000000e+00 -5.27934985830630756e-04 
7.61605380118843462e-04 0.00000000000000000e+00 -9.53720894462132423e-04 
-8.85726977320968359e-05 0.00000000000000000e+00 -9.50276854413036612e-05 
-5.85231491191662507e-04 0.00000000000000000e+00 3.86654339800525501e-04 
-5.85231491186570659e-04 0.00000000000000000e+00 3.86654339801012091e-04 
-5.85231491184121880e-04 0.00000000000000000e+00 3.86654339802303484e-04 
1.31550327502500774e-03 0.00000000000000000e+00 -1.41455216721406976e-03 
1.31550327502211531e-03 0.00000000000000000e+00 -1.41455216721634550e-03 
1.31550327502037061e-03 0.00000000000000000e+00 -1.41455216721306600e-03 
2.19379255858649088e-04 0.00000000000000000e+00 4.15980249906147139e-04 
2.84831172660688953e-04 0.00000000000000000e+00 -7.44997417109363958e-05 
9.50537627928978965e-05 0.00000000000000000e+00 -3.37922884912362186e-04 
-1.79547499831925341e-04 0.00000000000000000e+00 -3.82108633544472507e-04 
-3.74387806246643455e-04 0.00000000000000000e+00 -2.72142053170491241e-04 
-4.15627215710792392e-04 0.00000000000000000e+00 -1.01850042087258750e-04 
-3.01334547726195398e-04 0.00000000000000000e+00 3.67408414207937890e-05 
-6.78287072882669375e-05 0.00000000000000000e+00 7.83014747634171052e-05 
2.14144066599620826e-04 0.00000000000000000e+00 1.09217906761563054e-05 
4.28199630887578816e-04 0.00000000000000000e+00 -1.05757760184120524e-04 
4.26226514944457607e-04 0.00000000000000000e+00 -1.53832585248803969e-04 
8.88618868561519672e-05 0.00000000000000000e+00 -9.24939657068002765e-06 
9.12563591734420548e-05 0.00000000000000000e+00 7.31977643285815216e-04 
2.87736870339539070e-04 0.00000000000000000e+00 1.44469068821310374e-04 
2.12833220054559779e-04 0.00000000000000000e+00 -2.35428969227670951e-04 
-4.36299816142783785e-05 0.00000000000000000e+00 -3.84479181087416888e-04 
-2.93390519322638693e-04 0.00000000000000000e+00 -3.41003891884630048e-04 
-4.15636758555716927e-04 0.00000000000000000e+00 -1.88399183622279474e-04 
-3.76603953568512332e-04 0.00000000000000000e+00 -2.33883016115871804e-05 
-1.95985692438157080e-04 0.00000000000000000e+00 7.19382809486034130e-05 
7.34480930331782669e-05 0.00000000000000000e+00 5.60714087092776769e-05 
3.38693892414117530e-04 0.00000000000000000e+00 -4.77395952108492340e-05 
4.63189555746587719e-04 0.00000000000000000e+00 -1.46688831072937372e-04 
3.03125129589908691e-04 0.00000000000000000e+00 -1.11497018445468507e-04 
-2.12597651640750662e-04 0.00000000000000000e+00 1.57761562311321119e-04 
1.52612393660744011e-02 0.00000000000000000e+00 -2.48450789634212937e-03 
1.52612393660850245e-02 0.00000000000000000e+00 -2.48450789634209772e-03 
1.52612393660746803e-02 0.00000000000000000e+00 -2.48450789633916863e-03 
3.22778480128929092e-04 0.00000000000000000e+00 -5.27934985829922230e-04 
7.61605380115311890e-04 0.00000000000000000e+00 -9.53720894461838171e-04 
-8.85726977310614228e-05 0.00000000000000000e+00 -9.50276854421827324e-05 
2.19379255858999502e-04 0.00000000000000000e+00 4.15980249908771342e-04 
2.84831172663199965e-04 0.00000000000000000e+00 -7.44997417127283651e-05 
9.50537627917234887e-05 0.00000000000000000e+00 -3.37922884912570352e-04 
-1.79547499834232523e-04 0.00000000000000000e+00 -3.82108633546412362e-04 
-3.74387806248923749e-04 0.00000000000000000e+00 -2.72142053170072739e-04 
-4.15627215709072414e-04 0.00000000000000000e+00 -1.01850042086102990e-04 
-3.01334547725911771e-04 0.00000000000000000e+00 3.67408414207647324e-05 
-6.78287072877630003e-05 0.00000000000000000e+00 7.83014747641031883e-05 
2.14144066599792347e-04 0.00000000000000000e+00 1.09217906756803406e-05 
4.28199630892880240e-04 0.00000000000000000e+00 -1.05757760184446001e-04 
4.26226514945665950e-04 0.00000000000000000e+00 -1.53832585250744907e-04 
8.88618868617225980e-05 0.00000000000000000e+00 -9.24939657224735032e-06 
9.12563591695996423e-05 0.00000000000000000e+00 7.31977643286007337e-04 
2.87736870337840776e-04 0.00000000000000000e+00 1.44469068821868521e-04 
2.12833220055676941e-04 0.00000000000000000e+00 -2.35428969229925657e-04 
-4.36299816122470173e-05 0.00000000000000000e+00 -3.84479181088151110e-04 
-2.93390519323316102e-04 0.00000000000000000e+00 -3.41003891885103627e-04 
-4.15636758559260967e-04 0.00000000000000000e+00 -1.88399183622352983e-04 
-3.76603953568501056e-04 0.00000000000000000e+00 -2.33883016119547249e-05 
-1.95985692440103440e-04 0.00000000000000000e+00 7.19382809489707407e-05 
7.34480930343693714e-05 0.00000000000000000e+00 5.60714087105929225e-05 
3.38693892412133873e-04 0.00000000000000000e+00 -4.77395952098126283e-05 
4.63189555746881538e-04 0.00000000000000000e+00 -1.46688831074315176e-04 
3.03125129591227298e-04 0.00000000000000000e+00 -1.11497018446259758e-04 
-2.12597651636432339e-04 0.00000000000000000e+00 1.57761562309916643e-04 
1.52612393660796607e-02 0.00000000000000000e+00 -2.48450789633992931e-03 
1.71171721360340763e-02 0.00000000000000000e+00 -3.79649992528992980e-03 
1.68234361593575486e-02 0.00000000000000000e+00 -5.14854731418620034e-03 
1.47998892494814998e-02 0.00000000000000000e+00 -5.99810150383244065e-03 
1.22488662144431635e-02 0.00000000000000000e+00 -6.24138846388999202e-03 
9.83154350376599061e-03 0.00000000000000000e+00 -6.01719750881202654e-03 
7.72932356389186524e-03 0.00000000000000000e+00 -5.45354417525667143e-03 