/*--------------------------------*- C++ -*----------------------------------*\
  =========                 |
  \\      /  F ield         | OpenFOAM: The Open Source CFD Toolbox
   \\    /   O peration     | Website:  https://openfoam.org
    \\  /    A nd           | Version:  7
     \\/     M anipulation  |
\*---------------------------------------------------------------------------*/
FoamFile
{
    version     2.0;
    format      ascii;
    class       surfaceScalarField;
    location    "1.52";
    object      phi;
}
// * * * * * * * * * * * * * * * * * * * * * * * * * * * * * * * * * * * * * //

dimensions      [1 0 -1 0 0 0 0];

internalField   nonuniform List<scalar> 
23692
(
1.17299e-05
-9.49608e-08
1.19046e-05
-1.74485e-07
1.21499e-05
-2.45007e-07
1.2456e-05
-3.05593e-07
1.28143e-05
-3.57631e-07
1.3217e-05
-4.02029e-07
1.36574e-05
-4.39533e-07
1.41292e-05
-4.70937e-07
1.46273e-05
-4.97065e-07
1.51471e-05
-5.18753e-07
1.56851e-05
-5.36822e-07
1.62383e-05
-5.52049e-07
1.68047e-05
-5.65138e-07
1.73826e-05
-5.76698e-07
1.7971e-05
-5.87231e-07
1.85693e-05
-5.97131e-07
1.91771e-05
-6.06688e-07
1.97943e-05
-6.161e-07
2.04208e-05
-6.25484e-07
2.10566e-05
-6.34895e-07
2.17017e-05
-6.44337e-07
2.23561e-05
-6.53778e-07
2.30198e-05
-6.6316e-07
2.36926e-05
-6.72412e-07
2.43743e-05
-6.81451e-07
2.50645e-05
-6.90192e-07
2.57629e-05
-6.98552e-07
2.64689e-05
-7.06449e-07
2.71821e-05
-7.13807e-07
2.79018e-05
-7.20554e-07
2.86273e-05
-7.26624e-07
2.93579e-05
-7.31959e-07
3.00928e-05
-7.36503e-07
3.08311e-05
-7.40208e-07
3.15719e-05
-7.43029e-07
3.23144e-05
-7.44926e-07
3.30575e-05
-7.45863e-07
3.38003e-05
-7.45807e-07
3.45416e-05
-7.44728e-07
3.52805e-05
-7.42597e-07
3.6016e-05
-7.3939e-07
3.67468e-05
-7.35082e-07
3.74718e-05
-7.29649e-07
3.819e-05
-7.2307e-07
3.89001e-05
-7.15322e-07
3.9601e-05
-7.06382e-07
4.02915e-05
-6.96229e-07
4.09702e-05
-6.84837e-07
4.1636e-05
-6.72183e-07
4.22876e-05
-6.58239e-07
4.29237e-05
-6.42974e-07
4.35429e-05
-6.26355e-07
4.41438e-05
-6.08345e-07
4.47251e-05
-5.889e-07
4.52852e-05
-5.67972e-07
4.58226e-05
-5.45503e-07
4.63357e-05
-5.21426e-07
4.68229e-05
-4.95665e-07
4.72824e-05
-4.68127e-07
4.77123e-05
-4.387e-07
4.81106e-05
-4.07252e-07
4.84751e-05
-3.73622e-07
4.88036e-05
-3.37612e-07
4.90933e-05
-2.98978e-07
4.93414e-05
-2.57413e-07
4.95446e-05
-2.12532e-07
4.96991e-05
-1.63839e-07
4.98005e-05
-1.10697e-07
4.98434e-05
-5.22753e-08
4.98216e-05
1.25507e-08
4.97268e-05
8.55476e-08
4.95485e-05
1.69295e-07
4.92719e-05
2.67561e-07
4.8877e-05
3.86147e-07
4.83339e-05
5.34409e-07
4.75974e-05
7.28098e-07
4.65942e-05
9.94982e-07
4.51996e-05
1.38676e-06
4.31822e-05
2.00975e-06
4.00513e-05
3.12365e-06
5.76316e-06
3.42813e-05
1.25491e-05
-1.94371e-07
1.27353e-05
-3.6039e-07
1.29972e-05
-5.06618e-07
1.33242e-05
-6.32002e-07
1.37069e-05
-7.39724e-07
1.41373e-05
-8.31614e-07
1.46078e-05
-9.09212e-07
1.51121e-05
-9.74172e-07
1.56443e-05
-1.0282e-06
1.61997e-05
-1.07303e-06
1.67745e-05
-1.11037e-06
1.73655e-05
-1.14181e-06
1.79705e-05
-1.16883e-06
1.85877e-05
-1.19268e-06
1.92162e-05
-1.2144e-06
1.98551e-05
-1.23481e-06
2.05041e-05
-1.2545e-06
2.11631e-05
-1.27389e-06
2.18319e-05
-1.29323e-06
2.25106e-05
-1.31261e-06
2.31992e-05
-1.33206e-06
2.38976e-05
-1.35151e-06
2.46058e-05
-1.37083e-06
2.53237e-05
-1.38988e-06
2.6051e-05
-1.40849e-06
2.67873e-05
-1.42648e-06
2.75322e-05
-1.44368e-06
2.82852e-05
-1.45991e-06
2.90458e-05
-1.47503e-06
2.98132e-05
-1.48889e-06
3.05868e-05
-1.50134e-06
3.13656e-05
-1.51226e-06
3.21489e-05
-1.52155e-06
3.29358e-05
-1.5291e-06
3.37252e-05
-1.53481e-06
3.45163e-05
-1.53861e-06
3.53079e-05
-1.54042e-06
3.6099e-05
-1.54017e-06
3.68884e-05
-1.5378e-06
3.76752e-05
-1.53326e-06
3.8458e-05
-1.52648e-06
3.92358e-05
-1.51742e-06
4.00072e-05
-1.50603e-06
4.07712e-05
-1.49226e-06
4.15264e-05
-1.47607e-06
4.22715e-05
-1.45742e-06
4.30054e-05
-1.43625e-06
4.37265e-05
-1.41251e-06
4.44337e-05
-1.38616e-06
4.51255e-05
-1.35714e-06
4.58005e-05
-1.32539e-06
4.64574e-05
-1.29084e-06
4.70945e-05
-1.25341e-06
4.77104e-05
-1.21302e-06
4.83036e-05
-1.16957e-06
4.88724e-05
-1.12293e-06
4.9415e-05
-1.07299e-06
4.99299e-05
-1.01957e-06
5.0415e-05
-9.62507e-07
5.08685e-05
-9.01562e-07
5.12881e-05
-8.36477e-07
5.16717e-05
-7.66928e-07
5.20168e-05
-6.92524e-07
5.23208e-05
-6.1278e-07
5.25805e-05
-5.27091e-07
5.27927e-05
-4.34699e-07
5.29534e-05
-3.34633e-07
5.30584e-05
-2.25647e-07
5.31022e-05
-1.06113e-07
5.30787e-05
2.61537e-08
5.29801e-05
1.74373e-07
5.27965e-05
3.43154e-07
5.25153e-05
5.39112e-07
5.212e-05
7.72041e-07
5.15883e-05
1.0569e-06
5.08902e-05
1.41718e-06
4.99858e-05
1.89057e-06
4.88254e-05
2.53871e-06
4.73607e-05
3.4663e-06
4.56254e-05
4.85108e-06
6.89347e-06
4.44877e-05
1.3425e-05
-2.97891e-07
1.36227e-05
-5.57839e-07
1.39015e-05
-7.84993e-07
1.42499e-05
-9.79864e-07
1.46581e-05
-1.14719e-06
1.51172e-05
-1.28987e-06
1.56192e-05
-1.41031e-06
1.61572e-05
-1.51109e-06
1.6725e-05
-1.59487e-06
1.73176e-05
-1.66435e-06
1.79307e-05
-1.72217e-06
1.8561e-05
-1.77083e-06
1.92062e-05
-1.81261e-06
1.98643e-05
-1.84945e-06
2.05343e-05
-1.88297e-06
2.12153e-05
-1.91445e-06
2.19069e-05
-1.94482e-06
2.26089e-05
-1.9747e-06
2.33213e-05
-2.0045e-06
2.40441e-05
-2.03436e-06
2.47773e-05
-2.06433e-06
2.55208e-05
-2.09427e-06
2.62747e-05
-2.12403e-06
2.70386e-05
-2.15335e-06
2.78123e-05
-2.18199e-06
2.85955e-05
-2.20966e-06
2.93877e-05
-2.23609e-06
3.01884e-05
-2.26103e-06
3.09969e-05
-2.28423e-06
3.18125e-05
-2.30546e-06
3.26344e-05
-2.3245e-06
3.34617e-05
-2.34118e-06
3.42936e-05
-2.3553e-06
3.51291e-05
-2.36671e-06
3.59671e-05
-2.37528e-06
3.68065e-05
-2.38087e-06
3.76463e-05
-2.38336e-06
3.84853e-05
-2.38265e-06
3.93223e-05
-2.37864e-06
4.01561e-05
-2.37125e-06
4.09854e-05
-2.36039e-06
4.18091e-05
-2.34597e-06
4.26257e-05
-2.32794e-06
4.34341e-05
-2.30621e-06
4.42328e-05
-2.28072e-06
4.50205e-05
-2.2514e-06
4.57958e-05
-2.21817e-06
4.65573e-05
-2.18096e-06
4.73035e-05
-2.13969e-06
4.80331e-05
-2.09427e-06
4.87444e-05
-2.04462e-06
4.9436e-05
-1.99064e-06
5.01063e-05
-1.93219e-06
5.07537e-05
-1.86917e-06
5.13765e-05
-1.80141e-06
5.1973e-05
-1.72875e-06
5.25416e-05
-1.65099e-06
5.30802e-05
-1.5679e-06
5.3587e-05
-1.47919e-06
5.40599e-05
-1.38456e-06
5.44968e-05
-1.2836e-06
5.48953e-05
-1.17585e-06
5.52531e-05
-1.06075e-06
5.55673e-05
-9.37586e-07
5.58351e-05
-8.05502e-07
5.60531e-05
-6.63413e-07
5.62177e-05
-5.09954e-07
5.63247e-05
-3.43375e-07
5.63693e-05
-1.61416e-07
5.6346e-05
3.88679e-08
5.62483e-05
2.61584e-07
5.60686e-05
5.12403e-07
5.57983e-05
7.99176e-07
5.54274e-05
1.13286e-06
5.49455e-05
1.52891e-06
5.43437e-05
2.00928e-06
5.36201e-05
2.60479e-06
5.27921e-05
3.35756e-06
5.19283e-05
4.32138e-06
5.12241e-05
5.54684e-06
6.99803e-06
5.11115e-05
1.4362e-05
-4.05535e-07
1.45711e-05
-7.66711e-07
1.48669e-05
-1.08039e-06
1.52374e-05
-1.34975e-06
1.56719e-05
-1.58089e-06
1.61607e-05
-1.77786e-06
1.66955e-05
-1.94405e-06
1.72686e-05
-2.08303e-06
1.78735e-05
-2.1985e-06
1.85046e-05
-2.29418e-06
1.91576e-05
-2.37373e-06
1.98288e-05
-2.44062e-06
2.05156e-05
-2.49796e-06
2.12161e-05
-2.54847e-06
2.1929e-05
-2.59438e-06
2.26534e-05
-2.63744e-06
2.33889e-05
-2.67896e-06
2.41354e-05
-2.7198e-06
2.48926e-05
-2.76049e-06
2.56606e-05
-2.80128e-06
2.64394e-05
-2.84218e-06
2.72291e-05
-2.88306e-06
2.80294e-05
-2.92367e-06
2.88401e-05
-2.96367e-06
2.96611e-05
-3.00271e-06
3.04919e-05
-3.04041e-06
3.1332e-05
-3.0764e-06
3.21808e-05
-3.11032e-06
3.30376e-05
-3.14182e-06
3.39017e-05
-3.1706e-06
3.47722e-05
-3.19635e-06
3.56482e-05
-3.21882e-06
3.65287e-05
-3.23777e-06
3.74127e-05
-3.25297e-06
3.8299e-05
-3.26424e-06
3.91865e-05
-3.27138e-06
4.0074e-05
-3.27424e-06
4.09603e-05
-3.27268e-06
4.18441e-05
-3.26656e-06
4.27241e-05
-3.25576e-06
4.3599e-05
-3.24016e-06
4.44675e-05
-3.21966e-06
4.53281e-05
-3.19415e-06
4.61794e-05
-3.16354e-06
4.70201e-05
-3.12774e-06
4.78486e-05
-3.08665e-06
4.86635e-05
-3.04016e-06
4.94633e-05
-2.98819e-06
5.02465e-05
-2.93062e-06
5.10114e-05
-2.86735e-06
5.17566e-05
-2.79824e-06
5.24803e-05
-2.72318e-06
5.31811e-05
-2.642e-06
5.38571e-05
-2.55453e-06
5.45066e-05
-2.46059e-06
5.51279e-05
-2.35995e-06
5.57191e-05
-2.25235e-06
5.62783e-05
-2.13751e-06
5.68036e-05
-2.01506e-06
5.72929e-05
-1.8846e-06
5.77439e-05
-1.74564e-06
5.81546e-05
-1.59758e-06
5.85223e-05
-1.43973e-06
5.88447e-05
-1.27121e-06
5.91188e-05
-1.09099e-06
5.93417e-05
-8.97737e-07
5.95101e-05
-6.89841e-07
5.96205e-05
-4.65247e-07
5.9669e-05
-2.21356e-07
5.96515e-05
4.50748e-08
5.95635e-05
3.38307e-07
5.94008e-05
6.6394e-07
5.91596e-05
1.02934e-06
5.88377e-05
1.44403e-06
5.84358e-05
1.92018e-06
5.79618e-05
2.47288e-06
5.74366e-05
3.11992e-06
5.69046e-05
3.87986e-06
5.64499e-05
4.76664e-06
5.62123e-05
5.77532e-06
6.8451e-06
5.63565e-05
1.53643e-05
-5.17417e-07
1.55849e-05
-9.86998e-07
1.5898e-05
-1.39308e-06
1.62911e-05
-1.74219e-06
1.67526e-05
-2.04162e-06
1.72723e-05
-2.2966e-06
1.7841e-05
-2.51162e-06
1.84505e-05
-2.69132e-06
1.90938e-05
-2.8405e-06
1.97651e-05
-2.96398e-06
2.04593e-05
-3.06653e-06
2.11729e-05
-3.15263e-06
2.19028e-05
-3.22633e-06
2.26471e-05
-3.29115e-06
2.34043e-05
-3.34998e-06
2.41735e-05
-3.40509e-06
2.49542e-05
-3.45817e-06
2.57462e-05
-3.51035e-06
2.65493e-05
-3.56232e-06
2.73636e-05
-3.6144e-06
2.81891e-05
-3.6666e-06
2.90257e-05
-3.71876e-06
2.98733e-05
-3.77055e-06
3.07317e-05
-3.82155e-06
3.16005e-05
-3.87129e-06
3.24795e-05
-3.91929e-06
3.33679e-05
-3.96506e-06
3.42652e-05
-4.00814e-06
3.51707e-05
-4.04809e-06
3.60835e-05
-4.08449e-06
3.70027e-05
-4.11698e-06
3.79273e-05
-4.14521e-06
3.88563e-05
-4.16887e-06
3.97885e-05
-4.18767e-06
4.07228e-05
-4.20136e-06
4.1658e-05
-4.20972e-06
4.25926e-05
-4.21253e-06
4.35256e-05
-4.20961e-06
4.44554e-05
-4.20077e-06
4.53807e-05
-4.18588e-06
4.63002e-05
-4.16477e-06
4.72122e-05
-4.13732e-06
4.81155e-05
-4.10339e-06
4.90084e-05
-4.06285e-06
4.98895e-05
-4.0156e-06
5.07572e-05
-3.9615e-06
5.16099e-05
-3.90045e-06
5.2446e-05
-3.8323e-06
5.3264e-05
-3.75694e-06
5.40622e-05
-3.67423e-06
5.4839e-05
-3.58401e-06
5.55925e-05
-3.48612e-06
5.63212e-05
-3.38039e-06
5.70233e-05
-3.26661e-06
5.76969e-05
-3.14456e-06
5.83404e-05
-3.01396e-06
5.89517e-05
-2.87452e-06
5.9529e-05
-2.7259e-06
6.00703e-05
-2.56769e-06
6.05736e-05
-2.39941e-06
6.10367e-05
-2.22052e-06
6.14576e-05
-2.03035e-06
6.1834e-05
-1.82811e-06
6.21636e-05
-1.61285e-06
6.24439e-05
-1.38344e-06
6.26724e-05
-1.13847e-06
6.28465e-05
-8.76261e-07
6.29638e-05
-5.94714e-07
6.30214e-05
-2.91261e-07
6.30172e-05
3.71347e-08
6.29493e-05
3.9422e-07
6.28168e-05
7.84473e-07
6.26209e-05
1.21354e-06
6.23653e-05
1.68803e-06
6.20589e-05
2.21525e-06
6.1718e-05
2.80268e-06
6.13704e-05
3.45666e-06
6.10599e-05
4.17985e-06
6.08495e-05
4.96692e-06
6.08179e-05
5.79709e-06
6.62115e-06
6.10325e-05
1.64367e-05
-6.33732e-07
1.66688e-05
-1.21879e-06
1.69996e-05
-1.72337e-06
1.74158e-05
-2.15772e-06
1.79052e-05
-2.53014e-06
1.84567e-05
-2.84708e-06
1.90604e-05
-3.11417e-06
1.97076e-05
-3.33721e-06
2.03907e-05
-3.52219e-06
2.11033e-05
-3.67513e-06
2.18404e-05
-3.80197e-06
2.25977e-05
-3.90828e-06
2.33722e-05
-3.99911e-06
2.41616e-05
-4.07884e-06
2.49643e-05
-4.15108e-06
2.57795e-05
-4.21864e-06
2.66066e-05
-4.28363e-06
2.74452e-05
-4.34747e-06
2.82954e-05
-4.41101e-06
2.91569e-05
-4.47466e-06
3.00299e-05
-4.53845e-06
3.09142e-05
-4.60215e-06
3.18098e-05
-4.66538e-06
3.27164e-05
-4.72761e-06
3.36337e-05
-4.78826e-06
3.45612e-05
-4.84673e-06
3.54983e-05
-4.90243e-06
3.64444e-05
-4.95476e-06
3.73987e-05
-5.0032e-06
3.83603e-05
-5.04722e-06
3.93282e-05
-5.08636e-06
4.03013e-05
-5.1202e-06
4.12785e-05
-5.14836e-06
4.22587e-05
-5.17047e-06
4.32405e-05
-5.18623e-06
4.42227e-05
-5.19535e-06
4.52039e-05
-5.19757e-06
4.61827e-05
-5.19266e-06
4.71577e-05
-5.18041e-06
4.81273e-05
-5.16063e-06
4.90902e-05
-5.13312e-06
5.00446e-05
-5.09774e-06
5.09891e-05
-5.05431e-06
5.19222e-05
-5.00269e-06
5.28421e-05
-4.94274e-06
5.37472e-05
-4.87431e-06
5.46359e-05
-4.79725e-06
5.55066e-05
-4.71143e-06
5.63574e-05
-4.61669e-06
5.71868e-05
-4.51287e-06
5.79929e-05
-4.39981e-06
5.87741e-05
-4.27731e-06
5.95285e-05
-4.14518e-06
6.02544e-05
-4.00319e-06
6.09499e-05
-3.85109e-06
6.16132e-05
-3.6886e-06
6.22425e-05
-3.51539e-06
6.28358e-05
-3.33108e-06
6.33913e-05
-3.13526e-06
6.3907e-05
-2.92743e-06
6.43809e-05
-2.70701e-06
6.48112e-05
-2.47332e-06
6.51959e-05
-2.22557e-06
6.55329e-05
-1.96283e-06
6.58205e-05
-1.684e-06
6.60567e-05
-1.38775e-06
6.62399e-05
-1.07253e-06
6.63685e-05
-7.365e-07
6.64417e-05
-3.77476e-07
6.64589e-05
6.9411e-09
6.64206e-05
4.19638e-07
6.63292e-05
8.63084e-07
6.61894e-05
1.34079e-06
6.6009e-05
1.85608e-06
6.58003e-05
2.41173e-06
6.55819e-05
3.00922e-06
6.53794e-05
3.64752e-06
6.52266e-05
4.32136e-06
6.51636e-05
5.01896e-06
6.52309e-05
5.71924e-06
6.38919e-06
6.54527e-05
1.7584e-05
-7.54739e-07
1.78278e-05
-1.46226e-06
1.81766e-05
-2.07161e-06
1.86165e-05
-2.59686e-06
1.91344e-05
-3.04719e-06
1.97186e-05
-3.4302e-06
2.03585e-05
-3.75275e-06
2.10446e-05
-4.02188e-06
2.17687e-05
-4.24484e-06
2.25242e-05
-4.42894e-06
2.33053e-05
-4.58137e-06
2.41077e-05
-4.70888e-06
2.49279e-05
-4.81759e-06
2.57637e-05
-4.9128e-06
2.66133e-05
-4.99886e-06
2.74757e-05
-5.07921e-06
2.83501e-05
-5.15639e-06
2.92364e-05
-5.23212e-06
3.01344e-05
-5.30745e-06
3.1044e-05
-5.38287e-06
3.19652e-05
-5.45843e-06
3.2898e-05
-5.53386e-06
3.38421e-05
-5.60869e-06
3.47974e-05
-5.68229e-06
3.57635e-05
-5.75398e-06
3.67398e-05
-5.82301e-06
3.77258e-05
-5.88867e-06
3.87208e-05
-5.95027e-06
3.97239e-05
-6.00714e-06
4.07341e-05
-6.05867e-06
4.17504e-05
-6.10429e-06
4.27717e-05
-6.14351e-06
4.37968e-05
-6.17584e-06
4.48244e-05
-6.20087e-06
4.58532e-05
-6.21822e-06
4.68818e-05
-6.22754e-06
4.79087e-05
-6.22854e-06
4.89324e-05
-6.22092e-06
4.99515e-05
-6.20444e-06
5.09643e-05
-6.17886e-06
5.19692e-05
-6.14397e-06
5.29647e-05
-6.09957e-06
5.3949e-05
-6.04548e-06
5.49206e-05
-5.98152e-06
5.58776e-05
-5.90752e-06
5.68185e-05
-5.82333e-06
5.77413e-05
-5.72877e-06
5.86445e-05
-5.62368e-06
5.95263e-05
-5.50791e-06
6.03848e-05
-5.38127e-06
6.12182e-05
-5.24359e-06
6.20249e-05
-5.09467e-06
6.28029e-05
-4.93429e-06
6.35505e-05
-4.76223e-06
6.42659e-05
-4.57823e-06
6.49472e-05
-4.382e-06
6.55926e-05
-4.17322e-06
6.62004e-05
-3.95152e-06
6.67687e-05
-3.71651e-06
6.72958e-05
-3.46769e-06
6.778e-05
-3.20454e-06
6.82195e-05
-2.92643e-06
6.86129e-05
-2.63266e-06
6.89587e-05
-2.32241e-06
6.92555e-05
-1.99474e-06
6.95024e-05
-1.64858e-06
6.96986e-05
-1.28272e-06
6.98439e-05
-8.95771e-07
6.99387e-05
-4.86226e-07
6.99842e-05
-5.24921e-08
6.99834e-05
4.06739e-07
6.99404e-05
8.92425e-07
6.9862e-05
1.4057e-06
6.97577e-05
1.94708e-06
6.96405e-05
2.516e-06
6.95267e-05
3.11019e-06
6.94369e-05
3.72497e-06
6.93937e-05
4.35239e-06
6.94204e-05
4.98049e-06
6.95355e-05
5.59277e-06
6.16907e-06
6.97446e-05
1.88116e-05
-8.80727e-07
1.90673e-05
-1.71762e-06
1.94345e-05
-2.4382e-06
1.98985e-05
-3.06013e-06
2.04458e-05
-3.59344e-06
2.10636e-05
-4.04681e-06
2.17405e-05
-4.42835e-06
2.24665e-05
-4.74641e-06
2.32329e-05
-5.00959e-06
2.40323e-05
-5.22659e-06
2.48587e-05
-5.40592e-06
2.57073e-05
-5.55561e-06
2.65746e-05
-5.68291e-06
2.74578e-05
-5.79409e-06
2.83553e-05
-5.89435e-06
2.92657e-05
-5.98775e-06
3.01885e-05
-6.07731e-06
3.11232e-05
-6.16509e-06
3.20698e-05
-6.25234e-06
3.3028e-05
-6.33964e-06
3.3998e-05
-6.42707e-06
3.49796e-05
-6.51432e-06
3.59726e-05
-6.60082e-06
3.69769e-05
-6.68585e-06
3.79919e-05
-6.76859e-06
3.90171e-05
-6.84818e-06
4.0052e-05
-6.92376e-06
4.10957e-05
-6.99452e-06
4.21473e-05
-7.05967e-06
4.32059e-05
-7.11849e-06
4.42702e-05
-7.17033e-06
4.53392e-05
-7.21457e-06
4.64115e-05
-7.25066e-06
4.74858e-05
-7.27811e-06
4.85606e-05
-7.29648e-06
4.96346e-05
-7.30536e-06
5.07061e-05
-7.30438e-06
5.17736e-05
-7.29323e-06
5.28354e-05
-7.2716e-06
5.389e-05
-7.23922e-06
5.49356e-05
-7.19585e-06
5.59705e-05
-7.14126e-06
5.6993e-05
-7.07524e-06
5.80013e-05
-6.99759e-06
5.89936e-05
-6.90812e-06
5.99683e-05
-6.80666e-06
6.09233e-05
-6.69303e-06
6.1857e-05
-6.56705e-06
6.27675e-05
-6.42855e-06
6.36531e-05
-6.27736e-06
6.45118e-05
-6.1133e-06
6.53418e-05
-5.93616e-06
6.61414e-05
-5.74574e-06
6.69088e-05
-5.54182e-06
6.76422e-05
-5.32418e-06
6.83398e-05
-5.09253e-06
6.9e-05
-4.8466e-06
6.9621e-05
-4.58607e-06
7.02013e-05
-4.31059e-06
7.07393e-05
-4.01976e-06
7.12336e-05
-3.71315e-06
7.1683e-05
-3.39026e-06
7.20863e-05
-3.05058e-06
7.24426e-05
-2.69349e-06
7.27514e-05
-2.31835e-06
7.30124e-05
-1.92447e-06
7.32258e-05
-1.51111e-06
7.33926e-05
-1.07753e-06
7.35145e-05
-6.23009e-07
7.35942e-05
-1.46969e-07
7.36356e-05
3.50604e-07
7.36443e-05
8.69132e-07
7.36277e-05
1.40789e-06
7.35952e-05
1.9654e-06
7.35582e-05
2.53907e-06
7.35299e-05
3.12482e-06
7.35247e-05
3.71684e-06
7.35567e-05
4.30728e-06
7.36383e-05
4.88626e-06
7.37765e-05
5.44224e-06
5.9635e-06
7.39702e-05
2.01251e-05
-1.012e-06
2.03929e-05
-1.98514e-06
2.07789e-05
-2.82353e-06
2.12676e-05
-3.54803e-06
2.18448e-05
-4.16953e-06
2.24969e-05
-4.69765e-06
2.32117e-05
-5.1418e-06
2.39787e-05
-5.5117e-06
2.47882e-05
-5.8174e-06
2.56325e-05
-6.06905e-06
2.65052e-05
-6.27659e-06
2.7401e-05
-6.44941e-06
2.83162e-05
-6.59596e-06
2.92478e-05
-6.72358e-06
3.01939e-05
-6.83832e-06
3.11531e-05
-6.94496e-06
3.21248e-05
-7.04702e-06
3.31086e-05
-7.14691e-06
3.41041e-05
-7.24611e-06
3.51114e-05
-7.34531e-06
3.61304e-05
-7.44461e-06
3.7161e-05
-7.54366e-06
3.8203e-05
-7.64181e-06
3.92561e-05
-7.73822e-06
4.03199e-05
-7.83193e-06
4.13938e-05
-7.92196e-06
4.24771e-05
-8.00731e-06
4.35691e-05
-8.08703e-06
4.46687e-05
-8.16021e-06
4.57749e-05
-8.22602e-06
4.68865e-05
-8.28368e-06
4.80022e-05
-8.33249e-06
4.91207e-05
-8.37182e-06
5.02405e-05
-8.40109e-06
5.13603e-05
-8.41979e-06
5.24783e-05
-8.42746e-06
5.35929e-05
-8.42366e-06
5.47026e-05
-8.40804e-06
5.58056e-05
-8.38024e-06
5.69002e-05
-8.33996e-06
5.79846e-05
-8.28693e-06
5.90571e-05
-8.22088e-06
6.01157e-05
-8.14159e-06
6.11587e-05
-8.04883e-06
6.21842e-05
-7.94241e-06
6.31904e-05
-7.82214e-06
6.41754e-05
-7.68782e-06
6.51373e-05
-7.5393e-06
6.60744e-05
-7.37639e-06
6.69847e-05
-7.19893e-06
6.78664e-05
-7.00675e-06
6.87177e-05
-6.79967e-06
6.95369e-05
-6.57752e-06
7.03222e-05
-6.34012e-06
7.10719e-05
-6.08726e-06
7.17843e-05
-5.81874e-06
7.2458e-05
-5.53436e-06
7.30913e-05
-5.23388e-06
7.36831e-05
-4.91705e-06
7.42319e-05
-4.58362e-06
7.47369e-05
-4.23331e-06
7.5197e-05
-3.86585e-06
7.56118e-05
-3.48095e-06
7.59809e-05
-3.07833e-06
7.63045e-05
-2.65772e-06
7.6583e-05
-2.21889e-06
7.68176e-05
-1.76167e-06
7.70101e-05
-1.28602e-06
7.71633e-05
-7.92034e-07
7.72805e-05
-2.80073e-07
7.73665e-05
2.48939e-07
7.74269e-05
7.93153e-07
7.74688e-05
1.35057e-06
7.75006e-05
1.9185e-06
7.75313e-05
2.49342e-06
7.75707e-05
3.07081e-06
7.76282e-05
3.64505e-06
7.7712e-05
4.20951e-06
7.78278e-05
4.75678e-06
7.79777e-05
5.27921e-06
5.77022e-06
7.81581e-05
2.15303e-05
-1.14885e-06
2.18106e-05
-2.26509e-06
2.22157e-05
-3.22797e-06
2.27296e-05
-4.06101e-06
2.33372e-05
-4.77596e-06
2.40242e-05
-5.38332e-06
2.47777e-05
-5.89377e-06
2.55862e-05
-6.31847e-06
2.64397e-05
-6.66899e-06
2.73297e-05
-6.95704e-06
2.82493e-05
-7.19408e-06
2.9193e-05
-7.39093e-06
3.01566e-05
-7.55734e-06
3.11371e-05
-7.70178e-06
3.21323e-05
-7.83123e-06
3.31407e-05
-7.9512e-06
3.41617e-05
-8.06577e-06
3.51945e-05
-8.17774e-06
3.62392e-05
-8.28883e-06
3.72955e-05
-8.39984e-06
3.83633e-05
-8.5109e-06
3.94427e-05
-8.62163e-06
4.05332e-05
-8.73129e-06
4.16348e-05
-8.83892e-06
4.27468e-05
-8.94342e-06
4.38686e-05
-9.04366e-06
4.49997e-05
-9.13851e-06
4.6139e-05
-9.22687e-06
4.72855e-05
-9.30771e-06
4.84382e-05
-9.38007e-06
4.95957e-05
-9.44306e-06
5.07568e-05
-9.49588e-06
5.192e-05
-9.53781e-06
5.30838e-05
-9.56819e-06
5.42467e-05
-9.58643e-06
5.54069e-05
-9.59201e-06
5.65628e-05
-9.58444e-06
5.77127e-05
-9.56331e-06
5.88547e-05
-9.52823e-06
5.99871e-05
-9.47887e-06
6.1108e-05
-9.4149e-06
6.22155e-05
-9.33606e-06
6.33078e-05
-9.24209e-06
6.4383e-05
-9.13276e-06
6.54391e-05
-9.00785e-06
6.64742e-05
-8.86719e-06
6.74866e-05
-8.71058e-06
6.84742e-05
-8.53787e-06
6.94352e-05
-8.3489e-06
7.03678e-05
-8.14351e-06
7.12702e-05
-7.92159e-06
7.21405e-05
-7.68298e-06
7.29771e-05
-7.42756e-06
7.37784e-05
-7.15522e-06
7.45426e-05
-6.86583e-06
7.52685e-05
-6.55928e-06
7.59546e-05
-6.23546e-06
7.65996e-05
-5.89429e-06
7.72025e-05
-5.53566e-06
7.77624e-05
-5.15951e-06
7.82787e-05
-4.76579e-06
7.87509e-05
-4.35448e-06
7.91789e-05
-3.92561e-06
7.95631e-05
-3.47927e-06
7.99041e-05
-3.01561e-06
8.02032e-05
-2.53492e-06
8.04621e-05
-2.03762e-06
8.06834e-05
-1.5243e-06
8.08703e-05
-9.95829e-07
8.10267e-05
-4.5334e-07
8.1157e-05
1.018e-07
8.12666e-05
6.66942e-07
8.13618e-05
1.23904e-06
8.14491e-05
1.81495e-06
8.15356e-05
2.39101e-06
8.16279e-05
2.96292e-06
8.17317e-05
3.52588e-06
8.18516e-05
4.07469e-06
8.19897e-05
4.60404e-06
8.21457e-05
5.10899e-06
5.58604e-06
8.23161e-05
2.30337e-05
-1.29155e-06
2.33268e-05
-2.55772e-06
2.37513e-05
-3.65183e-06
2.42907e-05
-4.59942e-06
2.49291e-05
-5.41312e-06
2.56514e-05
-6.10422e-06
2.6444e-05
-6.68467e-06
2.72945e-05
-7.16712e-06
2.81923e-05
-7.56476e-06
2.91283e-05
-7.89092e-06
3.00952e-05
-8.1587e-06
3.10871e-05
-8.38041e-06
3.20994e-05
-8.56722e-06
3.31288e-05
-8.72876e-06
3.4173e-05
-8.87304e-06
3.52306e-05
-9.00634e-06
3.63005e-05
-9.13333e-06
3.73822e-05
-9.25724e-06
3.84755e-05
-9.38003e-06
3.95802e-05
-9.50265e-06
4.06963e-05
-9.62526e-06
4.18236e-05
-9.74743e-06
4.29619e-05
-9.86834e-06
4.41108e-05
-9.9869e-06
4.52698e-05
-1.01019e-05
4.64384e-05
-1.0212e-05
4.76157e-05
-1.0316e-05
4.88008e-05
-1.04125e-05
4.99927e-05
-1.05005e-05
5.11901e-05
-1.05789e-05
5.23917e-05
-1.06466e-05
5.35961e-05
-1.07027e-05
5.48019e-05
-1.07465e-05
5.60074e-05
-1.07771e-05
5.7211e-05
-1.0794e-05
5.84109e-05
-1.07965e-05
5.96055e-05
-1.07841e-05
6.07928e-05
-1.07564e-05
6.19711e-05
-1.07128e-05
6.31384e-05
-1.06531e-05
6.42928e-05
-1.05768e-05
6.54324e-05
-1.04838e-05
6.65553e-05
-1.03737e-05
6.76596e-05
-1.02463e-05
6.87432e-05
-1.01014e-05
6.98042e-05
-9.93874e-06
7.08408e-05
-9.75826e-06
7.18511e-05
-9.55977e-06
7.28332e-05
-9.34316e-06
7.37852e-05
-9.10832e-06
7.47055e-05
-8.85515e-06
7.55924e-05
-8.5836e-06
7.64441e-05
-8.2936e-06
7.72593e-05
-7.98514e-06
7.80365e-05
-7.65819e-06
7.87743e-05
-7.31277e-06
7.94718e-05
-6.94893e-06
8.01279e-05
-6.56673e-06
8.07418e-05
-6.1663e-06
8.13131e-05
-5.74778e-06
8.18415e-05
-5.31139e-06
8.23269e-05
-4.85743e-06
8.27699e-05
-4.38625e-06
8.31711e-05
-3.89834e-06
8.35318e-05
-3.39431e-06
8.38538e-05
-2.8749e-06
8.41392e-05
-2.34108e-06
8.43908e-05
-1.79399e-06
8.4612e-05
-1.2351e-06
8.48068e-05
-6.66082e-07
8.49794e-05
-8.86565e-08
8.51342e-05
4.944e-07
8.52764e-05
1.07937e-06
8.5411e-05
1.66308e-06
8.55429e-05
2.24209e-06
8.56765e-05
2.81266e-06
8.58151e-05
3.37088e-06
8.5961e-05
3.91285e-06
8.61145e-05
4.43485e-06
8.62746e-05
4.9337e-06
5.4077e-06
8.64381e-05
2.46421e-05
-1.44032e-06
2.49481e-05
-2.86324e-06
2.53923e-05
-4.09532e-06
2.59574e-05
-5.16345e-06
2.66267e-05
-6.08116e-06
2.73845e-05
-6.86046e-06
2.82162e-05
-7.51457e-06
2.91088e-05
-8.05769e-06
3.00508e-05
-8.50466e-06
3.10328e-05
-8.87058e-06
3.20468e-05
-9.17023e-06
3.30865e-05
-9.41756e-06
3.41471e-05
-9.62518e-06
3.5225e-05
-9.80402e-06
3.63177e-05
-9.96313e-06
3.74236e-05
-1.01096e-05
3.85417e-05
-1.02488e-05
3.96713e-05
-1.03844e-05
4.08121e-05
-1.05186e-05
4.19641e-05
-1.06525e-05
4.31271e-05
-1.07863e-05
4.43008e-05
-1.09196e-05
4.54852e-05
-1.10513e-05
4.66798e-05
-1.11804e-05
4.7884e-05
-1.13054e-05
4.90973e-05
-1.14249e-05
5.03187e-05
-1.15375e-05
5.15474e-05
-1.16417e-05
5.27821e-05
-1.17362e-05
5.40216e-05
-1.18198e-05
5.52646e-05
-1.18915e-05
5.65096e-05
-1.19501e-05
5.77549e-05
-1.19949e-05
5.89991e-05
-1.20248e-05
6.02402e-05
-1.20393e-05
6.14766e-05
-1.20377e-05
6.27063e-05
-1.20193e-05
6.39276e-05
-1.19837e-05
6.51385e-05
-1.19303e-05
6.63371e-05
-1.18589e-05
6.75213e-05
-1.1769e-05
6.86893e-05
-1.16603e-05
6.98391e-05
-1.15326e-05
7.09686e-05
-1.13856e-05
7.20759e-05
-1.12192e-05
7.31592e-05
-1.10331e-05
7.42164e-05
-1.08272e-05
7.52458e-05
-1.06015e-05
7.62455e-05
-1.03558e-05
7.72137e-05
-1.00901e-05
7.81489e-05
-9.80441e-06
7.90494e-05
-9.49874e-06
7.99138e-05
-9.17312e-06
8.07407e-05
-8.82766e-06
8.15288e-05
-8.46248e-06
8.22772e-05
-8.07775e-06
8.2985e-05
-7.67369e-06
8.36515e-05
-7.25059e-06
8.42762e-05
-6.80877e-06
8.48591e-05
-6.34867e-06
8.54002e-05
-5.87079e-06
8.58999e-05
-5.37572e-06
8.6359e-05
-4.86421e-06
8.67788e-05
-4.33708e-06
8.71608e-05
-3.79537e-06
8.7507e-05
-3.24024e-06
8.78198e-05
-2.67306e-06
8.8102e-05
-2.09544e-06
8.83569e-05
-1.50918e-06
8.85881e-05
-9.16336e-07
8.87996e-05
-3.19113e-07
8.89951e-05
2.80087e-07
8.91782e-05
8.77638e-07
8.93525e-05
1.47036e-06
8.95215e-05
2.05506e-06
8.96877e-05
2.62864e-06
8.98531e-05
3.18802e-06
9.00185e-05
3.7303e-06
9.01838e-05
4.25287e-06
9.03476e-05
4.75367e-06
5.23208e-06
9.05073e-05
2.63627e-05
-1.59535e-06
2.66818e-05
-3.18178e-06
2.71457e-05
-4.55849e-06
2.77365e-05
-5.75309e-06
2.84367e-05
-6.77995e-06
2.92297e-05
-7.65182e-06
3.01002e-05
-8.38313e-06
3.10343e-05
-8.98969e-06
3.20201e-05
-9.4881e-06
3.30473e-05
-9.89529e-06
3.41076e-05
-1.02278e-05
3.51941e-05
-1.05014e-05
3.63019e-05
-1.07301e-05
3.74271e-05
-1.09263e-05
3.85669e-05
-1.11001e-05
3.97197e-05
-1.12596e-05
4.08842e-05
-1.14107e-05
4.206e-05
-1.15575e-05
4.32465e-05
-1.17027e-05
4.44437e-05
-1.18474e-05
4.56513e-05
-1.19919e-05
4.68693e-05
-1.21357e-05
4.80972e-05
-1.22778e-05
4.93349e-05
-1.24168e-05
5.05815e-05
-1.25513e-05
5.18366e-05
-1.26795e-05
5.30991e-05
-1.28e-05
5.43681e-05
-1.29111e-05
5.56423e-05
-1.30113e-05
5.69205e-05
-1.30995e-05
5.82012e-05
-1.31742e-05
5.94828e-05
-1.32344e-05
6.07639e-05
-1.3279e-05
6.20425e-05
-1.33072e-05
6.3317e-05
-1.33182e-05
6.45855e-05
-1.33111e-05
6.58461e-05
-1.32855e-05
6.70969e-05
-1.32407e-05
6.83359e-05
-1.31763e-05
6.95611e-05
-1.30918e-05
7.07706e-05
-1.29868e-05
7.19623e-05
-1.2861e-05
7.31342e-05
-1.27143e-05
7.42844e-05
-1.25462e-05
7.5411e-05
-1.23568e-05
7.65119e-05
-1.21458e-05
7.75855e-05
-1.19131e-05
7.86297e-05
-1.16588e-05
7.96431e-05
-1.13828e-05
8.06238e-05
-1.10851e-05
8.15703e-05
-1.07659e-05
8.24813e-05
-1.04252e-05
8.33554e-05
-1.00632e-05
8.41914e-05
-9.68028e-06
8.49884e-05
-9.27657e-06
8.57456e-05
-8.85249e-06
8.64624e-05
-8.40846e-06
8.71384e-05
-7.94497e-06
8.77734e-05
-7.46263e-06
8.83678e-05
-6.96213e-06
8.89218e-05
-6.44426e-06
8.94363e-05
-5.90994e-06
8.99124e-05
-5.36021e-06
9.03515e-05
-4.79627e-06
9.07554e-05
-4.21948e-06
9.11262e-05
-3.63134e-06
9.14664e-05
-3.03356e-06
9.17786e-05
-2.42802e-06
9.20659e-05
-1.8168e-06
9.23314e-05
-1.20214e-06
9.25786e-05
-5.86385e-07
9.281e-05
2.87063e-08
9.3028e-05
6.39883e-07
9.32355e-05
1.2434e-06
9.34346e-05
1.83668e-06
9.36271e-05
2.41724e-06
9.38139e-05
2.98269e-06
9.39952e-05
3.53082e-06
9.41704e-05
4.05979e-06
9.43385e-05
4.56824e-06
5.05616e-06
9.44975e-05
2.82034e-05
-1.75675e-06
2.85355e-05
-3.51336e-06
2.90191e-05
-5.0412e-06
2.96352e-05
-6.36803e-06
3.03657e-05
-7.509e-06
3.11933e-05
-8.47758e-06
3.21017e-05
-9.28944e-06
3.30763e-05
-9.96204e-06
3.41046e-05
-1.05138e-05
3.51756e-05
-1.09636e-05
3.62805e-05
-1.13299e-05
3.74121e-05
-1.16301e-05
3.85651e-05
-1.18801e-05
3.97353e-05
-1.20935e-05
4.092e-05
-1.22817e-05
4.21172e-05
-1.24537e-05
4.33257e-05
-1.26161e-05
4.45448e-05
-1.27737e-05
4.57741e-05
-1.29292e-05
4.70134e-05
-1.30841e-05
4.82625e-05
-1.32387e-05
4.95213e-05
-1.33924e-05
5.07894e-05
-1.35441e-05
5.20663e-05
-1.36924e-05
5.33516e-05
-1.38355e-05
5.46444e-05
-1.39717e-05
5.59438e-05
-1.40992e-05
5.72487e-05
-1.42163e-05
5.8558e-05
-1.43214e-05
5.98701e-05
-1.4413e-05
6.11837e-05
-1.44897e-05
6.24972e-05
-1.45504e-05
6.38088e-05
-1.45938e-05
6.51167e-05
-1.4619e-05
6.64193e-05
-1.46252e-05
6.77145e-05
-1.46115e-05
6.90004e-05
-1.45773e-05
7.02751e-05
-1.45219e-05
7.15365e-05
-1.4445e-05
7.27827e-05
-1.43459e-05
7.40117e-05
-1.42245e-05
7.52214e-05
-1.40802e-05
7.64099e-05
-1.39129e-05
7.75752e-05
-1.37225e-05
7.87155e-05
-1.35087e-05
7.98289e-05
-1.32715e-05
8.09136e-05
-1.30109e-05
8.19679e-05
-1.27269e-05
8.29902e-05
-1.24195e-05
8.3979e-05
-1.2089e-05
8.49328e-05
-1.17354e-05
8.58505e-05
-1.13592e-05
8.67309e-05
-1.09606e-05
8.75732e-05
-1.054e-05
8.83765e-05
-1.00979e-05
8.91403e-05
-9.63486e-06
8.98643e-05
-9.15151e-06
9.05485e-05
-8.6486e-06
9.1193e-05
-8.12697e-06
9.17982e-05
-7.58758e-06
9.23649e-05
-7.0315e-06
9.28941e-05
-6.45994e-06
9.33871e-05
-5.87422e-06
9.38454e-05
-5.27582e-06
9.42709e-05
-4.66636e-06
9.46657e-05
-4.04759e-06
9.50321e-05
-3.42143e-06
9.53725e-05
-2.78992e-06
9.56894e-05
-2.15522e-06
9.59854e-05
-1.51959e-06
9.62631e-05
-8.85339e-07
9.65253e-05
-2.54583e-07
9.67737e-05
3.70529e-07
9.70099e-05
9.86634e-07
9.72349e-05
1.59128e-06
9.74498e-05
2.18227e-06
9.76551e-05
2.75771e-06
9.78507e-05
3.31593e-06
9.8036e-05
3.85555e-06
9.82101e-05
4.37567e-06
4.87661e-06
9.83717e-05
3.01723e-05
-1.92452e-06
3.05174e-05
-3.85785e-06
3.10202e-05
-5.54305e-06
3.1661e-05
-7.0076e-06
3.2421e-05
-8.26733e-06
3.32818e-05
-9.33647e-06
3.42265e-05
-1.02319e-05
3.52399e-05
-1.09729e-05
3.63084e-05
-1.15797e-05
3.74209e-05
-1.20731e-05
3.85678e-05
-1.24737e-05
3.97417e-05
-1.28008e-05
4.09369e-05
-1.30719e-05
4.2149e-05
-1.33022e-05
4.33751e-05
-1.35044e-05
4.46131e-05
-1.36883e-05
4.58617e-05
-1.38615e-05
4.71203e-05
-1.40291e-05
4.83882e-05
-1.41942e-05
4.96654e-05
-1.43585e-05
5.09516e-05
-1.45223e-05
5.22466e-05
-1.46851e-05
5.355e-05
-1.48456e-05
5.48613e-05
-1.50022e-05
5.618e-05
-1.5153e-05
5.75053e-05
-1.52962e-05
5.88361e-05
-1.54297e-05
6.01713e-05
-1.55518e-05
6.15097e-05
-1.56605e-05
6.28499e-05
-1.57544e-05
6.41902e-05
-1.5832e-05
6.55291e-05
-1.58918e-05
6.68648e-05
-1.59327e-05
6.81955e-05
-1.59536e-05
6.95194e-05
-1.59536e-05
7.08345e-05
-1.59319e-05
7.21389e-05
-1.58877e-05
7.34305e-05
-1.58204e-05
7.47075e-05
-1.57295e-05
7.59678e-05
-1.56145e-05
7.72093e-05
-1.54751e-05
7.84303e-05
-1.5311e-05
7.96286e-05
-1.51219e-05
8.08025e-05
-1.49078e-05
8.19501e-05
-1.46685e-05
8.30696e-05
-1.4404e-05
8.41595e-05
-1.41144e-05
8.5218e-05
-1.37998e-05
8.62437e-05
-1.34604e-05
8.72354e-05
-1.30965e-05
8.81917e-05
-1.27083e-05
8.91117e-05
-1.22964e-05
8.99945e-05
-1.18612e-05
9.08394e-05