/*--------------------------------*- C++ -*----------------------------------*\
  =========                 |
  \\      /  F ield         | OpenFOAM: The Open Source CFD Toolbox
   \\    /   O peration     | Website:  https://openfoam.org
    \\  /    A nd           | Version:  7
     \\/     M anipulation  |
\*---------------------------------------------------------------------------*/
FoamFile
{
    version     2.0;
    format      ascii;
    class       volScalarField;
    location    "1.56";
    object      T;
}
// * * * * * * * * * * * * * * * * * * * * * * * * * * * * * * * * * * * * * //

dimensions      [0 0 0 1 0 0 0];

internalField   nonuniform List<scalar> 
12013
(
300.021
300.065
300.111
300.159
300.21
300.264
300.322
300.384
300.45
300.52
300.596
300.676
300.763
300.855
300.953
301.058
301.17
301.289
301.415
301.55
301.693
301.844
302.004
302.174
302.354
302.544
302.744
302.956
303.179
303.415
303.663
303.924
304.2
304.49
304.796
305.118
305.457
305.814
306.19
306.587
307.005
307.446
307.911
308.402
308.92
309.468
310.046
310.658
311.306
311.991
312.717
313.486
314.302
315.168
316.087
317.064
318.102
319.207
320.383
321.635
322.97
324.394
325.914
327.538
329.274
331.133
333.123
335.258
337.551
340.018
342.675
345.545
348.651
352.026
355.705
359.739
364.193
369.16
374.78
381.292
389.149
300.021
300.065
300.111
300.159
300.21
300.264
300.322
300.384
300.45
300.52
300.596
300.676
300.763
300.855
300.953
301.058
301.17
301.289
301.415
301.55
301.693
301.844
302.004
302.174
302.354
302.544
302.744
302.956
303.179
303.415
303.663
303.925
304.2
304.49
304.796
305.118
305.457
305.814
306.191
306.587
307.005
307.446
307.911
308.402
308.92
309.468
310.046
310.658
311.305
311.99
312.716
313.485
314.301
315.166
316.085
317.061
318.099
319.203
320.377
321.629
322.962
324.384
325.902
327.524
329.257
331.111
333.097
335.226
337.512
339.969
342.615
345.469
348.556
351.904
355.548
359.531
363.909
368.754
374.162
380.25
387.123
300.021
300.065
300.111
300.159
300.21
300.264
300.322
300.384
300.45
300.52
300.596
300.676
300.762
300.855
300.953
301.058
301.17
301.289
301.415
301.55
301.693
301.844
302.004
302.174
302.354
302.544
302.744
302.956
303.179
303.415
303.663
303.925
304.2
304.491
304.796
305.118
305.457
305.815
306.191
306.588
307.006
307.447
307.912
308.402
308.92
309.468
310.046
310.658
311.305
311.989
312.715
313.483
314.298
315.163
316.08
317.055
318.091
319.193
320.366
321.614
322.945
324.363
325.876
327.492
329.218
331.063
333.039
335.155
337.425
339.862
342.482
345.305
348.35
351.642
355.211
359.09
363.318
367.938
372.993
378.504
384.428
300.021
300.065
300.111
300.159
300.21
300.264
300.322
300.384
300.45
300.52
300.596
300.676
300.762
300.854
300.953
301.058
301.169
301.288
301.415
301.55
301.692
301.844
302.004
302.174
302.354
302.544
302.745
302.956
303.18
303.415
303.664
303.925
304.201
304.491
304.797
305.119
305.458
305.815
306.192
306.588
307.006
307.447
307.912
308.403
308.921
309.468
310.046
310.657
311.303
311.987
312.712
313.479
314.293
315.156
316.072
317.045
318.079
319.177
320.346
321.59
322.915
324.327
325.832
327.438
329.153
330.985
332.943
335.038
337.282
339.687
342.267
345.038
348.017
351.224
354.68
358.407
362.426
366.755
371.398
376.331
381.478
300.021
300.065
300.111
300.159
300.21
300.264
300.322
300.384
300.45
300.52
300.595
300.676
300.762
300.854
300.953
301.057
301.169
301.288
301.415
301.55
301.692
301.844
302.004
302.174
302.354
302.544
302.745
302.957
303.18
303.416
303.664
303.926
304.201
304.492
304.797
305.12
305.459
305.816
306.192
306.589
307.007
307.448
307.913
308.403
308.921
309.468
310.045
310.656
311.301
311.984
312.708
313.474
314.286
315.147
316.06
317.03
318.06
319.154
320.317
321.555
322.872
324.274
325.768
327.36
329.058
330.869
332.803
334.868
337.075
339.435
341.959
344.659
347.549
350.643
353.953
357.491
361.263
365.27
369.494
373.899
378.414
300.021
300.065
300.111
300.159
300.21
300.264
300.322
300.384
300.45
300.52
300.595
300.676
300.762
300.854
300.952
301.057
301.169
301.288
301.415
301.549
301.692
301.844
302.004
302.174
302.354
302.544
302.745
302.957
303.18
303.416
303.665
303.926
304.202
304.493
304.798
305.121
305.46
305.817
306.194
306.59
307.008
307.449
307.913
308.404
308.921
309.467
310.044
310.654
311.298
311.98
312.702
313.466
314.275
315.133
316.043
317.008
318.033
319.121
320.277
321.505
322.811
324.201
325.679
327.252
328.928
330.712
332.613
334.639
336.798
339.099
341.55
344.161
346.942
349.898
353.037
356.362
359.868
363.546
367.372
371.308
375.3
300.021
300.065
300.11
300.159
300.21
300.264
300.322
300.383
300.449
300.52
300.595
300.676
300.762
300.854
300.952
301.057
301.169
301.288
301.415
301.549
301.692
301.844
302.004
302.174
302.354
302.544
302.745
302.957
303.181
303.417
303.665
303.927
304.203
304.494
304.8
305.122
305.461
305.819
306.195
306.592
307.009
307.45
307.914
308.404
308.921
309.466
310.042
310.651
311.294
311.974
312.693
313.455
314.261
315.115
316.02
316.979
317.997
319.076
320.222
321.439
322.731
324.104
325.562
327.111
328.758
330.508
332.368
334.344
336.444
338.672
341.037
343.543
346.195
348.997
351.948
355.046
358.282
361.641
365.098
368.621
372.168
300.021
300.065
300.11
300.159
300.21
300.264
300.322
300.383
300.449
300.519
300.595
300.675
300.761
300.853
300.952
301.057
301.168
301.288
301.414
301.549
301.692
301.844
302.004
302.174
302.354
302.545
302.746
302.958
303.181
303.417
303.666
303.928
304.204
304.495
304.801
305.123
305.463
305.82
306.196
306.593
307.011
307.451
307.915
308.404
308.92
309.464
310.039
310.646
311.287
311.965
312.681
313.439
314.241
315.09
315.989
316.941
317.95
319.019
320.152
321.354
322.628
323.98
325.413
326.933
328.544
330.252
332.063
333.98
336.008
338.153
340.418
342.805
345.317
347.952
350.706
353.575
356.545
359.601
362.722
365.88
369.044
300.021
300.065
300.11
300.158
300.209
300.264
300.321
300.383
300.449
300.519
300.594
300.675
300.761
300.853
300.951
301.056
301.168
301.287
301.414
301.548
301.692
301.843
302.004
302.174
302.354
302.545
302.746
302.958
303.182
303.418
303.667
303.929
304.205
304.496
304.802
305.125
305.464
305.822
306.198
306.594
307.012
307.451
307.915
308.403
308.918
309.462
310.035
310.64
311.278
311.953
312.666
313.419
314.215
315.058
315.949
316.892
317.889
318.945
320.063
321.247
322.499
323.825
325.228
326.713
328.282
329.941
331.693
333.542
335.491
337.542
339.696
341.955
344.317
346.778
349.334
351.976
354.692
357.467
360.282
363.117
365.946
300.021
300.065
300.11
300.158
300.209
300.263
300.321
300.382
300.448
300.518
300.594
300.674
300.76
300.852
300.951
301.055
301.167
301.286
301.413
301.548
301.691
301.843
302.004
302.174
302.354
302.545
302.746
302.958
303.183
303.419
303.668
303.93
304.207
304.498
304.804
305.126
305.466
305.823
306.2
306.596
307.013
307.452
307.914
308.402
308.916
309.457
310.028
310.631
311.266
311.937
312.645
313.393
314.182
315.017
315.898
316.83
317.814
318.854
319.953
321.115
322.342
323.637
325.005
326.448
327.97
329.572
331.259
333.032
334.892
336.84
338.877
341.001
343.208
345.495
347.855
350.278
352.755
355.271
357.81
360.356
362.891
300.021
300.064
300.11
300.158
300.209
300.263
300.32
300.382
300.448
300.518
300.593
300.673
300.759
300.851
300.95
301.055
301.166
301.286
301.412
301.547
301.69
301.842
302.003
302.174
302.354
302.545
302.746
302.959
303.183
303.42
303.669
303.931
304.208
304.499
304.805
305.128
305.467
305.825
306.201
306.596
307.013
307.451
307.913
308.399
308.911
309.451
310.019
310.618
311.25
311.916
312.618
313.359
314.14
314.965
315.835
316.753
317.721
318.743
319.82
320.956
322.153
323.414
324.741
326.137
327.604
329.145
330.759
332.449
334.214
336.055
337.969
339.955
342.008
344.122
346.292
348.508
350.762
353.04
355.33
357.62
359.893
300.021
300.064
300.11
300.158
300.208
300.262
300.32
300.381
300.447
300.517
300.592
300.672
300.758
300.85
300.949
301.054
301.165
301.285
301.411
301.546
301.69
301.842
302.003
302.173
302.354
302.545
302.746
302.959
303.183
303.42
303.67
303.932
304.209
304.5
304.807
305.129
305.469
305.826
306.201
306.597
307.012
307.45
307.91
308.395
308.904
309.441
310.006
310.602
311.228
311.889
312.584
313.317
314.088
314.901
315.758
316.66
317.609
318.609
319.661
320.768
321.931
323.152
324.434
325.779
327.186
328.658
330.196
331.798
333.464
335.194
336.984
338.831
340.731
342.679
344.668
346.69
348.736
350.798
352.864
354.924
356.966
300.021
300.064
300.109
300.157
300.208
300.262
300.319
300.38
300.446
300.516
300.591
300.671
300.757
300.849
300.947
301.052
301.164
301.283
301.41
301.545
301.688
301.84
302.002
302.172
302.353
302.544
302.746
302.959
303.183
303.42
303.67
303.933
304.21
304.501
304.808
305.13
305.469
305.826
306.201
306.596
307.01
307.446
307.905
308.387
308.895
309.428
309.99
310.58
311.201
311.854
312.541
313.264
314.024
314.824
315.664
316.548
317.476
318.451
319.475
320.548
321.673
322.852
324.084
325.372
326.716
328.116
329.572
331.084
332.649
334.266
335.932
337.643
339.396
341.184
343.003
344.844
346.701
348.565
350.429
352.284
354.12
300.021
300.064
300.109
300.157
300.207
300.261
300.318
300.379
300.445
300.515
300.59
300.67
300.756
300.848
300.946
301.05
301.162
301.281
301.408
301.543
301.687
301.839
302
302.171
302.352
302.543
302.745
302.958
303.183
303.42
303.67
303.933
304.21
304.501
304.808
305.13
305.469
305.825
306.199
306.593
307.006
307.441
307.898
308.377
308.881
309.411
309.967
310.552
311.166
311.811
312.489
313.2
313.947
314.731
315.553
316.416
317.32
318.268
319.259
320.297
321.38
322.512
323.692
324.92
326.197
327.522
328.894
330.313
331.776
333.282
334.826
336.406
338.018
339.656
341.315
342.99
344.673
346.359
348.041
349.712
351.365
300.021
300.064
300.109
300.156
300.207
300.26
300.317
300.378
300.443
300.513
300.588
300.668
300.754
300.846
300.944
301.048
301.16
301.279
301.406
301.541
301.685
301.837
301.998
302.169
302.35
302.541
302.744
302.957
303.182
303.419
303.669
303.932
304.209
304.5
304.807
305.129
305.467
305.822
306.196
306.588
307
307.432
307.886
308.363
308.863
309.388
309.939
310.516
311.122
311.758
312.424
313.123
313.855
314.621
315.423
316.263
317.14
318.057
319.014
320.012
321.052
322.134
323.258
324.424
325.631
326.88
328.168
329.495
330.857
332.254
333.681
335.135
336.613
338.111
339.623
341.144
342.67
344.194
345.713
347.219
348.708
300.021
300.063
300.108
300.156
300.206
300.259
300.316
300.377
300.442
300.511
300.586
300.666
300.752
300.843
300.941
301.046
301.157
301.277
301.403
301.538
301.682
301.834
301.996
302.167
302.348
302.539
302.741
302.955
303.18
303.417
303.667
303.93
304.207
304.498
304.804
305.125
305.463
305.818
306.19
306.58
306.99
307.42
307.871
308.343
308.839
309.358
309.902
310.472
311.069
311.693
312.347
313.031
313.746
314.492
315.272
316.086
316.935
317.819
318.739
319.696
320.689
321.719
322.785
323.887
325.025
326.196
327.401
328.637
329.901
331.193
332.508
333.843
335.197
336.563
337.939
339.321
340.703
342.082
343.454
344.814
346.157
300.021
300.063
300.108
300.155
300.205
300.258
300.315
300.375
300.44
300.509
300.584
300.663
300.749
300.84
300.938
301.043
301.154
301.273
301.4
301.535
301.678
301.831
301.992
302.163
302.344
302.536
302.738
302.951
303.176
303.414
303.663
303.926
304.203
304.494
304.799
305.12
305.456
305.81
306.18
306.569
306.976
307.403
307.849
308.317
308.807
309.32
309.856
310.417
311.003
311.616
312.255
312.923
313.619
314.344
315.1
315.886
316.704
317.553
318.434
319.347
320.292
321.269
322.277
323.315
324.382
325.478
326.6
327.748
328.918
330.109
331.319
332.543
333.78
335.026
336.278
337.532
338.785
340.033
341.273
342.501
343.715
300.021
300.063
300.107
300.154
300.204
300.256
300.313
300.373
300.438
300.507
300.581
300.66
300.745
300.837
300.934
301.039
301.15
301.269
301.395
301.53
301.674
301.826
301.987
302.158
302.339
302.531
302.733
302.946
303.171
303.408
303.658
303.92
304.197
304.487
304.791
305.111
305.446
305.798
306.166
306.552
306.956
307.379
307.821
308.284
308.767
309.272
309.8
310.35
310.925
311.523
312.147
312.797
313.472
314.175
314.905
315.662
316.447
317.26
318.101
318.969
319.865
320.788
321.737
322.711
323.71
324.731
325.774
326.837
327.918
329.014
330.124
331.245
332.375
333.51
334.649
335.788
336.923
338.054
339.176
340.286
341.384
300.02
300.062
300.106
300.153
300.202
300.255
300.311
300.371
300.435
300.504
300.577
300.656
300.741
300.832
300.93
301.034
301.145
301.263
301.39
301.524
301.668
301.82
301.981
302.152
302.333
302.524
302.726
302.939
303.164
303.4
303.65
303.912
304.187
304.476
304.78
305.098
305.431
305.781
306.146
306.529
306.929
307.348
307.785
308.241
308.717
309.214
309.731
310.27
310.831
311.415
312.022
312.652
313.306
313.984
314.686
315.413
316.164
316.939
317.739
318.562
319.409
320.278
321.169
322.081
323.012
323.962
324.929
325.912
326.908
327.916
328.934
329.959
330.99
332.025
333.06
334.094
335.125
336.149
337.165
338.171
339.164
300.02
300.062
300.105
300.151
300.2
300.252
300.308
300.368
300.431
300.5
300.573
300.652
300.736
300.827
300.924
301.027
301.138
301.257
301.383
301.517
301.66
301.812
301.973
302.143
302.324
302.515
302.716
302.929
303.153
303.389
303.638
303.899
304.173
304.461
304.763
305.079
305.411
305.757
306.12
306.499
306.894
307.307
307.738
308.187
308.655
309.142
309.648
310.175
310.721
311.289
311.877
312.487
313.118
313.77
314.444
315.139
315.855
316.593
317.351
318.129
318.927
319.743
320.577
321.429
322.296
323.177
324.072
324.979
325.896
326.822
327.755
328.692
329.633
330.576
331.518
332.457
333.393
334.322
335.243
336.155
337.055
300.02
300.061
300.104
300.15
300.198
300.25
300.305
300.364
300.427
300.495
300.568
300.646
300.73
300.82
300.917
301.02
301.13
301.248
301.374
301.508
301.65
301.801
301.962
302.132
302.312
302.502
302.703
302.915
303.139
303.374
303.621
303.881
304.154
304.44
304.74
305.054
305.382
305.726
306.084
306.459
306.849
307.256
307.68
308.12
308.579
309.055
309.549
310.062
310.593
311.143
311.712
312.3
312.907
313.533
314.177
314.84
315.522
316.221
316.937
317.671
318.421
319.186
319.965
320.759
321.564
322.381
323.209
324.045
324.888
325.738
326.592
327.449
328.308
329.167
330.024
330.879
331.728
332.572
333.408
334.235
335.052
300.02
300.06
300.103
300.148
300.196
300.247
300.302
300.36
300.423
300.49
300.562
300.64
300.723
300.813
300.908
301.011
301.121
301.238
301.363
301.496
301.638
301.789
301.948
302.118
302.297
302.486
302.686
302.897
303.12
303.354
303.6
303.858
304.129
304.412
304.71
305.021
305.345
305.685
306.039
306.407
306.792
307.191
307.607
308.039
308.486
308.951
309.432
309.93
310.444
310.976
311.525
312.09
312.672
313.27
313.885
314.516
315.162
315.824
316.5
317.19
317.893
318.609
319.336
320.074
320.821
321.578
322.341
323.112
323.887
324.667
325.449
326.233
327.017
327.8
328.581
329.358
330.131
330.898
331.658
332.409
333.151
300.02
300.059
300.101
300.146
300.193
300.244
300.297
300.355
300.417
300.484
300.555
300.632
300.715
300.803
300.898
301
301.109
301.225
301.35
301.482
301.623
301.772
301.931
302.099
302.278
302.466
302.665
302.874
303.095
303.327
303.571
303.827
304.095
304.376
304.67
304.977
305.297
305.632
305.98
306.343
306.72
307.111
307.518
307.939
308.376
308.827
309.294
309.776
310.273
310.786
311.313
311.855
312.412
312.983
313.568
314.166
314.778
315.402
316.038
316.686
317.344
318.012
318.69
319.375
320.069
320.768
321.473
322.182
322.895
323.611
324.327
325.044
325.76
326.475
327.187
327.895
328.598
329.295
329.986
330.67
331.344
300.019
300.058
300.1
300.143
300.19
300.24
300.293
300.349
300.411
300.476
300.547
300.623
300.704
300.792
300.886
300.987
301.095
301.21
301.333
301.464
301.604
301.752
301.91
302.076
302.253
302.44
302.637
302.844
303.063
303.292
303.534
303.787
304.052
304.329
304.619
304.921
305.236
305.565
305.907
306.262
306.631
307.013
307.41
307.82
308.244
308.682
309.133
309.598
310.077
310.569
311.075
311.593
312.124
312.667
313.223
313.789
314.367
314.955
315.552
316.159
316.775
317.398
318.028
318.664
319.306
319.953
320.603
321.256
321.912
322.568
323.225
323.881
324.535
325.187
325.837
326.482
327.122
327.757
328.386
329.008
329.622
300.019
300.057
300.098
300.141
300.186
300.235
300.287
300.343
300.403
300.467
300.537
300.612
300.692
300.779
300.871
300.971
301.077
301.191
301.313
301.443
301.58
301.727
301.883
302.048
302.222
302.407
302.601
302.806
303.022
303.249
303.486
303.736
303.996
304.269
304.554
304.851
305.16
305.482
305.816
306.163
306.522
306.895
307.28
307.678
308.088
308.511
308.946
309.394
309.853
310.325
310.808
311.302
311.807
312.322
312.848
313.383
313.927
314.48
315.04
315.608
316.182
316.763
317.349
317.939
318.533
319.13
319.73
320.331
320.934
321.536
322.138
322.738
323.337
323.932
324.525
325.113
325.697
326.275
326.848
327.414
327.973
300.018
300.056
300.095
300.137
300.182
300.229
300.28
300.335
300.394
300.457
300.526
300.599
300.678
300.763
300.854
300.952
301.057
301.169
301.289
301.416
301.552
301.697
301.85
302.012
302.184
302.366
302.557
302.759
302.971
303.194
303.427
303.672
303.928
304.195
304.474
304.764
305.066
305.379
305.705
306.042
306.391
306.752
307.125
307.509
307.905
308.312
308.73
309.159
309.599
310.048
310.509
310.978
311.457
311.945
312.441
312.945
313.456
313.975
314.499
315.029
315.565
316.105
316.648
317.195
317.745
318.296
318.849
319.402
319.956
320.508
321.06
321.61
322.157
322.701
323.242
323.778
324.31
324.837
325.359
325.874
326.383
300.018
300.054
300.093
300.133
300.177
300.223
300.273
300.326
300.384
300.445
300.512
300.584
300.661
300.744
300.834
300.93
301.032
301.142
301.26
301.385
301.518
301.66
301.81
301.969
302.138
302.316
302.503
302.701
302.908
303.126
303.355
303.593
303.843
304.104
304.375
304.657
304.951
305.255
305.571
305.897
306.234
306.583
306.941
307.311
307.691
308.081
308.481
308.89
309.309
309.737
310.173
310.618
311.071
311.531
311.998
312.471
312.951
313.435
313.925
314.419
314.917
315.419
315.922
316.428
316.936
317.445
317.954
318.462
318.971
319.478
319.983
320.486
320.986
321.483
321.976
322.466
322.95
323.43
323.905
324.374
324.838
300.017
300.053
300.09
300.129
300.171
300.216
300.264
300.316
300.372
300.432
300.497
300.566
300.642
300.723
300.81
300.903
301.003
301.111
301.225
301.347
301.477
301.615
301.762
301.917
302.082
302.255
302.438
302.63
302.832
303.044
303.266
303.498
303.74
303.993
304.256
304.529
304.812
305.106
305.41
305.724
306.048
306.382
306.726
307.08
307.442
307.814
308.195
308.584
308.981
309.386
309.798
310.217
310.643
311.076
311.513
311.957
312.404
312.857
313.313
313.772
314.234
314.698
315.164
315.631
316.099
316.567
317.035
317.502
317.968
318.433
318.895
319.354
319.811
320.264
320.714
321.16
321.601
322.038
322.469
322.896
323.317
300.017
300.05
300.086
300.124
300.165
300.208
300.254
300.304
300.358
300.416
300.479
300.546
300.619
300.698
300.782
300.872
300.97
301.073
301.184
301.303
301.429
301.563
301.705
301.856
302.015
302.183
302.36
302.546
302.741
302.946
303.16
303.384
303.617
303.86
304.113
304.375
304.648
304.929
305.22
305.52
305.83
306.148
306.476
306.811
307.156
307.508
307.868
308.235
308.609
308.991
309.378
309.771
310.17
310.574
310.983
311.396
311.812
312.232
312.655
313.08
313.507
313.935
314.365
314.795
315.225
315.655
316.083
316.511
316.937
317.361
317.783
318.202
318.618
319.031
319.44
319.845
320.246
320.642
321.034
321.42
321.802
300.016
300.048
300.082
300.119
300.157
300.199
300.243
300.291
300.343
300.398
300.459
300.523
300.593
300.669
300.75
300.837
300.931
301.031
301.137
301.251
301.373
301.502
301.638
301.783
301.936
302.098
302.267
302.446
302.633
302.83
303.035
303.249
303.472
303.704
303.945
304.195
304.454
304.722
304.998
305.283
305.576
305.877
306.187
306.503
306.827
307.158
307.496
307.841
308.191
308.547
308.909
309.275
309.646
310.022
310.401
310.783
311.168
311.556
311.945
312.337
312.729
313.123
313.516
313.91
314.303
314.696
315.087
315.477
315.865
316.251
316.634
317.015
317.392
317.766
318.137
318.503
318.866
319.224
319.578
319.927
320.272
300.015
300.046
300.078
300.112
300.149
300.188
300.231
300.276
300.325
300.378
300.436
300.498
300.564
300.636
300.714
300.797
300.886
300.982
301.083
301.192
301.308
301.431
301.561
301.699
301.845
301.999
302.16
302.33
302.508
302.694
302.889
303.092
303.303
303.523
303.751
303.987
304.231
304.483
304.743
305.01
305.285
305.567
305.857
306.152
306.455
306.763
307.078
307.397
307.723
308.052
308.387
308.725
309.068
309.413
309.762
310.113
310.466
310.821
311.178
311.535
311.894
312.252
312.611
312.969
313.326
313.682
314.037
314.39
314.741
315.089
315.435
315.779
316.119
316.456
316.789
317.119
317.445
317.767
318.084
318.398
318.707
300.014
300.043
300.073
300.106
300.14
300.177
300.217
300.26
300.306
300.356
300.411
300.469
300.532
300.6
300.673
300.752
300.836
300.926
301.023
301.125
301.235
301.351
301.474
301.604
301.741
301.886
302.038
302.198
302.365
302.54
302.722
302.913
303.11
303.316
303.529
303.749
303.976
304.211
304.453
304.701
304.956
305.217
305.485
305.758
306.037
306.321
306.61
306.904
307.202
307.504
307.81
308.12
308.432
308.747
309.064
309.383
309.704
310.026
310.348
310.672
310.995
311.319
311.642
311.964
312.286
312.606
312.924
313.24
313.555
313.867
314.176
314.483
314.787
315.088
315.385
315.679
315.969
316.256
316.538
316.817
317.091
300.013
300.04
300.068
300.098
300.131
300.165
300.202
300.242
300.286
300.332
300.383
300.438
300.497
300.56
300.628
300.702
300.781
300.865
300.955
301.051
301.153
301.261
301.376
301.497
301.625
301.76
301.901
302.049
302.205
302.367
302.536
302.712
302.894
303.084
303.28
303.483
303.692
303.907
304.129
304.356
304.589
304.828
305.072
305.321
305.575
305.833
306.095
306.361
306.631
306.904
307.18
307.459
307.74
308.023
308.308
308.594
308.881
309.169
309.457
309.746
310.034
310.322
310.61
310.896
311.181
311.465
311.747
312.027
312.305
312.581
312.854
313.125
313.393
313.658
313.92
314.178
314.433
314.685
314.933
315.178
315.419
300.012
300.037
300.063
300.091
300.12
300.152
300.186
300.223
300.263
300.307
300.353
300.404
300.458
300.517
300.58
300.648
300.721
300.799
300.882
300.97
301.064
301.164
301.269
301.381
301.498
301.621
301.751
301.887
302.029
302.177
302.331
302.491
302.657
302.829
303.007
303.191
303.381
303.575
303.775
303.98
304.19
304.404
304.623
304.846
305.073
305.304
305.538
305.775
306.015
306.258
306.503
306.75
306.999
307.249
307.5
307.752
308.005
308.258
308.512
308.765
309.018
309.27
309.521
309.771
310.02
310.268
310.514
310.757
310.999
311.239
311.476
311.711
311.943
312.172
312.399
312.622
312.843
313.061
313.275
313.486
313.694
300.011
300.034
300.057
300.083
300.11
300.139
300.17
300.204
300.24
300.28
300.322
300.368
300.418
300.472
300.529
300.591
300.657
300.728
300.804
300.884
300.969
301.06
301.155
301.256
301.362
301.474
301.591
301.713
301.841
301.973
302.112
302.255
302.404
302.558
302.717
302.88
303.048
303.221
303.398
303.58
303.765
303.954
304.147
304.343
304.542
304.745
304.949
305.157
305.366
305.578
305.791
306.005
306.221
306.438
306.655
306.873
307.091
307.309
307.527
307.745
307.962
308.178
308.393
308.607
308.82
309.031
309.241
309.449
309.654
309.858
310.06
310.259
310.456
310.651
310.843
311.032
311.219
311.403
311.584
311.763
311.939
300.01
300.03
300.052
300.074
300.099
300.125
300.153
300.184
300.217
300.252
300.291
300.332
300.377
300.425
300.477
300.533
300.592
300.656
300.723
300.795
300.872
300.952
301.038
301.128
301.222
301.321
301.425
301.533
301.646
301.763
301.885
302.011
302.142
302.277
302.416
302.559
302.705
302.856
303.01
303.167
303.327
303.491
303.657
303.826
303.997
304.171
304.346
304.523
304.702
304.882
305.063
305.245
305.428
305.612
305.796
305.98
306.163
306.347
306.53
306.713
306.895
307.075
307.255
307.434
307.611
307.787
307.962
308.134
308.305
308.474
308.641
308.807
308.97
309.131
309.289
309.446
309.6
309.752
309.902
310.05
310.195
300.009
300.027
300.046
300.067
300.088
300.112
300.137
300.164
300.194
300.225
300.26
300.297
300.337
300.379
300.426
300.475
300.528
300.584
300.644
300.707
300.775
300.846
300.921
301
301.082
301.169
301.26
301.354
301.452
301.554
301.66
301.769
301.881
301.997
302.117
302.239
302.365
302.493
302.624
302.758
302.894
303.032
303.173
303.315
303.459
303.604
303.751
303.899
304.049
304.198
304.349
304.5
304.652
304.803
304.955
305.106
305.257
305.408
305.558
305.707
305.855
306.003
306.149
306.295
306.439
306.582
306.723
306.863
307.001
307.137
307.272
307.405
307.537
307.667
307.794
307.92
308.044
308.167
308.287
308.405
308.521
300.008
300.024
300.041
300.059
300.078
300.099
300.122
300.146
300.172
300.2
300.231
300.263
300.299
300.337
300.377
300.421
300.467
300.516
300.569
300.625
300.683
300.745
300.811
300.879
300.951
301.026
301.104
301.185
301.269
301.357
301.447
301.54
301.636
301.734
301.835
301.939
302.044
302.152
302.262
302.374
302.487
302.602
302.719
302.836
302.955
303.075
303.196
303.317
303.439
303.561
303.684
303.807
303.929
304.052
304.174
304.296
304.417
304.538
304.658
304.777
304.896
305.013
305.13
305.245
305.359
305.472
305.584
305.694
305.803
305.911
306.017
306.122
306.225
306.327
306.427
306.525
306.622
306.718
306.811
306.903
306.994
300.007
300.021
300.037
300.053
300.07
300.089
300.108
300.13
300.153
300.178
300.205
300.234
300.266
300.299
300.335
300.373
300.414
300.458
300.504
300.552
300.604
300.658
300.714
300.774
300.836
300.9
300.968
301.037
301.11
301.184
301.261
301.34
301.422
301.505
301.59
301.677
301.766
301.856
301.947
302.04
302.134
302.229
302.325
302.422
302.519
302.617
302.716
302.814
302.913
303.012
303.111
303.21
303.308
303.406
303.503
303.601
303.697
303.793
303.888
303.982
304.075
304.168
304.259
304.349
304.438
304.527
304.614
304.699
304.784
304.867
304.95
305.03
305.11
305.188
305.265
305.341
305.415
305.488
305.56
305.63
305.698
300.006
300.019
300.033
300.048
300.063
300.08
300.098
300.118
300.139
300.162
300.186
300.212
300.24
300.27
300.303
300.337
300.374
300.412
300.453
300.497
300.542
300.59
300.64
300.693
300.748
300.804
300.863
300.924
300.987
301.052
301.119
301.188
301.258
301.329
301.403
301.477
301.553
301.629
301.707
301.786
301.865
301.945
302.026
302.107
302.188
302.27
302.351
302.433
302.515
302.596
302.677
302.758
302.838
302.918
302.997
303.076
303.154
303.231
303.308
303.383
303.458
303.532
303.604
303.676
303.747
303.817
303.886
303.953
304.02
304.085
304.15
304.213
304.275
304.336
304.396
304.454
304.512
304.568
304.623
304.677
304.73
300.006
300.018
300.031
300.045
300.06
300.076
300.093
300.111
300.131
300.152
300.175
300.2
300.226
300.254
300.284
300.316
300.35
300.387
300.425
300.465
300.508
300.552
300.598
300.647
300.697
300.75
300.804
300.86
300.918
300.977
301.038
301.101
301.165
301.23
301.296
301.364
301.432
301.501
301.571
301.642
301.713
301.785
301.857
301.929
302.002
302.074
302.147
302.219
302.291
302.362
302.434
302.505
302.575
302.645
302.714
302.783
302.85
302.917
302.983
303.049
303.113
303.177
303.239
303.301
303.361
303.421
303.48
303.537
303.594
303.649
303.704
303.757
303.809
303.86
303.911
303.96
304.008
304.055
304.1
304.145
304.189
399.52
407.613
414.398
420.283
425.471
430.071
434.144
437.722
440.818
443.433
445.552
447.154
448.202
448.648
448.428
447.452
445.594
442.663
438.335
431.961
421.905
414.869
409.308
404.617
400.506
396.814
393.438
390.311
387.383
384.619
381.992
379.482
377.07
374.745
372.494
370.309
368.182
366.106
364.077
362.091
360.144
358.234
356.36
354.52
352.714
350.942
349.204
347.501
345.834
344.204
342.611
341.057
339.542
338.069
336.636
335.246
333.899
332.595
331.334
330.116
328.941
327.809
326.718
325.669
324.66
323.691
322.76
321.866
321.008
320.184
319.394
318.635
317.907
317.208
316.536
315.891
315.271
314.675
314.102
313.55
313.018
312.506
312.013
311.537
311.077
310.634
310.205
309.791
309.391
309.004
308.63
308.268
307.917
307.578
307.25
306.932
306.625
306.328
306.04
305.761
305.492
305.232
304.98
304.737
304.502
304.275
304.056
303.845
303.642
303.446
303.257
303.076
302.902
302.735
302.574
302.42
302.273
302.132
301.998
301.869
301.747
301.63
301.519
301.414
301.314
301.219
301.129
301.045
300.965
300.89
300.819
300.752
300.69
300.632
300.577
300.526
300.479
300.435
300.394
300.357
300.322
300.29
300.26
300.233
300.208
300.186
300.165
300.146
300.129
300.114
300.1
300.088
300.077
300.067
300.058
300.05
300.044
300.037
300.032
300.027
300.023
394.757
401.817
408.14
413.788
418.84
423.358
427.378
430.924
434.003
436.609
438.731
440.342
441.409
441.885
441.709
440.8
439.047
436.301
432.351
426.938
420.03
413.96
408.774
404.263
400.254
396.624
393.291
390.193
387.287
384.539
381.925
379.425
377.021
374.702
372.457
370.276
368.153
366.08
364.054
362.07
360.124
358.216
356.342
354.503
352.698
350.926
349.189
347.486
345.819
344.189
342.596
341.043
339.528
338.055
336.623
335.234
333.887
332.583
331.322
330.105
328.93
327.799
326.709
325.66
324.652
323.683
322.752
321.859
321.001
320.178
319.388
318.63
317.902
317.203
316.532
315.887
315.268
314.672
314.099
313.547
313.016
312.504
312.011
311.535
311.076
310.632
310.204
309.79
309.39
309.003
308.629
308.267
307.917
307.578
307.25
306.932
306.625
306.327
306.039
305.761
305.492
305.231
304.98
304.737
304.502
304.275
304.056
303.845
303.642
303.446
303.257
303.076
302.902
302.735
302.574
302.42
302.273
302.132
301.998
301.869
301.747
301.63
301.519
301.414
301.314
301.219
301.13
301.045
300.965
300.89
300.819
300.753
300.69
300.632
300.577
300.526
300.479
300.435
300.394
300.357
300.322
300.29
300.26
300.233
300.208
300.186
300.165
300.146
300.129
300.114
300.1
300.088
300.077
300.067
300.058
300.05
300.044
300.037
300.032
300.027
300.023
390.633
396.702
402.403
407.657
412.454
416.801
420.707
424.177
427.208
429.791
431.908
433.533
434.635
435.168
435.079
434.3
432.748
430.327
426.937
422.543
417.375
412.335
407.714
403.527
399.716
396.217
392.972
389.938
387.079
384.367
381.781
379.302
376.916
374.611
372.377
370.206
368.09
366.024
364.003
362.023
360.081
358.176
356.305
354.467
352.663
350.893
349.157
347.455
345.789
344.159
342.567
341.014
339.501
338.028
336.597
335.208
333.862
332.56
331.3
330.084
328.91
327.779
326.691
325.643
324.636
323.668
322.739
321.846
320.989
320.167
319.378
318.621
317.894
317.196
316.525
315.881
315.262