/*--------------------------------*- C++ -*----------------------------------*\
  =========                 |
  \\      /  F ield         | OpenFOAM: The Open Source CFD Toolbox
   \\    /   O peration     | Website:  https://openfoam.org
    \\  /    A nd           | Version:  7
     \\/     M anipulation  |
\*---------------------------------------------------------------------------*/
FoamFile
{
    version     2.0;
    format      ascii;
    class       volScalarField;
    location    "4.13";
    object      T;
}
// * * * * * * * * * * * * * * * * * * * * * * * * * * * * * * * * * * * * * //

dimensions      [0 0 0 1 0 0 0];

internalField   nonuniform List<scalar> 
12013
(
300.04
300.121
300.205
300.29
300.378
300.467
300.558
300.649
300.742
300.835
300.928
301.023
301.117
301.212
301.308
301.404
301.5
301.597
301.694
301.792
301.891
301.991
302.092
302.194
302.298
302.404
302.512
302.623
302.736
302.854
302.975
303.101
303.232
303.369
303.513
303.665
303.824
303.994
304.173
304.365
304.569
304.788
305.022
305.274
305.546
305.839
306.155
306.497
306.867
307.268
307.702
308.174
308.685
309.24
309.842
310.496
311.207
311.978
312.817
313.727
314.717
315.792
316.96
318.229
319.61
321.11
322.743
324.521
326.457
328.569
330.875
333.397
336.162
339.201
342.554
346.272
350.422
355.1
360.45
366.712
374.349
300.04
300.121
300.205
300.291
300.378
300.467
300.558
300.649
300.742
300.835
300.929
301.023
301.118
301.213
301.308
301.404
301.501
301.597
301.695
301.793
301.892
301.991
302.092
302.195
302.299
302.405
302.513
302.624
302.737
302.855
302.976
303.102
303.233
303.371
303.514
303.666
303.825
303.994
304.174
304.365
304.57
304.788
305.023
305.275
305.547
305.839
306.155
306.497
306.867
307.268
307.702
308.173
308.683
309.238
309.84
310.493
311.203
311.974
312.811
313.72
314.708
315.781
316.947
318.214
319.591
321.088
322.716
324.488
326.417
328.52
330.815
333.322
336.068
339.081
342.399
346.066
350.141
354.699
359.837
365.679
372.332
300.04
300.121
300.205
300.291
300.379
300.468
300.558
300.65
300.743
300.836
300.93
301.024
301.119
301.214
301.31
301.406
301.502
301.599
301.696
301.795
301.893
301.993
302.094
302.197
302.301
302.407
302.515
302.626
302.74
302.857
302.978
303.104
303.236
303.373
303.517
303.668
303.827
303.997
304.176
304.367
304.572
304.79
305.024
305.276
305.548
305.84
306.156
306.497
306.867
307.267
307.7
308.17
308.68
309.233
309.834
310.486
311.194
311.963
312.798
313.705
314.689
315.758
316.919
318.181
319.551
321.039
322.657
324.416
326.33
328.413
330.682
333.158
335.863
338.822
342.066
345.63
349.557
353.892
358.68
363.948
369.654
300.04
300.121
300.205
300.291
300.379
300.469
300.559
300.651
300.744
300.837
300.931
301.026
301.121
301.216
301.312
301.408
301.505
301.602
301.699
301.797
301.896
301.996
302.098
302.2
302.304
302.41
302.519
302.629
302.743
302.861
302.982
303.108
303.239
303.377
303.52
303.671
303.831
304
304.179
304.371
304.574
304.793
305.027
305.278
305.549
305.841
306.157
306.497
306.866
307.265
307.697
308.166
308.675
309.226
309.825
310.475
311.18
311.945
312.776
313.678
314.657
315.72
316.873
318.125
319.484
320.958
322.559
324.298
326.186
328.238
330.468
332.894
335.534
338.409
341.542
344.957
348.677
352.724
357.103
361.795
366.726
300.04
300.122
300.206
300.292
300.38
300.47
300.561
300.653
300.746
300.839
300.933
301.028
301.123
301.219
301.315
301.411
301.508
301.605
301.703
301.802
301.901
302.001
302.102
302.205
302.309
302.415
302.524
302.635
302.749
302.866
302.988
303.114
303.245
303.382
303.526
303.677
303.836
304.005
304.184
304.375
304.579
304.797
305.031
305.282
305.552
305.843
306.158
306.497
306.865
307.263
307.693
308.16
308.667
309.216
309.812
310.458
311.159
311.92
312.745
313.64
314.611
315.664
316.806
318.044
319.386
320.841
322.418
324.127
325.979
327.986
330.161
332.518
335.071
337.835
340.825
344.053
347.531
351.258
355.222
359.388
363.689
300.04
300.122
300.206
300.293
300.381
300.471
300.563
300.655
300.748
300.842
300.937
301.032
301.127
301.223
301.319
301.416
301.513
301.611
301.709
301.808
301.907
302.007
302.109
302.212
302.316
302.423
302.531
302.642
302.756
302.874
302.995
303.121
303.253
303.39
303.533
303.684
303.844
304.012
304.191
304.382
304.585
304.802
305.036
305.286
305.555
305.846
306.159
306.497
306.863
307.259
307.688
308.152
308.656
309.201
309.793
310.434
311.13
311.884
312.701
313.587
314.547
315.587
316.714
317.933
319.253
320.682
322.227
323.897
325.702
327.652
329.757
332.026
334.471
337.101
339.923
342.941
346.156
349.558
353.127
356.827
360.605
300.04
300.123
300.207
300.294
300.383
300.473
300.565
300.658
300.751
300.846
300.941
301.036
301.132
301.229
301.325
301.422
301.52
301.618
301.716
301.815
301.915
302.016
302.118
302.221
302.325
302.432
302.541
302.652
302.766
302.884
303.006
303.132
303.263
303.4
303.543
303.694
303.853
304.022
304.2
304.39
304.593
304.81
305.042
305.292
305.56
305.849
306.161
306.498
306.861
307.255
307.681
308.142
308.641
309.182
309.769
310.404
311.092
311.837
312.644
313.518
314.464
315.487
316.594
317.789
319.081
320.476
321.981
323.603
325.35
327.23
329.25
331.416
333.737
336.214
338.852
341.648
344.596
347.682
350.885
354.174
357.509
300.041
300.123
300.208
300.296
300.385
300.476
300.568
300.661
300.756
300.851
300.946
301.042
301.139
301.236
301.333
301.431
301.529
301.627
301.726
301.825
301.926
302.027
302.129
302.232
302.337
302.444
302.553
302.665
302.779
302.897
303.019
303.145
303.276
303.413
303.556
303.707
303.866
304.034
304.212
304.402
304.604
304.82
305.051
305.299
305.566
305.854
306.163
306.498
306.859
307.249
307.672
308.128
308.623
309.158
309.738
310.365
311.043
311.778
312.572
313.431
314.359
315.361
316.443
317.609
318.867
320.221
321.677
323.241
324.92
326.718
328.641
330.692
332.874
335.189
337.633
340.204
342.89
345.677
348.547
351.472
354.425
300.041
300.124
300.21
300.298
300.388
300.479
300.572
300.666
300.761
300.857
300.953
301.05
301.147
301.245
301.343
301.441
301.54
301.639
301.738
301.838
301.939
302.041
302.143
302.247
302.353
302.46
302.569
302.681
302.796
302.914
303.035
303.162
303.293
303.43
303.573
303.723
303.882
304.049
304.227
304.416
304.617
304.832
305.062
305.309
305.574
305.859
306.167
306.498
306.856
307.242
307.66
308.112
308.6
309.128
309.699
310.316
310.983
311.704
312.483
313.323
314.23
315.206
316.259
317.39
318.607
319.913
321.313
322.811
324.412
326.118
327.934
329.86
331.896
334.041
336.291
338.639
341.074
343.584
346.151
348.755
351.373
300.041
300.125
300.212
300.3
300.391
300.483
300.577
300.672
300.768
300.864
300.962
301.059
301.157
301.256
301.355
301.454
301.553
301.653
301.753
301.854
301.956
302.058
302.161
302.266
302.372
302.479
302.589
302.701
302.816
302.934
303.056
303.183
303.314
303.451
303.594
303.744
303.902
304.069
304.246
304.434
304.634
304.847
305.076
305.321
305.584
305.867
306.171
306.499
306.853
307.234
307.646
308.091
308.572
309.091
309.652
310.257
310.911
311.616
312.375
313.194
314.075
315.022
316.039
317.131
318.3
319.552
320.888
322.312
323.828
325.435
327.136
328.931
330.817
332.791
334.849
336.983
339.183
341.436
343.73
346.048
348.372
300.042
300.126
300.214
300.304
300.395
300.489
300.583
300.679
300.776
300.874
300.972
301.071
301.17
301.27
301.37
301.47
301.57
301.671
301.772
301.874
301.976
302.079
302.183
302.288
302.395
302.503
302.614
302.726
302.841
302.96
303.082
303.208
303.34
303.476
303.619
303.769
303.926
304.093
304.269
304.456
304.654
304.866
305.093
305.336
305.596
305.876
306.176
306.5
306.849
307.225
307.63
308.068
308.539
309.048
309.597
310.188
310.825
311.511
312.248
313.041
313.893
314.806
315.784
316.83
317.947
319.138
320.405
321.749
323.173
324.676
326.258
327.919
329.654
331.461
333.333
335.264
337.244
339.264
341.311
343.373
345.437
300.042
300.128
300.217
300.307
300.4
300.495
300.591
300.688
300.786
300.885
300.985
301.085
301.186
301.287
301.388
301.489
301.591
301.693
301.795
301.898
302.001
302.105
302.21
302.316
302.424
302.533
302.643
302.757
302.872
302.991
303.114
303.24
303.371
303.508
303.65
303.8
303.956
304.122
304.297
304.482
304.68
304.89
305.114
305.354
305.611
305.887
306.184
306.503
306.845
307.215
307.612
308.04
308.501
308.998
309.532
310.107
310.725
311.389
312.102
312.866
313.684
314.559
315.494
316.489
317.549
318.674
319.867
321.127
322.455
323.85
325.313
326.839
328.427
330.071
331.767
333.507
335.285
337.091
338.916
340.75
342.584
300.043
300.13
300.22
300.312
300.406
300.503
300.6
300.699
300.799
300.899
301.001
301.102
301.205
301.307
301.41
301.513
301.616
301.719
301.823
301.927
302.032
302.137
302.243
302.35
302.458
302.568
302.68
302.793
302.91
303.029
303.152
303.278
303.409
303.546
303.688
303.837
303.993
304.158
304.331
304.515
304.711
304.919
305.14
305.377
305.631
305.902
306.194
306.506
306.842
307.204
307.592
308.01
308.458
308.941
309.459
310.015
310.612
311.252
311.936
312.668
313.45
314.283
315.169
316.111
317.11
318.166
319.28
320.453
321.684
322.971
324.314
325.709
327.154
328.644
330.173
331.737
333.329
334.941
336.567
338.197
339.825
300.044
300.132
300.224
300.318
300.414
300.512
300.611
300.712
300.814
300.916
301.02
301.123
301.227
301.332
301.436
301.541
301.646
301.751
301.857
301.963
302.069
302.175
302.283
302.391
302.5
302.611
302.724
302.838
302.955
303.075
303.198
303.325
303.456
303.592
303.734
303.882
304.037
304.201
304.373
304.555
304.748
304.954
305.172
305.405
305.655
305.921
306.207
306.513
306.841
307.193
307.571
307.976
308.411
308.878
309.378
309.913
310.486
311.099
311.752
312.449
313.191
313.979
314.815
315.7
316.634
317.619
318.653
319.738
320.871
322.052
323.278
324.547
325.855
327.199
328.574
329.975
331.397
332.834
334.28
335.729
337.174
300.044
300.135
300.229
300.325
300.423
300.523
300.625
300.728
300.832
300.937
301.042
301.148
301.255
301.361
301.468
301.575
301.683
301.79
301.897
302.005
302.113
302.221
302.33
302.44
302.55
302.662
302.776
302.891
303.009
303.129
303.253
303.38
303.511
303.647
303.789
303.936
304.091
304.253
304.423
304.603
304.794
304.996
305.211
305.44
305.685
305.946
306.224
306.523
306.842
307.184
307.55
307.942
308.361
308.81
309.29
309.803
310.35
310.933
311.553
312.212
312.912
313.653
314.436
315.261
316.13
317.042
317.997
318.993
320.031
321.107
322.221
323.37
324.549
325.757
326.99
328.242
329.51
330.789
332.074
333.36
334.642
300.046
300.138
300.234
300.333
300.433
300.536
300.641
300.746
300.853
300.961
301.069
301.178
301.287
301.397
301.507
301.616
301.726
301.836
301.945
302.055
302.165
302.276
302.387
302.498
302.61
302.724
302.839
302.955
303.074
303.195
303.319
303.446
303.578
303.713
303.854
304.001
304.154
304.315
304.484
304.662
304.85
305.048
305.259
305.484
305.722
305.977
306.248
306.538
306.847
307.177
307.531
307.908
308.31
308.74
309.198
309.686
310.205
310.756
311.342
311.962
312.617
313.309
314.038
314.803
315.606
316.445
317.321
318.231
319.176
320.153
321.16
322.195
323.255
324.337
325.439
326.555
327.684
328.821
329.961
331.102
332.24
300.047
300.142
300.241
300.342
300.446
300.552
300.659
300.768
300.879
300.99
301.102
301.214
301.326
301.439
301.552
301.665
301.778
301.89
302.003
302.115
302.228
302.341
302.454
302.568
302.682
302.797
302.913
303.031
303.151
303.273
303.398
303.525
303.657
303.793
303.933
304.079
304.231
304.39
304.557
304.732
304.917
305.112
305.318
305.537
305.77
306.017
306.28
306.56
306.858
307.176
307.515
307.876
308.261
308.67
309.104
309.566
310.056
310.575
311.123
311.702
312.313
312.955
313.629
314.334
315.072
315.84
316.638
317.466
318.322
319.204
320.111
321.04
321.99
322.957
323.939
324.933
325.935
326.944
327.956
328.968
329.977
300.048
300.147
300.249
300.354
300.461
300.571
300.682
300.795
300.909
301.024
301.14
301.256
301.373
301.489
301.606
301.722
301.839
301.955
302.071
302.187
302.302
302.418
302.534
302.65
302.767
302.884
303.002
303.122
303.243
303.366
303.491
303.619
303.751
303.887
304.027
304.172
304.322
304.48
304.644
304.816
304.998
305.189
305.39
305.603
305.829
306.068
306.323
306.592
306.879
307.184
307.507
307.851
308.216
308.603
309.014
309.448
309.907
310.392
310.904
311.442
312.007
312.599
313.219
313.865
314.539
315.238
315.963
316.712
317.484
318.277
319.091
319.922
320.77
321.632
322.506
323.389
324.279
325.173
326.07
326.967
327.861
300.05
300.153
300.258
300.367
300.479
300.593
300.709
300.826
300.945
301.065
301.185
301.306
301.427
301.549
301.67
301.791
301.911
302.032
302.152
302.271
302.391
302.51
302.629
302.748
302.867
302.987
303.107
303.228
303.351
303.476
303.602
303.731
303.863
303.999
304.138
304.282
304.432
304.587
304.749
304.918
305.096
305.282
305.478
305.685
305.904
306.135
306.379
306.638
306.912
307.203
307.51
307.836
308.181
308.545
308.931
309.337
309.765
310.216
310.69
311.187
311.707
312.25
312.817
313.407
314.019
314.652
315.307
315.982
316.676
317.387
318.114
318.857
319.612
320.378
321.154
321.937
322.726
323.519
324.313
325.107
325.899
300.052
300.159
300.27
300.383
300.5
300.619
300.74
300.863
300.987
301.113
301.239
301.365
301.492
301.619
301.745
301.871
301.997
302.122
302.247
302.371
302.495
302.618
302.74
302.863
302.985
303.108
303.231
303.355
303.479
303.606
303.733
303.863
303.996
304.131
304.27
304.414
304.562
304.715
304.874
305.041
305.214
305.396
305.586
305.787
305.997
306.22
306.454
306.701
306.962
307.238
307.529
307.836
308.16
308.502
308.862
309.24
309.637
310.054
310.491
310.947
311.424
311.92
312.436
312.971
313.524
314.096
314.685
315.291
315.912
316.548
317.197
317.858
318.529
319.209
319.897
320.591
321.29
321.991
322.694
323.397
324.099
300.055
300.167
300.283
300.402
300.525
300.65
300.778
300.907
301.038
301.169
301.302
301.435
301.568
301.702
301.834
301.967
302.098
302.229
302.36
302.489
302.617
302.745
302.872
302.999
303.125
303.251
303.378
303.504
303.631
303.759
303.888
304.019
304.153
304.288
304.427
304.57
304.717
304.868
305.025
305.187
305.357
305.534
305.718
305.912
306.115
306.328
306.551
306.787
307.034
307.295
307.569
307.858
308.161
308.48
308.814
309.164
309.531
309.915
310.315
310.733
311.167
311.618
312.086
312.569
313.068
313.582
314.111
314.653
315.208
315.774
316.352
316.939
317.535
318.138
318.747
319.361
319.979
320.6
321.222
321.844
322.465
300.058
300.176
300.299
300.425
300.554
300.687
300.822
300.958
301.097
301.236
301.377
301.518
301.658
301.799
301.939
302.079
302.218
302.355
302.492
302.628
302.762
302.896
303.028
303.159
303.29
303.42
303.55
303.68
303.81
303.94
304.072
304.204
304.338
304.475
304.613
304.755
304.901
305.05
305.204
305.364
305.529
305.701
305.879
306.066
306.26
306.464
306.677
306.901
307.135
307.38
307.638
307.908
308.19
308.486
308.795
309.119
309.456
309.808
310.174
310.554
310.948
311.357
311.779
312.214
312.663
313.124
313.597
314.081
314.575
315.079
315.592
316.113
316.641
317.175
317.715
318.258
318.805
319.353
319.903
320.454
321.004
300.062
300.187
300.317
300.451
300.589
300.73
300.873
301.019
301.167
301.315
301.465
301.615
301.765
301.914
302.063
302.211
302.358
302.504
302.648
302.791
302.933
303.072
303.211
303.348
303.484
303.619
303.753
303.887
304.02
304.154
304.287
304.422
304.557
304.694
304.833
304.975
305.119
305.267
305.419
305.575
305.736
305.902
306.075
306.255
306.441
306.636
306.838
307.05
307.271
307.501
307.742
307.994
308.256
308.53
308.816
309.113
309.422
309.743
310.076
310.422
310.779
311.148
311.528
311.919
312.321
312.734
313.156
313.587
314.027
314.475
314.93
315.392
315.86
316.333
316.81
317.29
317.773
318.259
318.745
319.232
319.718
300.066
300.2
300.339
300.482
300.63
300.781
300.935
301.091
301.249
301.408
301.569
301.729
301.89
302.05
302.209
302.367
302.524
302.679
302.832
302.983
303.133
303.28
303.426
303.57
303.712
303.853
303.992
304.13
304.268
304.405
304.542
304.678
304.816
304.954
305.094
305.235
305.378
305.525
305.674
305.827
305.984
306.146
306.313
306.485
306.664
306.85
307.042
307.242
307.45
307.666
307.891
308.125
308.368
308.621
308.884
309.156
309.439
309.732
310.035
310.348
310.67
311.003
311.345
311.696
312.056
312.424
312.801
313.185
313.576
313.974
314.378
314.787
315.201
315.619
316.041
316.466
316.893
317.322
317.752
318.183
318.614
300.071
300.215
300.365
300.519
300.678
300.841
301.007
301.175
301.346
301.518
301.691
301.864
302.037
302.21
302.381
302.551
302.719
302.884
303.048
303.21
303.369
303.525
303.679
303.831
303.98
304.128
304.273
304.417
304.559
304.7
304.84
304.98
305.12
305.26
305.4
305.542
305.685
305.83
305.978
306.128
306.281
306.439
306.6
306.766
306.937
307.114
307.297
307.485
307.681
307.884
308.093
308.311
308.536
308.769
309.011
309.261
309.519
309.785
310.06
310.343
310.635
310.934
311.241
311.556
311.878
312.207
312.543
312.885
313.233
313.586
313.944
314.307
314.674
315.044
315.417
315.793
316.171
316.551
316.931
317.312
317.693
300.077
300.233
300.395
300.563
300.735
300.912
301.092
301.275
301.461
301.648
301.835
302.023
302.211
302.398
302.583
302.766
302.948
303.126
303.302
303.475
303.645
303.812
303.976
304.137
304.295
304.45
304.602
304.753
304.901
305.047
305.191
305.335
305.478
305.62
305.762
305.904
306.047
306.192
306.338
306.485
306.636
306.789
306.945
307.105
307.27
307.438
307.612
307.79
307.974
308.164
308.36
308.562
308.77
308.986
309.208
309.436
309.672
309.915
310.164
310.421
310.684
310.953
311.23
311.512
311.8
312.094
312.394
312.699
313.008
313.322
313.64
313.962
314.288
314.616
314.946
315.279
315.614
315.95
316.287
316.624
316.962
300.084
300.254
300.431
300.614
300.802
300.995
301.193
301.393
301.596
301.8
302.006
302.211
302.416
302.619
302.821
303.021
303.217
303.411
303.601
303.788
303.97
304.149
304.325
304.496
304.664
304.828
304.989
305.146
305.301
305.453
305.603
305.751
305.897
306.042
306.187
306.331
306.474
306.618
306.763
306.909
307.057
307.206
307.358
307.513
307.671
307.832
307.997
308.166
308.34
308.518
308.701
308.889
309.083
309.282
309.486
309.696
309.911
310.132
310.359
310.592
310.83
311.073
311.321
311.575
311.834
312.097
312.365
312.637
312.913
313.193
313.476
313.762
314.051
314.342
314.635
314.93
315.227
315.525
315.823
316.122
316.422
300.092
300.279
300.473
300.675
300.882
301.094
301.311
301.532
301.755
301.98
302.206
302.432
302.657
302.88
303.102
303.32
303.534
303.745
303.952
304.154
304.352
304.545
304.733
304.917
305.096
305.271
305.441
305.607
305.77
305.929
306.085
306.238
306.389
306.538
306.685
306.831
306.976
307.12
307.265
307.41
307.555
307.702
307.85
308
308.153
308.307
308.465
308.626
308.79
308.958
309.129
309.305
309.485
309.669
309.857
310.051
310.248
310.45
310.657
310.868
311.084
311.304
311.529
311.758
311.99
312.227
312.467
312.71
312.957
313.207
313.459
313.714
313.971
314.23
314.491
314.753
315.017
315.281
315.546
315.811
316.077
300.101
300.309
300.524
300.746
300.976
301.211
301.452
301.696
301.944
302.193
302.443
302.693
302.942
303.188
303.432
303.672
303.907
304.138
304.364
304.585
304.8
305.009
305.212
305.41
305.602
305.789
305.97
306.146
306.318
306.485
306.648
306.808
306.964
307.117
307.268
307.416
307.563
307.709
307.854
307.998
308.142
308.287
308.432
308.578
308.726
308.875
309.026
309.18
309.336
309.495
309.656
309.821
309.989
310.16
310.335
310.513
310.695
310.881
311.07
311.263
311.46
311.66
311.863
312.07
312.281
312.494
312.71
312.929
313.15
313.374
313.599
313.827
314.057
314.288
314.52
314.754
314.989
315.224
315.46
315.696
315.932
300.113
300.343
300.583
300.831
301.087
301.349
301.617
301.89
302.166
302.444
302.723
303.001
303.277
303.551
303.82
304.086
304.346
304.6
304.848
305.089
305.324
305.551
305.772
305.986
306.193
306.393
306.587
306.775
306.956
307.133
307.304
307.471
307.633
307.792
307.947
308.099
308.249
308.397
308.542
308.687
308.831
308.974
309.117
309.26
309.404
309.549
309.694
309.842
309.991
310.142
310.295
310.45
310.608
310.768
310.931
311.097
311.265
311.437
311.611
311.788
311.968
312.151
312.337
312.525
312.716
312.909
313.104
313.302
313.501
313.702
313.905
314.11
314.315
314.522
314.73
314.939
315.148
315.358
315.569
315.779
315.989
300.126
300.385
300.653
300.931
301.218
301.512
301.814
302.12
302.429
302.741
303.053
303.364
303.672
303.977
304.278
304.572
304.86
305.141
305.415
305.68
305.937
306.185
306.426
306.658
306.881
307.097
307.305
307.505
307.699
307.885
308.066
308.241
308.411
308.575
308.736
308.892
309.045
309.196
309.343
309.489
309.633
309.775
309.917
310.058
310.199
310.34
310.482
310.624
310.767
310.912
311.058
311.205
311.354
311.506
311.659
311.814
311.971
312.13
312.292
312.456
312.622
312.79
312.96
313.133
313.307
313.482
313.66
313.839
314.02
314.201
314.385
314.569
314.754
314.94
315.126
315.313
315.501
315.689
315.877
316.065
316.253
300.143
300.433
300.736
301.049
301.373
301.706
302.045
302.391
302.74
303.091
303.442
303.792
304.138
304.48
304.815
305.143
305.464
305.775
306.077
306.37
306.652
306.924
307.186
307.438
307.681
307.913
308.137
308.351
308.558
308.756
308.947
309.131
309.309
309.48
309.647
309.808
309.966
310.119
310.269
310.416
310.561
310.704
310.845
310.985
311.124
311.263
311.401
311.54
311.679
311.818
311.958
312.099
312.241
312.385
312.529
312.676
312.824
312.973
313.124
313.277
313.431
313.587
313.744
313.902
314.062
314.223
314.385
314.548
314.713
314.878
315.044
315.21
315.377
315.545
315.713
315.882
316.05
316.219
316.387
316.555
316.723
300.161
300.491
300.834
301.19
301.557
301.934
302.32
302.711
303.107
303.505
303.902
304.296
304.686
305.069
305.445
305.812
306.169
306.515
306.85
307.172
307.483
307.781
308.068
308.342
308.604
308.856
309.096
309.326
309.546
309.757
309.959
310.153
310.339
310.519
310.692
310.859
311.021
311.178
311.332
311.481
311.628
311.771
311.913
312.053
312.191
312.328
312.464
312.6
312.735
312.87
313.006
313.142
313.279
313.416
313.554
313.693
313.833
313.974
314.117
314.26
314.404
314.549
314.694
314.841
314.988
315.137
315.286
315.435
315.585
315.736
315.887
316.038
316.189
316.341
316.493
316.645
316.796
316.948
317.099
317.249
317.4
300.184
300.559
300.95
301.355
301.774
302.204
302.643
303.089
303.54
303.991
304.442
304.888
305.328
305.76
306.182
306.592
306.99
307.375
307.745
308.101
308.443
308.77
309.082
309.38
309.665
309.936
310.194
310.44
310.675
310.899
311.113
311.317
311.512
311.7
311.88
312.053
312.221
312.382
312.539
312.692
312.84
312.986
313.128
313.268
313.406
313.542
313.677
313.811
313.944
314.077
314.209
314.341
314.473
314.606
314.738
314.872
315.005
315.139
315.274
315.409
315.544
315.679
315.815
315.951
316.088
316.225
316.362
316.499
316.637
316.774
316.912
317.049
317.187
317.324
317.462
317.598
317.735
317.871
318.007
318.142
318.276
300.21
300.639
301.086
301.55
302.029
302.521
303.024
303.534
304.048
304.563
305.074
305.58
306.077
306.564
307.037
307.496
307.94
308.366
308.776
309.168
309.542
309.899
310.239
310.562
310.869
311.161
311.437
311.7
311.949
312.186
312.412
312.626
312.831
313.027
313.214
313.394
313.566
313.733
313.894
314.049
314.201
314.348
314.492
314.633
314.771
314.907
315.042
315.174
315.306
315.436
315.566
315.695
315.824
315.952
316.08
316.208
316.336
316.464
316.591
316.718
316.845
316.972
317.099
317.226
317.352
317.479
317.605
317.732
317.858
317.983
318.109
318.234
318.359
318.483
318.607
318.73
318.852
318.974
319.095
319.216
319.336
300.241
300.733
301.245
301.777
302.327
302.893
303.47
304.054
304.642
305.228
305.81
306.383
306.945
307.492
308.022
308.534
309.026
309.497
309.948
310.377
310.785
311.173
311.54
311.888
312.217
312.528
312.822
313.101
313.364
313.613
313.849
314.074
314.287
314.49
314.684
314.87
315.048
315.219
315.383
315.542
315.696
315.846
315.992
316.134
316.273
316.409
316.543
316.675
316.805
316.934
317.062
317.188
317.314
317.439
317.562
317.685
317.807
317.928
318.049
318.168
318.288
318.407
318.525
318.642
318.76
318.876
318.993
319.108
319.223
319.338
319.451
319.565
319.677
319.789
319.9
320.01
320.119
320.228
320.335
320.442
320.548
300.276
300.841
301.429
302.041
302.674
303.323
303.986
304.656
305.328
305.996
306.656
307.304
307.936
308.548
309.139
309.706
310.248
310.765
311.256
311.722
312.163
312.579
312.972
313.343
313.691
314.02
314.329
314.62
314.895
315.154
315.399
315.632
315.852
316.061
316.261
316.451
316.634
316.808
316.976
317.138
317.294
317.446
317.593
317.736
317.876
318.012
318.146
318.277
318.406
318.533
318.658
318.781
318.903
319.023
319.141
319.258
319.374
319.488
319.602
319.714
319.825
319.936
320.045
320.154
320.262
320.369
320.475
320.58
320.684
320.787
320.89
320.991
321.092
321.191
321.29
321.387
321.484
321.579
321.674
321.767
321.859
300.316
300.963
301.638
302.341
303.068
303.815
304.575
305.341
306.107
306.866
307.612
308.339
309.045
309.727
310.379
311
311.59
312.148
312.674
313.171
313.638
314.076
314.488
314.875
315.237
315.578
315.898
316.198
316.481
316.747
316.999
317.237
317.462
317.676
317.879
318.073
318.258
318.436
318.606
318.77
318.928
319.08
319.228
319.371
319.51
319.646
319.778
319.907
320.034
320.157
320.279
320.397
320.514
320.628
320.741
320.851
320.96
321.068
321.174
321.279
321.382
321.484
321.585
321.684
321.782
321.879
321.975
322.07
322.163
322.255
322.346
322.436
322.525
322.613
322.699
322.784
322.868
322.951
323.033
323.113
323.193
300.36
301.096
301.867
302.67
303.503
304.357
305.225
306.099
306.969
307.823
308.656
309.461
310.235
310.975
311.678
312.344
312.971
313.561
314.115
314.634
315.119
315.572
315.996
316.392
316.763
317.11
317.434
317.739
318.025
318.294
318.548
318.788
319.015
319.23
319.435
319.629
319.815
319.993
320.163
320.327
320.485
320.636
320.783
320.925
321.062
321.195
321.324
321.45
321.572
321.692
321.808
321.922
322.033
322.141
322.248
322.352
322.454
322.554
322.653
322.75
322.845
322.938
323.03
323.12
323.209
323.296
323.382
323.466
323.549
323.631
323.711
323.79
323.867
323.943
324.018
324.091
324.164
324.235
324.304
324.373
324.44
300.402
301.228
302.094
303.002
303.948
304.919
305.898
306.874
307.836
308.775
309.684
310.555
311.386
312.172
312.914
313.61
314.262
314.87
315.437
315.965
316.457
316.914
317.34
317.737
318.107
318.452
318.775
319.078
319.361
319.628
319.88
320.117
320.342
320.555
320.757
320.95
321.133
321.309
321.477
321.638
321.793
321.942
322.086
322.225
322.359
322.489
322.614
322.736
322.854
322.969
323.08
323.189
323.294
323.397
323.498
323.596
323.692
323.785
323.877
323.967
324.054
324.14
324.224
324.306
324.386
324.465
324.541
324.617
324.691
324.763
324.833
324.903
324.97
325.037
325.101
325.165
325.227
325.288
325.347
325.406
325.463
300.434
301.326
302.268
303.264
304.304
305.365
306.432
307.49
308.525
309.528
310.488
311.401
312.263
313.073
313.83
314.536
315.193
315.802
316.368
316.893
317.379
317.83
318.25
318.639
319.002
319.341
319.657
319.953
320.231
320.493
320.739
320.971
321.192
321.4
321.599
321.787
321.968
322.14
322.305
322.463
322.615
322.761
322.901
323.037
323.168
323.294
323.417
323.535
323.65
323.761
323.869
323.974
324.076
324.175
324.271
324.365
324.457
324.546
324.633
324.718
324.8
324.881
324.96
325.036
325.111
325.184
325.255
325.325
325.393
325.459
325.524
325.587
325.648
325.708
325.767
325.824
325.88
325.934
325.987
326.039
326.09
384.529
392.476
399.149
404.956
410.101
414.694
418.798
422.449
425.662
428.44
430.774
432.642
434.011
434.833
435.044
434.554
433.234
430.888
427.184
421.465
412.081
405.715
400.828
396.819
393.4
390.41
387.746
385.341
383.145
381.121
379.242
377.486
375.834
374.272
372.788
371.372
370.015
368.709
367.448
366.226
365.038
363.881
362.75
361.641
360.553
359.482
358.426
357.383
356.351
355.328
354.314
353.307
352.305
351.309
350.318
349.33
348.346
347.365
346.387
345.413
344.441
343.472
342.506
341.543
340.583
339.627
338.674
337.724
336.779
335.838
334.901
333.971
333.046
332.127
331.217
330.314
329.42
328.536
327.663
326.802
325.954
325.119
324.299
323.494
322.706
321.936
321.183
320.45
319.737
319.043
318.371
317.72
317.091
316.485
315.9
315.338
314.799
314.282
313.788
313.316
312.866
312.438
312.031
311.645
311.279
310.933
310.605
310.296
310.005
309.73
309.472
309.228
308.999
308.784
308.582
308.391
308.211
308.042
307.883
307.731
307.588
307.452
307.323
307.199
307.081
306.967
306.857
306.751
306.647
306.546
306.446
306.348
306.252
306.156
306.06
305.965
305.87
305.774
305.678
305.581
305.482
305.383
305.283
305.181
305.077
304.972
304.865
304.757
304.647
304.535
304.422
304.306
304.19
304.072
303.952
303.832
303.71
303.587
303.465
303.341
303.22
379.778
386.685
392.891
398.455
403.46
407.966
412.015
415.63
418.823
421.591
423.925
425.801
427.188
428.039
428.295
427.872
426.659
424.5
421.178
416.424
410.19
404.793
400.283
396.455
393.138
390.212
387.591
385.217
383.043
381.037
379.172
377.426
375.783
374.229
372.751
371.34
369.987
368.684
367.426
366.207
365.022
363.867
362.737
361.63
360.543
359.473
358.418
357.376
356.345
355.323
354.309
353.302
352.301
351.306
350.314
349.327
348.343
347.362
346.385
345.41
344.439
343.47
342.504
341.541
340.581
339.625
338.672
337.722
336.777
335.836
334.899
333.969
333.044
332.125
331.214
330.312
329.418
328.534
327.661
326.8
325.951
325.116
324.296
323.492
322.704
321.933
321.181
320.447
319.734
319.041
318.368
317.718
317.089
316.482
315.898
315.336
314.797
314.28
313.786
313.314
312.864
312.436
312.029
311.643
311.277
310.931
310.604
310.295
310.004
309.729
309.471
309.228
308.999
308.784
308.581
308.391
308.211
308.042
307.882
307.731
307.588
307.453
307.323
307.2
307.081
306.967
306.857
306.751
306.647
306.546
306.447
306.349
306.252
306.157
306.061
305.966
305.871
305.775
305.678
305.581
305.483
305.384
305.283
305.181
305.078
304.973
304.866
304.758
304.648
304.536
304.422
304.307
304.191
304.073
303.953
303.832
303.711
303.588
303.465
303.342
303.22
375.671
381.583
387.159
392.323
397.064
401.392
405.32
408.853
411.992
414.73
417.054
418.939
420.355
421.26
421.6
421.307
420.294
418.461
415.701
411.968
407.476
403.116
399.177
395.679
392.565
389.772
387.244
384.937
382.814
380.847
379.012
377.291
375.669
374.131
372.667
371.267
369.924
368.63
367.379
366.166
364.986
363.836
362.71
361.607
360.523
359.455
358.403
357.362
356.333
355.312
354.3
353.294
352.294
351.299
350.308
349.321
348.338
347.358
346.381
345.406
344.435
343.466
342.501
341.538
340.578
339.622
338.669
337.719
336.774
335.832
334.896
333.965
333.04
332.122