/*--------------------------------*- C++ -*----------------------------------*\
  =========                 |
  \\      /  F ield         | OpenFOAM: The Open Source CFD Toolbox
   \\    /   O peration     | Website:  https://openfoam.org
    \\  /    A nd           | Version:  7
     \\/     M anipulation  |
\*---------------------------------------------------------------------------*/
FoamFile
{
    version     2.0;
    format      ascii;
    class       volVectorField;
    location    "2.56";
    object      U;
}
// * * * * * * * * * * * * * * * * * * * * * * * * * * * * * * * * * * * * * //

dimensions      [0 1 -1 0 0 0 0];

internalField   nonuniform List<vector> 
12013
(
(0.100299 -8.31051e-05 0)
(0.101518 -0.000153345 0)
(0.103486 -0.000218324 0)
(0.106028 -0.000278496 0)
(0.109099 -0.000335573 0)
(0.112652 -0.000390506 0)
(0.116651 -0.000443813 0)
(0.121061 -0.000495792 0)
(0.125855 -0.000546553 0)
(0.131004 -0.000596084 0)
(0.136482 -0.000644299 0)
(0.142262 -0.000691071 0)
(0.148317 -0.000736265 0)
(0.154621 -0.00077975 0)
(0.161147 -0.000821417 0)
(0.167869 -0.000861182 0)
(0.174762 -0.000898994 0)
(0.181803 -0.000934829 0)
(0.188968 -0.000968693 0)
(0.196236 -0.00100062 0)
(0.203586 -0.00103065 0)
(0.211 -0.00105886 0)
(0.218461 -0.00108533 0)
(0.225954 -0.00111015 0)
(0.233463 -0.00113339 0)
(0.240977 -0.00115517 0)
(0.248484 -0.00117556 0)
(0.255975 -0.00119465 0)
(0.263439 -0.00121253 0)
(0.27087 -0.00122927 0)
(0.27826 -0.00124493 0)
(0.285603 -0.00125958 0)
(0.292895 -0.00127325 0)
(0.300131 -0.00128601 0)
(0.307306 -0.00129786 0)
(0.314418 -0.00130884 0)
(0.321465 -0.00131895 0)
(0.328442 -0.0013282 0)
(0.33535 -0.00133658 0)
(0.342186 -0.00134406 0)
(0.348948 -0.00135063 0)
(0.355637 -0.00135624 0)
(0.362251 -0.00136084 0)
(0.368789 -0.00136436 0)
(0.375251 -0.00136673 0)
(0.381638 -0.00136785 0)
(0.387948 -0.00136763 0)
(0.394183 -0.00136592 0)
(0.400341 -0.00136259 0)
(0.406423 -0.00135746 0)
(0.412429 -0.00135034 0)
(0.41836 -0.00134102 0)
(0.424214 -0.00132922 0)
(0.429992 -0.00131467 0)
(0.435694 -0.00129701 0)
(0.441318 -0.00127585 0)
(0.446865 -0.00125075 0)
(0.452332 -0.00122116 0)
(0.457718 -0.00118648 0)
(0.463019 -0.00114597 0)
(0.468234 -0.00109878 0)
(0.473357 -0.00104388 0)
(0.478383 -0.000980031 0)
(0.483303 -0.00090574 0)
(0.488108 -0.000819156 0)
(0.492786 -0.000717974 0)
(0.497319 -0.000599274 0)
(0.501686 -0.0004593 0)
(0.505859 -0.000293138 0)
(0.509799 -9.42333e-05 0)
(0.513457 0.000146729 0)
(0.51676 0.000443878 0)
(0.519609 0.000818288 0)
(0.521858 0.00130272 0)
(0.523284 0.00195086 0)
(0.523544 0.00285556 0)
(0.522075 0.00418713 0)
(0.517891 0.00628384 0)
(0.509231 0.00994606 0)
(0.493058 0.0179856 0)
(0.475963 0.0487013 0)
(0.100277 -0.000253752 0)
(0.101491 -0.000470015 0)
(0.103452 -0.000669384 0)
(0.105988 -0.000853798 0)
(0.109052 -0.00102867 0)
(0.112599 -0.00119691 0)
(0.116591 -0.0013601 0)
(0.120996 -0.00151917 0)
(0.125783 -0.00167446 0)
(0.130926 -0.00182594 0)
(0.136398 -0.00197334 0)
(0.142171 -0.00211629 0)
(0.148219 -0.00225437 0)
(0.154515 -0.00238719 0)
(0.161034 -0.00251443 0)
(0.167748 -0.00263582 0)
(0.174633 -0.00275122 0)
(0.181666 -0.00286056 0)
(0.188822 -0.00296386 0)
(0.196081 -0.00306122 0)
(0.203422 -0.0031528 0)
(0.210826 -0.0032388 0)
(0.218277 -0.00331947 0)
(0.225759 -0.00339508 0)
(0.233257 -0.0034659 0)
(0.24076 -0.00353222 0)
(0.248255 -0.00359431 0)
(0.255733 -0.00365244 0)
(0.263184 -0.00370685 0)
(0.270601 -0.00375778 0)
(0.277977 -0.00380542 0)
(0.285305 -0.00384995 0)
(0.292581 -0.00389153 0)
(0.299801 -0.00393026 0)
(0.306959 -0.00396625 0)
(0.314054 -0.00399956 0)
(0.321082 -0.00403021 0)
(0.32804 -0.00405822 0)
(0.334927 -0.00408356 0)
(0.341742 -0.00410616 0)
(0.348482 -0.00412595 0)
(0.355147 -0.00414279 0)
(0.361736 -0.00415652 0)
(0.368249 -0.00416695 0)
(0.374684 -0.00417384 0)
(0.381042 -0.0041769 0)
(0.387322 -0.00417581 0)
(0.393525 -0.00417018 0)
(0.39965 -0.00415955 0)
(0.405697 -0.00414341 0)
(0.411666 -0.00412117 0)
(0.417557 -0.00409215 0)
(0.423371 -0.00405556 0)
(0.429106 -0.0040105 0)
(0.434762 -0.00395594 0)
(0.440339 -0.00389066 0)
(0.445835 -0.00381329 0)
(0.45125 -0.00372221 0)
(0.456581 -0.00361555 0)
(0.461826 -0.00349108 0)
(0.466982 -0.00334621 0)
(0.472043 -0.00317781 0)
(0.477006 -0.00298214 0)
(0.481861 -0.00275467 0)
(0.486601 -0.00248981 0)
(0.491214 -0.00218062 0)
(0.495683 -0.00181832 0)
(0.499989 -0.00139165 0)
(0.504107 -0.00088592 0)
(0.508002 -0.000281551 0)
(0.51163 0.000448663 0)
(0.514929 0.00134442 0)
(0.51782 0.00246416 0)
(0.520189 0.00389671 0)
(0.521879 0.00578272 0)
(0.522667 0.00835427 0)
(0.522245 0.0120101 0)
(0.52018 0.0174637 0)
(0.515921 0.0260641 0)
(0.50939 0.0404054 0)
(0.508022 0.0650486 0)
(0.100255 -0.000431545 0)
(0.101456 -0.00080645 0)
(0.1034 -0.00114985 0)
(0.105922 -0.00146735 0)
(0.108973 -0.00176836 0)
(0.112507 -0.00205787 0)
(0.116486 -0.00233867 0)
(0.120878 -0.00261234 0)
(0.125653 -0.00287948 0)
(0.130783 -0.00314002 0)
(0.136241 -0.00339353 0)
(0.142 -0.00363936 0)
(0.148034 -0.00387679 0)
(0.154316 -0.00410516 0)
(0.160819 -0.00432388 0)
(0.167518 -0.00453255 0)
(0.174387 -0.00473088 0)
(0.181403 -0.00491878 0)
(0.188541 -0.00509627 0)
(0.195782 -0.00526352 0)
(0.203103 -0.00542081 0)
(0.210488 -0.00556849 0)
(0.217918 -0.00570699 0)
(0.225378 -0.00583676 0)
(0.232855 -0.00595828 0)
(0.240334 -0.00607204 0)
(0.247805 -0.0061785 0)
(0.255257 -0.00627812 0)
(0.262683 -0.00637133 0)
(0.270073 -0.00645851 0)
(0.27742 -0.00654001 0)
(0.28472 -0.00661613 0)
(0.291966 -0.00668712 0)
(0.299154 -0.00675318 0)
(0.30628 -0.00681448 0)
(0.31334 -0.00687111 0)
(0.320333 -0.00692313 0)
(0.327254 -0.00697053 0)
(0.334103 -0.00701327 0)
(0.340877 -0.00705124 0)
(0.347575 -0.00708428 0)
(0.354196 -0.00711216 0)
(0.360739 -0.00713462 0)
(0.367204 -0.00715129 0)
(0.373589 -0.00716177 0)
(0.379894 -0.00716557 0)
(0.386119 -0.00716209 0)
(0.392263 -0.00715067 0)
(0.398328 -0.00713054 0)
(0.404311 -0.00710081 0)
(0.410213 -0.00706044 0)
(0.416035 -0.00700827 0)
(0.421775 -0.00694295 0)
(0.427433 -0.00686293 0)
(0.433009 -0.00676642 0)
(0.438502 -0.0066514 0)
(0.443911 -0.00651548 0)
(0.449235 -0.00635594 0)
(0.454471 -0.00616958 0)
(0.459618 -0.00595268 0)
(0.464672 -0.00570083 0)
(0.469629 -0.00540881 0)
(0.474485 -0.00507039 0)
(0.479232 -0.00467801 0)
(0.483863 -0.00422246 0)
(0.488368 -0.00369235 0)
(0.492733 -0.00307338 0)
(0.496942 -0.0023474 0)
(0.500975 -0.00149089 0)
(0.504805 -0.000472912 0)
(0.508397 0.000748282 0)
(0.51171 0.00223126 0)
(0.514693 0.00405944 0)
(0.517283 0.00635393 0)
(0.519409 0.00929484 0)
(0.521001 0.0131559 0)
(0.522022 0.01836 0)
(0.52254 0.0255648 0)
(0.522905 0.035798 0)
(0.524202 0.0505595 0)
(0.53016 0.0709745 0)
(0.100233 -0.000615102 0)
(0.101415 -0.00116197 0)
(0.103336 -0.00165949 0)
(0.105836 -0.00211973 0)
(0.108867 -0.00255588 0)
(0.112381 -0.00297524 0)
(0.116341 -0.0033819 0)
(0.120713 -0.00377818 0)
(0.125468 -0.00416494 0)
(0.130579 -0.00454211 0)
(0.136017 -0.00490905 0)
(0.141755 -0.00526482 0)
(0.147768 -0.0056084 0)
(0.154028 -0.0059388 0)
(0.160508 -0.00625521 0)
(0.167183 -0.00655701 0)
(0.174028 -0.00684381 0)
(0.181018 -0.00711545 0)
(0.18813 -0.00737199 0)
(0.195343 -0.00761366 0)
(0.202636 -0.00784087 0)
(0.209991 -0.00805413 0)
(0.21739 -0.00825405 0)
(0.224819 -0.00844129 0)
(0.232262 -0.00861654 0)
(0.239707 -0.0087805 0)
(0.247142 -0.00893385 0)
(0.254558 -0.00907724 0)
(0.261945 -0.00921129 0)
(0.269295 -0.00933655 0)
(0.276602 -0.00945351 0)
(0.28386 -0.00956261 0)
(0.291062 -0.0096642 0)
(0.298204 -0.00975857 0)
(0.305283 -0.00984595 0)
(0.312294 -0.00992646 0)
(0.319236 -0.0100002 0)
(0.326105 -0.0100671 0)
(0.332899 -0.0101271 0)
(0.339616 -0.0101801 0)
(0.346255 -0.0102258 0)
(0.352814 -0.0102639 0)
(0.359293 -0.0102939 0)
(0.365691 -0.0103154 0)
(0.372006 -0.0103278 0)
(0.378238 -0.0103302 0)
(0.384387 -0.0103219 0)
(0.390453 -0.0103019 0)
(0.396435 -0.0102691 0)
(0.402332 -0.0102221 0)
(0.408145 -0.0101596 0)
(0.413872 -0.0100797 0)
(0.419515 -0.00998057 0)
(0.425071 -0.00985997 0)
(0.430542 -0.00971536 0)
(0.435925 -0.00954383 0)
(0.44122 -0.00934202 0)
(0.446426 -0.00910604 0)
(0.45154 -0.00883141 0)
(0.456562 -0.00851289 0)
(0.461487 -0.00814433 0)
(0.466314 -0.00771849 0)
(0.471037 -0.00722677 0)
(0.475652 -0.00665885 0)
(0.480153 -0.00600222 0)
(0.484531 -0.00524158 0)
(0.488777 -0.004358 0)
(0.49288 -0.00332772 0)
(0.496826 -0.00212052 0)
(0.5006 -0.000697449 0)
(0.504181 0.000991921 0)
(0.507549 0.00301505 0)
(0.510689 0.00546373 0)
(0.51359 0.00846303 0)
(0.516257 0.0121842 0)
(0.518735 0.016861 0)
(0.521149 0.0228073 0)
(0.523768 0.0304254 0)
(0.52712 0.0401812 0)
(0.532132 0.0524513 0)
(0.540388 0.0668942 0)
(0.100211 -0.000804662 0)
(0.101372 -0.00153622 0)
(0.103263 -0.0021984 0)
(0.105736 -0.00281161 0)
(0.108739 -0.00339249 0)
(0.112227 -0.00395081 0)
(0.116161 -0.0044921 0)
(0.120507 -0.00501944 0)
(0.125236 -0.00553403 0)
(0.13032 -0.00603578 0)
(0.135731 -0.00652382 0)
(0.141442 -0.00699692 0)
(0.147427 -0.00745371 0)
(0.153657 -0.00789289 0)
(0.160107 -0.00831338 0)
(0.166751 -0.00871434 0)
(0.173563 -0.00909527 0)
(0.18052 -0.00945596 0)
(0.187597 -0.00979648 0)
(0.194774 -0.0101172 0)
(0.202029 -0.0104185 0)
(0.209345 -0.0107012 0)
(0.216704 -0.0109662 0)
(0.224091 -0.0112141 0)
(0.23149 -0.0114461 0)
(0.23889 -0.0116629 0)
(0.24628 -0.0118655 0)
(0.253647 -0.0120548 0)
(0.260985 -0.0122316 0)
(0.268284 -0.0123966 0)
(0.275538 -0.0125504 0)
(0.282741 -0.0126936 0)
(0.289887 -0.0128268 0)
(0.296971 -0.0129502 0)
(0.303989 -0.0130641 0)
(0.310939 -0.0131687 0)
(0.317816 -0.0132641 0)
(0.324618 -0.0133503 0)
(0.331342 -0.0134271 0)
(0.337988 -0.0134943 0)
(0.344553 -0.0135516 0)
(0.351035 -0.0135985 0)
(0.357435 -0.0136345 0)
(0.363749 -0.0136588 0)
(0.369978 -0.0136706 0)
(0.376122 -0.013669 0)
(0.382178 -0.0136528 0)
(0.388147 -0.0136207 0)
(0.394029 -0.0135712 0)
(0.399822 -0.0135026 0)
(0.405527 -0.0134129 0)
(0.411143 -0.0133 0)
(0.41667 -0.0131611 0)
(0.422106 -0.0129935 0)
(0.427452 -0.0127939 0)
(0.432707 -0.0125584 0)
(0.43787 -0.0122826 0)
(0.44294 -0.0119617 0)
(0.447915 -0.0115899 0)
(0.452794 -0.0111605 0)
(0.457576 -0.0106657 0)
(0.462257 -0.0100966 0)
(0.466835 -0.00944239 0)
(0.471307 -0.00869046 0)
(0.475669 -0.00782567 0)
(0.479916 -0.00682974 0)
(0.484044 -0.00568047 0)
(0.488047 -0.00435051 0)
(0.491919 -0.00280597 0)
(0.495657 -0.00100448 0)
(0.499256 0.00110617 0)
(0.502719 0.00359181 0)
(0.506058 0.00653707 0)
(0.509302 0.0100487 0)
(0.512506 0.0142591 0)
(0.515771 0.0193267 0)
(0.519271 0.0254295 0)
(0.523279 0.0327404 0)
(0.528208 0.0413681 0)
(0.534615 0.0512307 0)
(0.543149 0.0618078 0)
(0.100189 -0.00100052 0)
(0.101329 -0.00192899 0)
(0.103186 -0.00276678 0)
(0.105625 -0.00354363 0)
(0.108595 -0.00427942 0)
(0.112051 -0.0049864 0)
(0.115953 -0.00567164 0)
(0.120267 -0.00633906 0)
(0.124964 -0.00699019 0)
(0.130015 -0.00762492 0)
(0.135393 -0.00824217 0)
(0.14107 -0.00884038 0)
(0.147019 -0.00941781 0)
(0.153214 -0.00997283 0)
(0.159627 -0.0105041 0)
(0.166232 -0.0110105 0)
(0.173005 -0.0114914 0)
(0.17992 -0.0119466 0)
(0.186954 -0.0123762 0)
(0.194086 -0.0127806 0)
(0.201296 -0.0131604 0)
(0.208564 -0.0135165 0)
(0.215874 -0.01385 0)
(0.223209 -0.0141619 0)
(0.230556 -0.0144535 0)
(0.237901 -0.0147258 0)
(0.245234 -0.01498 0)
(0.252543 -0.0152173 0)
(0.25982 -0.0154385 0)
(0.267058 -0.0156447 0)
(0.274248 -0.0158366 0)
(0.281385 -0.016015 0)
(0.288462 -0.0161804 0)
(0.295476 -0.0163332 0)
(0.302423 -0.0164739 0)
(0.309297 -0.0166026 0)
(0.316098 -0.0167193 0)
(0.32282 -0.0168242 0)
(0.329463 -0.0169168 0)
(0.336025 -0.0169971 0)
(0.342502 -0.0170645 0)
(0.348894 -0.0171183 0)
(0.3552 -0.017158 0)
(0.361419 -0.0171825 0)
(0.367548 -0.0171909 0)
(0.373588 -0.0171819 0)
(0.379538 -0.017154 0)
(0.385397 -0.0171056 0)
(0.391164 -0.0170349 0)
(0.39684 -0.0169395 0)
(0.402422 -0.0168172 0)
(0.407912 -0.0166651 0)
(0.413309 -0.01648 0)
(0.418612 -0.0162584 0)
(0.42382 -0.0159962 0)
(0.428933 -0.0156888 0)
(0.433952 -0.0153309 0)
(0.438874 -0.0149165 0)
(0.443699 -0.0144387 0)
(0.448426 -0.0138897 0)
(0.453055 -0.0132603 0)
(0.457584 -0.0125399 0)
(0.462013 -0.0117164 0)
(0.46634 -0.0107754 0)
(0.470564 -0.00969989 0)
(0.474684 -0.00847004 0)
(0.478701 -0.00706204 0)
(0.482616 -0.00544746 0)
(0.486431 -0.00359214 0)
(0.490152 -0.00145503 0)
(0.493791 0.00101181 0)
(0.497365 0.00386414 0)
(0.500907 0.00716912 0)
(0.504467 0.011004 0)
(0.508121 0.0154534 0)
(0.51198 0.0206023 0)
(0.516201 0.0265224 0)
(0.520994 0.0332466 0)
(0.526616 0.0407282 0)
(0.533353 0.0487808 0)
(0.541433 0.0570066 0)
(0.100167 -0.00120304 0)
(0.101286 -0.00234032 0)
(0.103107 -0.00336499 0)
(0.105509 -0.00431656 0)
(0.108441 -0.00521799 0)
(0.111859 -0.00608391 0)
(0.115723 -0.00692301 0)
(0.12 -0.00774009 0)
(0.124659 -0.00853701 0)
(0.129672 -0.00931364 0)
(0.135011 -0.0100687 0)
(0.140648 -0.0108002 0)
(0.146557 -0.0115061 0)
(0.152709 -0.0121844 0)
(0.159079 -0.0128333 0)
(0.165639 -0.0134517 0)
(0.172364 -0.0140388 0)
(0.179231 -0.0145942 0)
(0.186215 -0.0151181 0)
(0.193295 -0.0156109 0)
(0.20045 -0.0160736 0)
(0.207662 -0.0165071 0)
(0.214914 -0.0169127 0)
(0.222189 -0.0172918 0)
(0.229474 -0.0176459 0)
(0.236755 -0.0179762 0)
(0.244021 -0.0182842 0)
(0.251263 -0.0185713 0)
(0.25847 -0.0188387 0)
(0.265635 -0.0190873 0)
(0.272751 -0.0193184 0)
(0.279811 -0.0195326 0)
(0.28681 -0.0197307 0)
(0.293743 -0.0199132 0)
(0.300606 -0.0200805 0)
(0.307395 -0.0202328 0)
(0.314107 -0.0203702 0)
(0.320739 -0.0204927 0)
(0.327289 -0.0205999 0)
(0.333754 -0.0206916 0)
(0.340133 -0.020767 0)
(0.346423 -0.0208255 0)
(0.352624 -0.0208662 0)
(0.358734 -0.0208879 0)
(0.364752 -0.0208894 0)
(0.370677 -0.020869 0)
(0.376508 -0.0208251 0)
(0.382245 -0.0207557 0)
(0.387887 -0.0206584 0)
(0.393432 -0.0205306 0)
(0.398882 -0.0203695 0)
(0.404235 -0.0201716 0)
(0.409491 -0.0199333 0)
(0.414649 -0.0196503 0)
(0.41971 -0.0193179 0)
(0.424674 -0.0189306 0)
(0.429539 -0.0184823 0)
(0.434306 -0.0179662 0)
(0.438975 -0.0173745 0)
(0.443545 -0.0166982 0)
(0.448019 -0.0159273 0)
(0.452394 -0.0150502 0)
(0.456674 -0.0140536 0)
(0.460858 -0.0129223 0)
(0.464949 -0.0116388 0)
(0.46895 -0.0101829 0)
(0.472866 -0.00853102 0)
(0.476704 -0.00665621 0)
(0.480474 -0.00452719 0)
(0.484189 -0.00210818 0)
(0.487874 0.000640834 0)
(0.491552 0.00376077 0)
(0.495265 0.00729688 0)
(0.499071 0.0112958 0)
(0.503043 0.0157998 0)
(0.507279 0.0208394 0)
(0.511894 0.0264205 0)
(0.517024 0.0325091 0)
(0.52281 0.0390106 0)
(0.529374 0.0457494 0)
(0.536762 0.0524615 0)
(0.100144 -0.00141274 0)
(0.101245 -0.00277052 0)
(0.103029 -0.00399368 0)
(0.105391 -0.00513137 0)
(0.108281 -0.00620965 0)
(0.111658 -0.00724536 0)
(0.11548 -0.00824882 0)
(0.119714 -0.00922571 0)
(0.12433 -0.0101782 0)
(0.1293 -0.0111062 0)
(0.134594 -0.0120081 0)
(0.140187 -0.0128816 0)
(0.146049 -0.0137242 0)
(0.152153 -0.0145335 0)
(0.158473 -0.0153075 0)
(0.164982 -0.0160447 0)
(0.171655 -0.0167441 0)
(0.178466 -0.0174055 0)
(0.185393 -0.018029 0)
(0.192413 -0.0186152 0)
(0.199507 -0.0191651 0)
(0.206655 -0.01968 0)
(0.21384 -0.0201613 0)
(0.221046 -0.0206108 0)
(0.22826 -0.0210301 0)
(0.235468 -0.0214209 0)
(0.242659 -0.0217848 0)
(0.249823 -0.0221234 0)
(0.256951 -0.0224383 0)
(0.264034 -0.0227306 0)
(0.271065 -0.0230015 0)
(0.278039 -0.0232521 0)
(0.284949 -0.023483 0)
(0.291791 -0.0236951 0)
(0.29856 -0.0238886 0)
(0.305253 -0.0240638 0)
(0.311867 -0.0242209 0)
(0.318397 -0.0243596 0)
(0.324843 -0.0244797 0)
(0.331201 -0.0245806 0)
(0.33747 -0.0246617 0)
(0.343648 -0.024722 0)
(0.349733 -0.0247605 0)
(0.355724 -0.0247757 0)
(0.36162 -0.0247662 0)
(0.36742 -0.0247301 0)
(0.373122 -0.0246654 0)
(0.378727 -0.0245696 0)
(0.384233 -0.02444 0)
(0.38964 -0.0242737 0)
(0.394947 -0.0240672 0)
(0.400154 -0.0238167 0)
(0.405262 -0.0235179 0)
(0.410268 -0.023166 0)
(0.415175 -0.0227555 0)
(0.419982 -0.0222805 0)
(0.424689 -0.0217342 0)
(0.429297 -0.021109 0)
(0.433807 -0.0203965 0)
(0.438219 -0.019587 0)
(0.442537 -0.0186699 0)
(0.446761 -0.0176331 0)
(0.450894 -0.0164632 0)
(0.454941 -0.0151448 0)
(0.458905 -0.0136611 0)
(0.462795 -0.0119927 0)
(0.466618 -0.0101184 0)
(0.470387 -0.00801452 0)
(0.474115 -0.00565497 0)
(0.477823 -0.0030117 0)
(0.481538 -5.47162e-05 0)
(0.48529 0.00324223 0)
(0.489119 0.00690281 0)
(0.493078 0.010948 0)
(0.497229 0.0153896 0)
(0.501641 0.0202241 0)
(0.506393 0.0254252 0)
(0.511561 0.0309359 0)
(0.517208 0.0366616 0)
(0.523373 0.0424671 0)
(0.530032 0.0481872 0)
(0.100121 -0.00163031 0)
(0.101205 -0.00322019 0)
(0.102953 -0.00465375 0)
(0.105273 -0.00598929 0)
(0.10812 -0.00725609 0)
(0.111451 -0.008473 0)
(0.115227 -0.00965188 0)
(0.119415 -0.0107993 0)
(0.123985 -0.0119178 0)
(0.128907 -0.0130071 0)
(0.134153 -0.0140654 0)
(0.139695 -0.01509 0)
(0.145506 -0.0160779 0)
(0.151558 -0.0170263 0)
(0.157823 -0.0179329 0)
(0.164275 -0.0187959 0)
(0.170888 -0.0196143 0)
(0.177637 -0.0203876 0)
(0.184499 -0.0211162 0)
(0.191453 -0.0218006 0)
(0.198477 -0.0224421 0)
(0.205553 -0.0230423 0)
(0.212664 -0.0236029 0)
(0.219794 -0.0241258 0)
(0.226928 -0.024613 0)
(0.234054 -0.0250665 0)
(0.241161 -0.0254882 0)
(0.248238 -0.0258799 0)
(0.255276 -0.0262434 0)
(0.262267 -0.0265802 0)
(0.269205 -0.0268916 0)
(0.276082 -0.0271787 0)
(0.282893 -0.0274425 0)
(0.289634 -0.0276836 0)
(0.296299 -0.0279025 0)
(0.302886 -0.0280996 0)
(0.30939 -0.0282748 0)
(0.31581 -0.028428 0)
(0.322141 -0.0285588 0)
(0.328383 -0.0286665 0)
(0.334532 -0.0287503 0)
(0.340587 -0.0288092 0)
(0.346547 -0.0288418 0)
(0.35241 -0.0288465 0)
(0.358174 -0.0288216 0)
(0.363839 -0.0287648 0)
(0.369404 -0.0286738 0)
(0.374867 -0.0285459 0)
(0.380229 -0.0283779 0)
(0.385489 -0.0281666 0)
(0.390647 -0.0279079 0)
(0.395701 -0.0275976 0)
(0.400654 -0.027231 0)
(0.405503 -0.0268027 0)
(0.410251 -0.0263068 0)
(0.414897 -0.0257368 0)
(0.419444 -0.0250855 0)
(0.423891 -0.0243449 0)
(0.428241 -0.0235061 0)
(0.432496 -0.0225593 0)
(0.436659 -0.0214937 0)
(0.440735 -0.0202974 0)
(0.444726 -0.0189573 0)
(0.448641 -0.0174592 0)
(0.452485 -0.0157873 0)
(0.456268 -0.0139249 0)
(0.460002 -0.0118539 0)
(0.463702 -0.00955539 0)
(0.467384 -0.00700965 0)
(0.471071 -0.00419712 0)
(0.474787 -0.00109882 0)
(0.478571 0.00230017 0)
(0.482448 0.006006 0)
(0.486464 0.0100212 0)
(0.490663 0.0143386 0)
(0.495093 0.0189377 0)
(0.499798 0.0237807 0)
(0.504813 0.0288103 0)
(0.510162 0.0339484 0)
(0.515841 0.0390994 0)
(0.521808 0.0441626 0)
(0.100097 -0.00185651 0)
(0.101167 -0.00369016 0)
(0.102881 -0.00534641 0)
(0.105158 -0.00689191 0)
(0.107959 -0.00835934 0)
(0.111243 -0.00976936 0)
(0.114971 -0.0111353 0)
(0.11911 -0.0124646 0)
(0.12363 -0.0137599 0)
(0.1285 -0.0150211 0)
(0.133694 -0.0162459 0)
(0.139182 -0.0174311 0)
(0.144937 -0.0185733 0)
(0.150931 -0.0196692 0)
(0.157136 -0.0207162 0)
(0.163525 -0.0217123 0)
(0.170072 -0.0226562 0)
(0.176753 -0.0235475 0)
(0.183545 -0.0243865 0)
(0.190424 -0.0251741 0)
(0.197372 -0.0259117 0)
(0.204368 -0.026601 0)
(0.211396 -0.0272442 0)
(0.21844 -0.0278434 0)
(0.225486 -0.028401 0)
(0.232521 -0.0289192 0)
(0.239534 -0.0294004 0)
(0.246514 -0.0298466 0)
(0.253453 -0.0302597 0)
(0.260343 -0.0306415 0)
(0.267176 -0.0309936 0)
(0.273947 -0.0313171 0)
(0.280649 -0.0316132 0)
(0.287278 -0.0318826 0)
(0.29383 -0.0321259 0)
(0.3003 -0.0323433 0)
(0.306686 -0.0325349 0)
(0.312984 -0.0327004 0)
(0.319191 -0.0328392 0)
(0.325306 -0.0329508 0)
(0.331326 -0.0330341 0)
(0.337249 -0.0330878 0)
(0.343074 -0.0331103 0)
(0.348799 -0.0331 0)
(0.354423 -0.0330546 0)
(0.359945 -0.0329718 0)
(0.365364 -0.0328489 0)
(0.370679 -0.0326828 0)
(0.37589 -0.03247 0)
(0.380996 -0.0322068 0)
(0.385998 -0.031889 0)
(0.390894 -0.0315118 0)
(0.395687 -0.0310702 0)
(0.400375 -0.0305583 0)
(0.404961 -0.0299701 0)
(0.409445 -0.0292987 0)
(0.413829 -0.0285365 0)
(0.418115 -0.0276755 0)
(0.422306 -0.0267068 0)
(0.426406 -0.0256206 0)
(0.430418 -0.0244067 0)
(0.434348 -0.0230539 0)
(0.438203 -0.02155 0)
(0.441988 -0.0198825 0)
(0.445715 -0.018038 0)
(0.449394 -0.0160026 0)
(0.453037 -0.0137625 0)
(0.456662 -0.0113038 0)
(0.460285 -0.00861356 0)
(0.463928 -0.00568021 0)
(0.467615 -0.00249447 0)
(0.471378 0.000951239 0)
(0.475235 0.00465124 0)
(0.47922 0.00859548 0)
(0.483362 0.0127671 0)
(0.487689 0.0171396 0)
(0.492223 0.0216754 0)
(0.496977 0.0263253 0)
(0.50195 0.0310303 0)
(0.507126 0.0357252 0)
(0.512459 0.0403493 0)
(0.100072 -0.00209222 0)
(0.10113 -0.00418151 0)
(0.102812 -0.00607314 0)
(0.105046 -0.00784114 0)
(0.107802 -0.00952175 0)
(0.111038 -0.0111373 0)
(0.114716 -0.0127025 0)
(0.118803 -0.0142254 0)
(0.12327 -0.0157092 0)
(0.128086 -0.0171532 0)
(0.133224 -0.018555 0)
(0.138654 -0.0199107 0)
(0.144349 -0.0212165 0)
(0.15028 -0.0224687 0)
(0.156419 -0.0236641 0)
(0.16274 -0.0248006 0)
(0.169215 -0.0258767 0)
(0.175822 -0.0268921 0)
(0.182535 -0.027847 0)
(0.189333 -0.0287425 0)
(0.196195 -0.0295804 0)
(0.203103 -0.0303626 0)
(0.21004 -0.0310915 0)
(0.216989 -0.0317697 0)
(0.223937 -0.0323999 0)
(0.230871 -0.0329848 0)
(0.237781 -0.0335268 0)
(0.244655 -0.0340283 0)
(0.251485 -0.0344917 0)
(0.258262 -0.0349189 0)
(0.264981 -0.0353115 0)
(0.271635 -0.035671 0)
(0.278218 -0.0359987 0)
(0.284725 -0.0362952 0)
(0.291152 -0.0365613 0)
(0.297496 -0.0367972 0)
(0.303752 -0.0370029 0)
(0.309919 -0.037178 0)
(0.315992 -0.037322 0)
(0.32197 -0.0374341 0)
(0.327852 -0.037513 0)
(0.333633 -0.0375573 0)
(0.339315 -0.0375653 0)
(0.344893 -0.037535 0)
(0.350369 -0.0374638 0)
(0.35574 -0.0373493 0)
(0.361005 -0.0371884 0)
(0.366165 -0.0369778 0)
(0.371218 -0.0367136 0)
(0.376165 -0.0363918 0)
(0.381005 -0.0360079 0)
(0.385739 -0.0355569 0)
(0.390368 -0.0350334 0)
(0.394893 -0.0344314 0)
(0.399315 -0.0337447 0)
(0.403635 -0.0329662 0)
(0.407857 -0.0320886 0)
(0.411983 -0.0311038 0)
(0.416018 -0.0300033 0)
(0.419964 -0.028778 0)
(0.423828 -0.0274183 0)
(0.427616 -0.0259142 0)
(0.431336 -0.0242553 0)
(0.434995 -0.0224312 0)
(0.438605 -0.020431 0)
(0.442176 -0.0182446 0)
(0.445723 -0.015862 0)
(0.449261 -0.0132746 0)
(0.452806 -0.0104753 0)
(0.456378 -0.00745925 0)
(0.459995 -0.00422457 0)
(0.46368 -0.000771292 0)
(0.467459 0.00289443 0)
(0.471341 0.00675272 0)
(0.475347 0.0107829 0)
(0.479491 0.0149586 0)
(0.483781 0.0192469 0)
(0.488216 0.0236091 0)
(0.492787 0.0280023 0)
(0.497473 0.0323825 0)
(0.502235 0.0367137 0)
(0.100045 -0.00233833 0)
(0.101095 -0.00469554 0)
(0.102746 -0.0068357 0)
(0.104939 -0.00883918 0)
(0.107649 -0.010746 0)
(0.110836 -0.0125801 0)
(0.114463 -0.0143572 0)
(0.118498 -0.0160862 0)
(0.122909 -0.0177703 0)
(0.127669 -0.0194087 0)
(0.132747 -0.0209983 0)
(0.138116 -0.0225348 0)
(0.143746 -0.0240138 0)
(0.149609 -0.0254311 0)
(0.155677 -0.0267831 0)
(0.161923 -0.0280674 0)
(0.168321 -0.0292824 0)
(0.174845 -0.0304278 0)
(0.181472 -0.0315039 0)
(0.18818 -0.0325121 0)
(0.194949 -0.0334542 0)
(0.201759 -0.0343327 0)
(0.208595 -0.0351503 0)
(0.215439 -0.0359099 0)
(0.22228 -0.0366147 0)
(0.229103 -0.0372676 0)
(0.235898 -0.0378715 0)
(0.242654 -0.0384291 0)
(0.249364 -0.038943 0)
(0.256019 -0.0394153 0)
(0.262612 -0.039848 0)
(0.269138 -0.0402427 0)
(0.27559 -0.0406007 0)
(0.281965 -0.0409229 0)
(0.288257 -0.0412099 0)
(0.294463 -0.041462 0)
(0.30058 -0.0416791 0)
(0.306604 -0.0418609 0)
(0.312534 -0.0420067 0)
(0.318366 -0.0421154 0)
(0.324099 -0.0421858 0)
(0.32973 -0.0422162 0)
(0.335259 -0.0422048 0)
(0.340683 -0.0421491 0)
(0.346002 -0.0420466 0)
(0.351214 -0.0418945 0)
(0.35632 -0.0416894 0)
(0.361318 -0.0414278 0)
(0.366208 -0.0411056 0)
(0.37099 -0.0407185 0)
(0.375665 -0.0402618 0)
(0.380234 -0.0397304 0)
(0.384697 -0.0391188 0)
(0.389056 -0.0384209 0)
(0.393313 -0.0376304 0)
(0.39747 -0.0367406 0)
(0.40153 -0.0357443 0)
(0.405498 -0.0346338 0)
(0.409377 -0.0334014 0)
(0.413173 -0.0320389 0)
(0.416891 -0.0305378 0)
(0.420539 -0.0288897 0)
(0.424125 -0.0270862 0)
(0.427658 -0.025119 0)
(0.431148 -0.0229804 0)
(0.434607 -0.0206635 0)
(0.438047 -0.0181623 0)
(0.441483 -0.0154724 0)
(0.44493 -0.0125916 0)
(0.448402 -0.00951994 0)
(0.451915 -0.00626048 0)
(0.455483 -0.00281888 0)
(0.459131 0.000799292 0)
(0.462856 0.00457352 0)
(0.46667 0.00848103 0)
(0.470579 0.0124978 0)
(0.474583 0.0165969 0)
(0.478676 0.0207491 0)
(0.482844 0.0249237 0)
(0.487069 0.0290911 0)
(0.491318 0.0332301 0)
(0.100017 -0.00259581 0)
(0.10106 -0.00523373 0)
(0.102685 -0.00763607 0)
(0.104837 -0.00988858 0)
(0.107501 -0.0120351 0)
(0.11064 -0.0141011 0)
(0.114216 -0.0161035 0)
(0.118196 -0.0180515 0)
(0.12255 -0.0199483 0)
(0.12725 -0.0217929 0)
(0.132266 -0.0235816 0)
(0.137569 -0.0253095 0)
(0.14313 -0.0269714 0)
(0.14892 -0.0285627 0)
(0.154911 -0.0300795 0)
(0.161076 -0.0315189 0)
(0.167388 -0.0328794 0)
(0.173822 -0.0341605 0)
(0.180354 -0.0353629 0)
(0.186963 -0.0364881 0)
(0.193629 -0.0375382 0)
(0.200332 -0.038516 0)
(0.207056 -0.0394248 0)
(0.213785 -0.0402679 0)
(0.220506 -0.0410487 0)
(0.227206 -0.0417707 0)
(0.233875 -0.0424371 0)
(0.240503 -0.043051 0)
(0.24708 -0.0436153 0)
(0.253601 -0.0441323 0)
(0.260057 -0.0446042 0)
(0.266442 -0.0450328 0)
(0.272753 -0.0454195 0)
(0.278983 -0.0457653 0)
(0.285128 -0.0460709 0)
(0.291186 -0.0463365 0)
(0.297152 -0.0465621 0)
(0.303024 -0.0467471 0)
(0.308799 -0.0468909 0)
(0.314475 -0.0469922 0)
(0.32005 -0.0470496 0)
(0.325522 -0.0470613 0)
(0.33089 -0.0470252 0)
(0.336152 -0.0469387 0)
(0.341306 -0.0467992 0)
(0.346354 -0.0466034 0)
(0.351293 -0.0463479 0)
(0.356123 -0.0460289 0)
(0.360846 -0.0456423 0)
(0.36546 -0.0451835 0)
(0.369966 -0.0446479 0)
(0.374367 -0.0440301 0)
(0.378662 -0.0433248 0)
(0.382855 -0.042526 0)
(0.386947 -0.0416277 0)
(0.390941 -0.0406234 0)
(0.394841 -0.0395065 0)
(0.398652 -0.0382702 0)
(0.402378 -0.0369074 0)
(0.406025 -0.0354111 0)
(0.409599 -0.0337744 0)
(0.413108 -0.0319905 0)
(0.41656 -0.0300531 0)
(0.419963 -0.0279563 0)
(0.423329 -0.0256952 0)
(0.426668 -0.0232657 0)
(0.42999 -0.0206654 0)
(0.433308 -0.0178931 0)
(0.436634 -0.0149502 0)
(0.43998 -0.0118399 0)
(0.443357 -0.00856849 0)
(0.446775 -0.00514439 0)
(0.450242 -0.00157665 0)
(0.453778 0.00212581 0)
(0.457366 0.00593671 0)
(0.461013 0.00983421 0)
(0.464714 0.0137968 0)
(0.468463 0.0178027 0)
(0.472246 0.02183 0)
(0.476046 0.0258589 0)
(0.479837 0.029877 0)
(0.0999864 -0.00286564 0)
(0.101026 -0.00579775 0)
(0.102627 -0.00847647 0)
(0.10474 -0.0109921 0)
(0.10736 -0.0133924 0)
(0.11045 -0.0157044 0)
(0.113974 -0.0179456 0)
(0.117898 -0.0201259 0)
(0.122194 -0.0222483 0)
(0.126831 -0.0243113 0)
(0.131782 -0.0263105 0)
(0.137015 -0.0282404 0)
(0.142501 -0.0300951 0)
(0.148213 -0.0318693 0)
(0.15412 -0.0335588 0)
(0.160196 -0.0351605 0)
(0.166414 -0.0366728 0)
(0.172748 -0.0380951 0)
(0.179177 -0.0394284 0)
(0.185676 -0.0406744 0)
(0.192227 -0.0418358 0)
(0.198811 -0.0429157 0)
(0.205412 -0.0439177 0)
(0.212013 -0.0448457 0)
(0.218603 -0.0457036 0)
(0.225168 -0.0464953 0)
(0.231698 -0.0472244 0)
(0.238183 -0.0478943 0)
(0.244616 -0.0485083 0)
(0.250989 -0.0490689 0)
(0.257295 -0.0495787 0)
(0.263528 -0.0500396 0)
(0.269684 -0.050453 0)
(0.275757 -0.0508201 0)
(0.281745 -0.0511415 0)
(0.287642 -0.0514176 0)
(0.293447 -0.0516482 0)
(0.299155 -0.0518328 0)
(0.304766 -0.0519705 0)
(0.310276 -0.05206 0)
(0.315684 -0.0520997 0)
(0.320987 -0.0520877 0)
(0.326186 -0.0520216 0)
(0.331277 -0.0518988 0)
(0.336261 -0.0517163 0)
(0.341137 -0.0514709 0)
(0.345904 -0.0511589 0)
(0.350563 -0.0507765 0)
(0.355113 -0.0503194 0)
(0.359555 -0.0497832 0)
(0.363891 -0.0491629 0)
(0.368122 -0.0484536 0)
(0.372249 -0.04765 0)
(0.376274 -0.0467464 0)
(0.380202 -0.0457373 0)
(0.384034 -0.0446168 0)
(0.387776 -0.0433788 0)
(0.391432 -0.0420175 0)
(0.395006 -0.0405269 0)
(0.398505 -0.0389014 0)
(0.401936 -0.0371356 0)
(0.405305 -0.0352244 0)
(0.408621 -0.0331635 0)
(0.411893 -0.0309493 0)
(0.415128 -0.0285792 0)
(0.418338 -0.0260516 0)
(0.42153 -0.0233666 0)
(0.424716 -0.0205257 0)
(0.427903 -0.0175322 0)
(0.431102 -0.0143916 0)
(0.43432 -0.011111 0)
(0.437563 -0.00769997 0)
(0.440836 -0.00416904 0)
(0.444145 -0.000526859 0)
(0.447493 0.00321313 0)
(0.450867 0.00702745 0)
(0.454265 0.0108981 0)
(0.45768 0.0148084 0)
(0.461101 0.0187429 0)
(0.464513 0.0226877 0)
(0.467896 0.0266364 0)
(0.0999537 -0.00314886 0)
(0.100993 -0.00638946 0)
(0.102572 -0.00935936 0)
(0.104648 -0.0121529 0)
(0.107224 -0.0148215 0)
(0.110266 -0.0173938 0)
(0.113737 -0.0198881 0)
(0.117605 -0.0223143 0)
(0.12184 -0.0246754 0)
(0.126413 -0.0269691 0)
(0.131293 -0.0291904 0)
(0.136451 -0.0313329 0)
(0.141858 -0.0333901 0)
(0.147483 -0.035356 0)
(0.153299 -0.0372259 0)
(0.159277 -0.0389966 0)
(0.165392 -0.0406664 0)
(0.171617 -0.0422349 0)
(0.177929 -0.0437032 0)
(0.184308 -0.0450735 0)
(0.190732 -0.0463487 0)
(0.197185 -0.0475326 0)
(0.203648 -0.0486293 0)
(0.210109 -0.0496432 0)
(0.216553 -0.0505786 0)
(0.222968 -0.0514399 0)
(0.229346 -0.0522313 0)
(0.235676 -0.0529565 0)
(0.24195 -0.053619 0)
(0.248161 -0.0542219 0)
(0.254303 -0.0547677 0)
(0.260371 -0.0552587 0)
(0.266359 -0.0556964 0)
(0.272263 -0.056082 0)
(0.278079 -0.0564164 0)
(0.283805 -0.0566996 0)
(0.289436 -0.0569316 0)
(0.29497 -0.0571118 0)
(0.300406 -0.0572392 0)
(0.30574 -0.0573123 0)
(0.310971 -0.0573295 0)
(0.316098 -0.0572887 0)
(0.321119 -0.0571873 0)
(0.326033 -0.0570227 0)
(0.33084 -0.0567917 0)
(0.335538 -0.056491 0)
(0.340129 -0.0561168 0)
(0.344611 -0.0556653 0)
(0.348986 -0.0551323 0)
(0.353255 -0.0545133 0)
(0.357418 -0.0538036 0)
(0.361478 -0.0529985 0)
(0.365436 -0.052093 0)
(0.369296 -0.051082 0)
(0.37306 -0.0499603 0)
(0.376732 -0.0487228 0)
(0.380316 -0.0473644 0)
(0.383818 -0.0458801 0)
(0.387242 -0.0442654 0)
(0.390595 -0.0425158 0)
(0.393882 -0.0406273 0)
(0.397111 -0.0385968 0)
(0.40029 -0.0364217 0)
(0.403424 -0.0341002 0)
(0.406524 -0.0316316 0)
(0.409596 -0.0290165 0)
(0.412648 -0.0262566 0)
(0.415688 -0.023355 0)
(0.418723 -0.0203165 0)
(0.421759 -0.0171472 0)
(0.424802 -0.0138549 0)
(0.427854 -0.0104488 0)
(0.43092 -0.00693907 0)
(0.433996 -0.00333535 0)
(0.437093 0.000356432 0)
(0.440199 0.00411943 0)
(0.443303 0.00793536 0)
(0.446403 0.0117908 0)
(0.44949 0.0156741 0)
(0.452552 0.0195758 0)
(0.455573 0.0234929 0)
(0.0999185 -0.00344652 0)
(0.100959 -0.00701083 0)