/*--------------------------------*- C++ -*----------------------------------*\
  =========                 |
  \\      /  F ield         | OpenFOAM: The Open Source CFD Toolbox
   \\    /   O peration     | Website:  https://openfoam.org
    \\  /    A nd           | Version:  7
     \\/     M anipulation  |
\*---------------------------------------------------------------------------*/
FoamFile
{
    version     2.0;
    format      ascii;
    class       volScalarField;
    location    "2.4";
    object      p;
}
// * * * * * * * * * * * * * * * * * * * * * * * * * * * * * * * * * * * * * //

dimensions      [0 2 -2 0 0 0 0];

internalField   nonuniform List<scalar> 
2790
(
148.101
148.008
148.275
148.847
149.627
150.584
151.717
153.024
154.5
156.142
157.941
159.892
161.986
164.211
166.551
168.986
171.49
174.029
176.56
179.034
181.392
183.569
185.498
187.118
188.378
189.251
189.687
189.742
189.793
190.006
147.898
147.916
148.208
148.776
149.553
150.507
151.635
152.936
154.405
156.038
157.828
159.769
161.852
164.066
166.395
168.82
171.316
173.849
176.378
178.856
181.224
183.418
185.372
187.02
188.304
189.178
189.574
189.629
189.761
190.046
147.699
147.787
148.098
148.656
149.42
150.361
151.474
152.757
154.205
155.813
157.575
159.485
161.533
163.708
165.996
168.378
170.83
173.32
175.812
178.258
180.608
182.8
184.772
186.461
187.811
188.786
189.379
189.734
190.049
190.348
147.474
147.593
147.917
148.466
149.215
150.14
151.233
152.492
153.911
155.486
157.209
159.075
161.074
163.194
165.422
167.74
170.124
172.547
174.973
177.363
179.67
181.841
183.822
185.561
187.015
188.167
189.034
189.705
190.258
190.777
147.214
147.346
147.678
148.22
148.952
149.857
150.924
152.151
153.534
155.065
156.739
158.549
160.484
162.535
164.687
166.922
169.22
171.555
173.896
176.208
178.453
180.588
182.569
184.359
185.929
187.271
188.401
189.363
190.174
190.92
146.913
147.051
147.385
147.917
148.63
149.508
150.544
151.733
153.071
154.551
156.166
157.909
159.77
161.737
163.798
165.936
168.131
170.36
172.596
174.811
176.973
179.05
181.011
182.832
184.494
185.995
187.341
188.546
189.566
190.484
146.57
146.709
147.041
147.56
148.249
149.097
150.096
151.242
152.528
153.948
155.495
157.161
158.936
160.809
162.766
164.792
166.867
168.973
171.085
173.181
175.236
177.226
179.133
180.943
182.648
184.248
185.741
187.12
188.284
189.331
146.185
146.322
146.647
147.149
147.813
148.627
149.585
150.68
151.908
153.261
154.732
156.312
157.99
159.756
161.596
163.496
165.436
167.4
169.368
171.319
173.236
175.103
176.909
178.651
180.329
181.947
183.501
184.973
186.223
187.373
145.759
145.892
146.206
146.689
147.324
148.1
149.011
150.052
151.216
152.495
153.881
155.366
156.938
158.587
160.298
162.056
163.845
165.649
167.448
169.226
170.969
172.667
174.314
175.914
177.475
179.009
180.517
181.986
183.257
184.495
145.292
145.42
145.721
146.182
146.784
147.519
148.381
149.362
150.456
151.654
152.95
154.331
155.788
157.309
158.878
160.482
162.104
163.726
165.332
166.905
168.433
169.907
171.324
172.691
174.023
175.341
176.661
177.998
179.198
180.502
144.787
144.909
145.194
145.63
146.198
146.889
147.696
148.613
149.632
150.745
151.943
153.214
154.548
155.931
157.348
158.784
160.222
161.643
163.03
164.364
165.632
166.821
167.928
168.955
169.918
170.846
171.776
172.773
173.735
175.053
144.245
144.359
144.627
145.036
145.567
146.211
146.961
147.81
148.751
149.773
150.868
152.023
153.226
154.463
155.719
156.976
158.214
159.415
160.557
161.619
162.581
163.423
164.131
164.696
165.122
165.43
165.672
165.979
166.359
167.532
143.668
143.774
144.024
144.404
144.896
145.49
146.181
146.959
147.817
148.745
149.732
150.766
151.833
152.917
154.003
155.07
156.097
157.061
157.936
158.696
159.309
159.743
159.965
159.94
159.636
159.037
158.161
157.167
156.217
156.72
143.058
143.157
143.387
143.736
144.188
144.731
145.359
146.064
146.837
147.667
148.543
149.451
150.377
151.304
152.213
153.083
153.889
154.603
155.195
155.627
155.857
155.835
155.496
154.764
153.541
151.711
149.147
145.842
141.889
139.849
142.419
142.509
142.719
143.036
143.445
143.936
144.5
145.13
145.816
146.546
147.308
148.089
148.871
149.637
150.365
151.032
151.61
152.067
152.364
152.455
152.283
151.773
150.829
149.315
147.037
143.705
138.861
131.841
121.369
109.127
3.05342
3.0149
2.88786
2.70804
2.51021
2.31063
2.11522
1.92664
1.74652
1.57581
1.4149
1.2641
1.12447
0.998857
0.891913
0.80772
0.746119
0.703112
0.677055
0.668604
0.674402
0.685113
0.691808
0.687177
0.665884
0.621839
0.548524
0.442275
0.300887
0.125957
2.95469
2.91006
2.79175
2.62637
2.44258
2.25478
2.06902
1.88835
1.71462
1.54898
1.39201
1.24398
1.10588
0.980863
0.874677
0.792619
0.734602
0.694225
0.670143
0.663733
0.671403
0.68294
0.689673
0.685897
0.668724
0.627637
0.55535
0.450262
0.308466
0.124784
2.85761
2.80528
2.69209
2.53873
2.36841
2.19254
2.01684
1.84455
1.67771
1.51771
1.36528
1.22059
1.08421
0.959652
0.854448
0.775377
0.719037
0.675061
0.652796
0.655584
0.673613
0.69478
0.709127
0.709628
0.687917
0.640175
0.564165
0.456812
0.311332
0.123747
2.77706
2.71708
2.60658
2.46173
2.30222
2.13635
1.96935
1.80443
1.64372
1.48892
1.34116
1.20059
1.06621
0.939968
0.830926
0.757101
0.717289
0.683783
0.654858
0.6498
0.667683
0.691294
0.708902
0.712476
0.694468
0.648795
0.571323
0.458964
0.308935
0.118411
2.74062
2.67322
2.56511
2.42517
2.27209
2.11209
1.95025
1.78969
1.63252
1.48057
1.33551
1.19886
1.07058
0.952776
0.850963
0.768366
0.711227
0.681607
0.663646
0.662698
0.677909
0.698164
0.713221
0.714878
0.695366
0.647623
0.566321
0.451366
0.299344
0.108856
2.76788
2.69064
2.58242
2.44156
2.28786
2.12734
1.9653
1.80497
1.64849
1.4974
1.35296
1.21656
1.08971
0.974787
0.875034
0.795626
0.738336
0.700842
0.680724
0.677471
0.687532
0.702108
0.712089
0.709353
0.686123
0.635211
0.551386
0.434389
0.282849
0.0986179
2.86316
2.77509
2.65699
2.5071
2.34415
2.17574
2.00732
1.84218
1.68237
1.52922
1.38393
1.24736
1.11984
1.00333
0.903172
0.82351
0.764336
0.723608
0.699766
0.691441
0.694592
0.701877
0.705168
0.696635
0.668613
0.614001
0.527989
0.41015
0.260985
0.0884727
3.01551
2.90614
2.76706
2.59855
2.41866
2.23615
2.05701
1.88432
1.71951
1.56278
1.41441
1.27575
1.14826
1.03347
0.933923
0.852674
0.790282
0.745517
0.716861
0.702351
0.697973
0.697424
0.693451
0.67867
0.645656
0.587519
0.499709
0.381567
0.236267
0.0786202
3.18304
3.04228
2.87284
2.68075
2.48299
2.28769
2.09802
1.91742
1.74714
1.5878
1.43908
1.30064
1.17351
1.05941
0.960183
0.877623
0.812222
0.763273
0.729454
0.708619
0.696963
0.688932
0.678008
0.657319
0.619772
0.558378
0.469385
0.351293
0.210859
0.069105
3.3107
3.1427
2.94946
2.73551
2.5207
2.31421
2.11918
1.9356
1.76365
1.60335
1.45455
1.31689
1.19087
1.07777
0.978975
0.895529
0.827691
0.77498
0.73631
0.709662
0.691546
0.676975
0.660008
0.634264
0.593029
0.529603
0.439528
0.321474
0.186214
0.0600632
3.39451
3.19732
2.98073
2.75071
2.52487
2.31127
2.11312
1.92967
1.75978
1.6024
1.45651
1.32148
1.19774
1.08646
0.988744
0.905144
0.835643
0.779878
0.73707
0.705534
0.682156
0.662365
0.640634
0.611009
0.567183
0.502634
0.411863
0.293677
0.163192
0.0516471
3.3981
3.16642
2.92711
2.68816
2.4644
2.25853
2.06942
1.89465
1.73286
1.58303
1.44355
1.31341
1.19327
1.08478
0.989099
0.90632
0.836048
0.778027
0.731952
0.696658
0.669436
0.645988
0.621007
0.588867
0.543671
0.478857
0.387732
0.269078
0.14238
0.0439958
3.21994
2.95964
2.73487
2.52409
2.32979
2.15176
1.98673
1.83055
1.68341
1.54612
1.41677
1.29363
1.17808
1.07318
0.98059
0.899765
0.829626
0.770059
0.721528
0.683639
0.654106
0.628712
0.602132
0.568924
0.523583
0.459337
0.368212
0.248628
0.124268
0.0372426
2.77123
2.49549
2.36317
2.24934
2.12208
1.99578
1.87194
1.74348
1.61556
1.49515
1.37964
1.26498
1.15398
1.05288
0.964479
0.886928
0.81774
0.757023
0.706574
0.667154
0.636887
0.611366
0.584921
0.552075
0.50768
0.444872
0.3542
0.233223
0.109407
0.0315149
1.89604
1.62043
1.76166
1.88499
1.86187
1.80678
1.74191
1.64611
1.53568
1.43495
1.33756
1.23193
1.12345
1.02525
0.942267
0.869715
0.802116
0.740038
0.687709
0.647643
0.618278
0.594566
0.570049
0.538946
0.496452
0.435894
0.346427
0.223905
0.0985907
0.0268953
141.739
141.82
142.009
142.293
142.659
143.094
143.592
144.144
144.74
145.367
146.013
146.661
147.295
147.896
148.439
148.898
149.243
149.435
149.43
149.171
148.586
147.578
146.016
143.704
140.344
135.439
128.07
116.316
94.1368
34.2349
141.012
141.083
141.249
141.499
141.819
142.197
142.626
143.098
143.6
144.12
144.645
145.158
145.64
146.071
146.425
146.672
146.779
146.704
146.395
145.786
144.795
143.307
141.164
138.134
133.861
127.76
118.798
105.244
85.7392
57.3484
140.242
140.304
140.446
140.66
140.932
141.252
141.61
141.999
142.406
142.817
143.22
143.595
143.924
144.183
144.347
144.383
144.255
143.916
143.312
142.371
141.003
139.086
136.457
132.886
128.049
121.49
112.624
100.818
86.6347
70.1223
139.431
139.483
139.601
139.779
140.002
140.261
140.548
140.852
141.163
141.465
141.743
141.981
142.156
142.246
142.222
142.052
141.695
141.106
140.226
138.982
137.284
135.014
132.021
128.11
123.032
116.499
108.216
97.8553
85.3611
70.3012
138.581
138.622
138.717
138.856
139.03
139.229
139.443
139.663
139.876
140.069
140.225
140.326
140.35
140.274
140.069
139.7
139.129
138.308
137.178
135.671
133.699
131.159
127.919
123.826
118.699
112.341
104.553
95.0953
83.8022
70.8825
137.694
137.725
137.794
137.896
138.021
138.158
138.3
138.436
138.553
138.637
138.672
138.64
138.518
138.283
137.905
137.35
136.581
135.55
134.203
132.476
130.29
127.557
124.17
120.011
114.952
108.857
101.607
93.1025
83.3367
72.7229
136.773
136.793
136.838
136.902
136.977
137.054
137.124
137.176
137.199
137.177
137.095
136.934
136.672
136.286
135.747
135.022
134.074
132.861
131.331
129.427
127.084
124.227
120.775
116.641
111.738
105.989
99.3387
91.7782
83.3515
74.3937
135.82
135.83
135.85
135.877
135.904
135.921
135.92
135.891
135.822
135.697
135.503
135.219
134.826
134.299
133.612
132.733
131.63
130.261
128.583
126.546
124.097
121.176
117.724
113.682
108.996
103.627
97.5616
90.8206
83.4539
75.7327
134.84
134.839
134.836
134.826
134.805
134.764
134.694
134.586
134.428
134.206
133.905
133.506
132.99
132.335
131.515
130.502
129.264
127.768
125.975
123.845
121.334
118.399
114.997
111.091
106.651
101.664
96.1352
90.0993
83.6099
76.8934
133.837
133.826
133.799
133.754
133.686
133.588
133.453
133.27
133.027
132.713
132.311
131.806
131.178
130.407
129.469
128.34
126.992
125.396
123.519
121.329
118.794
115.882
112.565
108.822
104.64
100.019
94.9788
89.5571
83.8072
77.9134
132.814
132.794
132.744
132.665
132.552
132.4
132.202
131.947
131.626
131.225
130.731
130.128
129.399
128.526
127.487
126.261
124.824
123.151
121.218
118.998
116.469
113.609
110.401
106.835
102.909
98.6337
94.032
89.1431
84.0149
78.795
131.778
131.748
131.677
131.564
131.409
131.206
130.949
130.627
130.232
129.751
129.173
128.483
127.665
126.703
125.578
124.273
122.767
121.04
119.074
116.849
114.349
111.56
108.475
105.091
101.413
97.4565
93.2458
88.8172
84.2125
79.5506
130.733
130.694
130.603
130.459
130.264
130.013
129.7
129.316
128.853
128.3
127.646
126.878
125.983
124.945
123.75
122.382
120.826
119.065
117.085
114.874
112.42
109.717
106.762
103.558
100.114
96.4478
92.5831
88.5523
84.391
80.1952
129.685
129.638
129.527
129.354
129.122
128.827
128.462
128.022
127.497
126.88
126.158
125.323
124.361
123.26
122.009
120.594
119.003
117.224
115.247
113.064
110.669
108.059
105.235
102.205
98.9798
95.576
92.0166
88.3299
84.5459
80.7423
128.64
128.586
128.457
128.257
127.99
127.654
127.243
126.752
126.172
125.496
124.717
123.823
122.805
121.654
120.359
118.91
117.298
115.515
113.554
111.41
109.081
106.568
103.875
101.009
97.9844
94.8164
91.5258
88.1369
84.6752
81.2038
127.605
127.543
127.398
127.174
126.876
126.503
126.05
125.512
124.884
124.158
123.328
122.385
121.322
120.131
118.804
117.333
115.712
113.935
112
109.902
107.644
105.228
102.66
99.9485
97.1066
94.1493
91.095
87.9646
84.7792
81.5905
126.586
126.518
126.358
126.112
125.785
125.379
124.888
124.31
123.64
122.871
121.998
121.015
119.916
118.695
117.345
115.862
114.241
112.48
110.576
108.531
106.345
104.024
101.574
99.0055
96.3292
93.5597
90.7129
87.8067
84.859
81.9121
125.591
125.517
125.344
125.077
124.725
124.289
123.766
123.153
122.446
121.64
120.732
119.717
118.59
117.347
115.984
114.497
112.884
111.144
109.278
107.286
105.172
102.943
100.604
98.1655
95.6385
93.0356
90.3709
87.6595
84.9167
82.1773
124.626
124.547
124.362
124.078
123.703
123.241
122.69
122.047
121.309
120.473
119.537
118.496
117.349
116.091
114.721
113.237
111.638
109.924
108.097
106.159
104.116
101.973
99.7365
97.4168
95.0234
92.568
90.0628
87.5207
84.9547
82.3937
123.699
123.615
123.42
123.12
122.726
122.242
121.667
120.998
120.234
119.374
118.415
117.356
116.194
114.928
113.557
112.08
110.499
108.813
107.027
105.143
103.167
101.104
98.9623
96.7496
94.4754
92.15
89.7842
87.3892
84.9759
82.5684
122.817
122.729
122.525
122.212
121.801
121.298
120.702
120.012
119.228
118.348
117.372
116.299
115.128
113.859
112.491
111.026
109.465
107.809
106.064
104.232
102.318
100.33
98.2731
96.1562
93.9876
91.7765
89.5322
87.2646
84.983
82.7076
121.988
121.898
121.685
121.36
120.936
120.417
119.804
119.096
118.295
117.4
116.412
115.329
114.153
112.885
111.524
110.073
108.533
106.908
105.202
103.419
101.563
99.6425
97.6625
95.6308
93.5552
91.4439
89.3052
87.1476
84.9794
82.8172
121.221
121.127
120.908
120.573
120.137
119.604
118.977
118.256
117.442
116.536
115.538
114.45
113.273
112.007
110.656
109.22
107.702
106.107
104.438
102.7
100.898
99.0373
97.1254
95.1687
93.1743
91.1495
89.1018
87.0388
84.9675
82.9021
120.523
120.427
120.201
119.858
119.412
118.868
118.23
117.498
116.674
115.759
114.756
113.665
112.489
111.229
109.887
108.467
106.971
105.404
103.769
102.072
100.317
98.5109
96.6588
94.7673
92.843
90.8926
88.9228
86.9403
84.9515
82.9682
119.904
119.805
119.574
119.223
118.767
118.215
117.568
116.827
115.996
115.075
114.068
112.977
111.803
110.549
109.219
107.814
106.339
104.797
103.193
101.532
99.8193
98.0596
96.2589
94.4232
92.5586
90.6712
88.7671
86.8522
84.9323
83.0174
119.371
119.27
119.033
118.675
118.212
117.652
116.998
116.252
115.415
114.491
113.482
112.391
111.221
109.974
108.654
107.264
105.807
104.288
102.712
101.082
99.4046
97.6845
95.9272
94.1384
92.3236
90.4886
88.6389
86.78
84.9172
83.059
118.936
118.831
118.587
118.221
117.751
117.186
116.526
115.774
114.934
114.007
112.998
111.909
110.743
109.502
108.192
106.814
105.373
103.874
102.32
100.717
99.0685
97.3807
95.6587
93.9076
92.1328
90.3395
88.5331
86.7185
84.9007
83.0865
118.61
118.499
118.246
117.873
117.399
116.829
116.165
115.409
114.566
113.639
112.629
111.542
110.379
109.145
107.842
106.475
105.047
103.564
102.028
100.445
98.8203
97.158
95.4635
93.7418
91.9981
90.2373
88.4645
86.6844
84.9018
83.1228
118.408
118.273
118.003
117.624
117.148
116.575
115.908
115.151
114.307
113.379
112.371
111.286
110.126
108.897
107.6
106.241
104.822
103.349
101.826
100.258
98.6484
97.0033
95.3271
93.625
91.9018
90.1623
88.4114
86.6535
84.8931
83.1351
118.389
118.19
117.892
117.507
117.028
116.452
115.782
115.023
114.178
113.25
112.243
111.159
110.003
108.776
107.485
106.131
104.719
103.254
101.739
100.18
98.5812
96.9472
95.2829
93.5931
91.8828
90.1565
88.419
86.6748
84.928
83.1831
-50.0065
-29.8797
-10.325
37.1348
29.9689
18.4937
52.8081
40.8859
29.888
54.1309
43.7865
35.8313
58.4061
50.1787
43.482
62.7495
55.8867
50.0365
65.9749
60.1254
55.1029
68.5254
63.5223
59.2306
70.6739
66.3564
62.6586
72.4862
68.7171
65.4967
74.0088
70.6843
67.8509
75.2907
72.3313
69.8141
76.372
73.7151
71.4587
77.2845
74.8807
72.8414
78.0543
75.8641
74.0073
78.703
76.6945
74.9922
79.2486
77.3954
75.8247
79.706
77.9863
76.5282
80.088
78.4833
77.1218
80.4054
78.9001
77.6217
80.6677
79.2481
78.041
80.8833
79.5375
78.3916
81.0589
79.7764
78.6827
81.2023
79.9736
78.9241
81.316
80.1326
79.1202
81.4117
80.2657
79.2834
81.4807
80.3645
79.407
81.5517
80.4582
79.5179
81.5844
80.5072
79.581
81.6533
80.5903
79.6705
-0.950002
-0.755414
0.617263
1.56176
1.62764
1.60588
1.61267
1.55254
1.44736
1.36966
1.29836
1.201
1.08868
0.99052
0.914997
0.85041
0.784908
0.720162
0.665166
0.625125
0.598476
0.578774
0.558155
0.530236
0.490563
0.433008
0.345847
0.222157
0.0928837
0.0234832
4.909
1.68903
2.43555
2.16225
1.26678
1.1544
1.48322
1.53818
1.37554
1.30433
1.26923
1.17865
1.04868
0.946394
0.883537
0.832789
0.769367
0.698049
0.63808
0.598633
0.577142
0.56431
0.549895
0.526601
0.49048
0.436508
0.352991
0.22946
0.0937802
0.021616
15.7458
7.26798
4.29394
2.33069
1.71665
1.97729
2.15907
1.61952
1.09722
1.09115
1.24938
1.20655
1.02132
0.898491
0.849753
0.82123
0.758883
0.672955
0.604776
0.567562
0.555039
0.552654
0.546676
0.529067
0.497125
0.447504
0.369697
0.249748
0.106485
0.0222358
25.1863
15.3761
9.57546
5.89017
3.8816
2.87134
2.13673
1.58636
1.36021
1.53217
1.63913
1.28423
0.884953
0.740899
0.764911
0.823811
0.772685
0.653893
0.569544
0.534232
0.534109
0.546023
0.550703
0.539982
0.513573
0.469405
0.398707
0.285795
0.134354
0.025732
34.2152
24.5139
17.2236
11.9097
8.19716
5.66171
3.92134
2.80602
2.14412
1.80991
1.54162
1.26141
1.00711
0.902531
0.957674
0.978148
0.794777
0.581001
0.482204
0.471054
0.507969
0.550044
0.569176
0.56401
0.542075
0.502683
0.437874
0.333448
0.1777
0.0315686
42.0845
33.1948
25.3248
18.8939
13.9505
10.2609
7.54385
5.56596
4.13647
3.12678
2.40097
1.86318
1.43715
1.15571
1.02195
0.923811
0.788235
0.639071
0.55472
0.546895
0.576599
0.60018
0.601089
0.586497
0.571141
0.546435
0.490696
0.394131
0.24875
0.0404026
48.4973
40.7147
32.9566
26.0734
20.4325
15.9288
12.357
9.54466
7.35809
5.68765
4.41529
3.42391
2.63786
2.05061
1.64445
1.34838
1.09569
0.868586
0.708365
0.63357
0.619738
0.632023
0.648282
0.663079
0.672007
0.650068
0.579414
0.468683
0.344452
0.0512567
53.7214
47.003
39.7566
32.9289
27.0317
22.0557
17.8785
14.4071
11.5637
9.26443
7.41231
5.91268
4.7001
3.74228
3.00446
2.42753
1.95181
1.5549
1.25374
1.05623
0.941078
0.875877
0.83634
0.810998
0.788668
0.747121
0.666746
0.541931
0.381841
-0.0428645
57.9843
52.1727
45.5923
39.1164
33.2857
28.15
23.6474
19.7409
16.3986
13.5722
11.198
9.21036
7.55469
6.18997
5.07639
4.16516
3.40924
2.78349
2.28476
1.90815
1.63301
1.43072
1.27719
1.15598
1.05081
0.939395
0.799549
0.61342
0.351985
-0.266641
61.4631
56.3954
50.4915
44.5008
38.9337
33.8667
29.2715
25.1438
21.4854
18.2803
15.4957
13.091
11.0265
9.26622
7.77511
6.51479
5.44826
4.54924
3.80342
3.19813
2.71348
2.32423
2.00639
1.73944
1.50276
1.27217
1.0215
0.720094
0.311328
-0.470842
64.3198
59.857
54.5721
49.0954
43.8849
39.0229
34.4967
30.3182
26.5085
23.0744
20.0056
17.2824
14.8808
12.7758
10.9411
9.34824
7.96857
6.77808
5.759
4.89544
4.16819
3.55434
3.03036
2.57372
2.16138
1.76744
1.36216
0.906989
0.340365
-0.552426
66.6857
62.7167
57.9714
52.9822
48.1527
43.5609
39.1996
35.0862
31.2507
27.7122
24.4756
21.5362
18.8835
16.5037
14.3801
12.4932
10.8224
9.34826
8.05384
6.92309
5.93803
5.07796
4.32074
3.64378
3.02334
2.43296
1.84181
1.21082
0.487818
-0.487106
68.659
65.097
60.8132
56.2628
51.8014
47.499
43.3492
39.3692
35.5909
32.0394
28.7281
25.6618
22.8401
20.2581
17.9075
15.7769
13.8527
12.1209
10.5672
9.17762
7.93609
6.82452
5.82293
4.91005
4.06295
3.25616
2.46055
1.64156
0.760572
-0.294485
70.314
67.0908
63.1996
59.035
54.9121
50.8926
46.969
43.1557
39.4835
35.9788
32.6592
29.5352
26.6126
23.893
21.3746
19.0524
16.9188
14.9645
13.1791
11.5511
10.0673
8.71234
7.4689
6.31785
5.23827
4.207
3.19836
2.18418
1.13813
-0.0126541
71.7076
68.7691
65.2124
61.3836
57.5643
53.8089
50.1079
46.4726
42.9307
39.5082
36.2238
33.0908
30.1187
27.3134
24.6777
22.2112
19.9109
17.7716
15.7866
13.9472
12.2432
10.6619
9.18887
7.80758
6.49968
5.24504
4.02201
2.80856
1.58729
0.31607
72.8845
70.1867
66.9158
63.3782
59.8279
56.3129
52.822
49.3631
45.9606
42.6384
39.4153
36.3055
33.3203
30.4682
27.755
25.1834
22.754
20.4649
18.3122
16.2903
14.3912
12.6053
10.9207
9.32347
7.79811
6.32748
4.89369
3.47951
2.07286
0.654325
73.8798
71.3864
68.3604
65.0755
61.762
58.4629
55.1655
51.8746
48.6112
45.3968
42.2492
39.1826
36.2088
33.3378
30.577
27.9316
25.4042
22.9956
20.7044
18.5271
16.4584
14.4908
12.6149
10.8194
9.09104
7.41558
5.77802
4.16432
2.56467
0.974999
74.7219
72.4027
69.587
66.5212
63.4155
60.3086
57.1868
54.0522
50.9223
47.8165
44.7509
41.739
38.7927
35.9221
33.1359
30.4404
27.8401
25.3374
22.9327
20.6247
18.4099
16.2828
14.2362
12.2607
10.3455
8.47833
6.64626
4.83699
3.04079
1.26267
75.4337
73.2631
70.6285
67.7526
64.8287
61.8919
58.9279
55.9363
52.9317
49.9311
46.949
43.9977
41.0886
38.2318
35.4361
32.7088
30.0552
27.4791
24.9823
22.5649
20.225
17.959
15.7612
13.624
11.5382
9.49327
7.47755
5.47934
3.48771
1.51194
76.0345
73.9908
71.5119
68.8005
66.0353
63.2483
60.4247
57.5624
54.6733
51.7721
48.8716
45.9829
43.1165
40.2821
37.4884
34.7429
32.0516
29.4189
26.8479
24.3395
21.8933
19.5068
17.1758
14.8941
12.6539
10.4455
8.2582
6.08014
3.89874
1.72425
76.54
74.6046
72.2595
69.6904
67.0631
64.4073
61.708
58.9613
56.1771
53.368
50.545
47.7182
44.8968
42.0901
39.3062
36.5527
33.8357
31.1602
28.5297
25.9461
23.4099
20.9196
18.4721
16.0622
13.6829
11.3256
8.97976
6.63313
4.2715
1.9042
76.964
75.1208
72.8904
70.4438
67.9358
65.3942
62.8038
60.1597
57.4695
54.7442
51.9933
49.2256
46.4493
43.6728
40.9039
38.1497
35.4163
32.7089
30.0313
27.3861
24.7742
22.1951
19.6462
17.1233
14.6201
12.1284
9.63777
7.13559
4.60628
2.05725
77.3175
75.5523
73.4197
71.078
68.6726
66.2296
63.734
61.1796
58.5727
55.9225
53.2372
50.5245
47.7916
45.046
42.2949
39.5449
36.802
34.0713
31.3569
28.6615
25.9865
23.3319
20.6957
18.0742
15.4616
12.85
10.229
7.58567
4.90339
2.18728
77.6112
75.9115
73.8618
71.6092
69.2911
66.9325
64.5182
62.0415
59.5071
56.923
54.2963
51.6334
48.9409
46.2253
43.493
40.7505
38.0031
35.2559
32.513
29.7771
27.0501
24.332
21.6214
18.9149
16.207
13.49
10.7535
7.98426
5.16508
2.29836
77.8512
76.206
74.2254
72.0475
69.8028
67.5152
65.1697
62.759
60.2867
57.7596
55.1839
52.5651
49.9088
47.221
44.5074
41.7737
39.0253
36.2667
33.5019
30.7339
27.9644
25.1937
22.4205
19.6418
16.8523
14.0443
11.2075
8.32831
5.38933
2.39027
78.0493
76.4484
74.5246
72.4081
70.2238
67.9946
65.7061
63.3503
60.9298
58.4507
55.9182
53.3372
50.7124
48.0492
45.3528
42.6285
39.881
37.1148
34.3337
31.5405
28.7369
25.9234
23.0989
20.2603
17.4025
14.5179
11.596
8.62318
5.58186
2.46832
78.2021
76.6362
74.7573
72.6896
70.5532
68.3706
66.1276
63.8157
61.4369
58.9965
56.4991
53.9489
51.3502
48.7077
46.0261
43.3102
40.5647
37.7935
35.0003
32.1878
29.3578
26.5106
23.6451
20.7585
17.8455
14.8986
11.9073
8.85778
5.7326
2.52542
78.332
76.7919
74.9472
72.9164
70.8163
68.669
66.4604
64.1819
61.8348
59.424
56.9535
54.4271
51.8486
49.2223
46.5525
43.8437
41.1002
38.3258
35.5239
32.6972
29.8473
26.9746
24.0781
21.1547
18.1993
15.2043
12.1591
9.04965
5.85827
2.5745
78.4118
76.8879
75.0656
73.06
70.9843
68.8605
66.675
64.4188
62.0931
59.7021
57.2497
54.7394
52.1746
49.5593
46.8976
44.1938
41.4518
38.6754
35.868
33.0319
30.1689
27.2792
24.3617
21.4135
18.4294
15.4016
12.3193
9.16814
5.93039
2.59371
78.5006
76.9778
75.1679
73.1773
71.1154
69.0043
66.831
64.5866
62.272
59.8912
57.448
54.9456
52.3873
49.7771
47.1188
44.4166
41.6745
38.896
36.0845
33.2423
30.3712
27.4714
24.5418
21.5795
18.5791
15.5329
12.4296
9.25408
5.98589
2.60066
)
;

boundaryField
{
    inlet
    {
        type            zeroGradient;
    }
    outlet
    {
        type            fixedValue;
        value           uniform 0;
    }
    flap
    {
        type            zeroGradient;
    }
    upperWall
    {
        type            zeroGradient;
    }
    lowerWall
    {
        type            zeroGradient;
    }
    frontAndBack
    {
        type            empty;
    }
}


// ************************************************************************* //
