/*--------------------------------*- C++ -*----------------------------------*\
  =========                 |
  \\      /  F ield         | OpenFOAM: The Open Source CFD Toolbox
   \\    /   O peration     | Website:  https://openfoam.org
    \\  /    A nd           | Version:  7
     \\/     M anipulation  |
\*---------------------------------------------------------------------------*/
FoamFile
{
    version     2.0;
    format      ascii;
    class       surfaceScalarField;
    location    "2.4";
    object      phi;
}
// * * * * * * * * * * * * * * * * * * * * * * * * * * * * * * * * * * * * * //

dimensions      [0 3 -1 0 0 0 0];

internalField   nonuniform List<scalar> 
5457
(
0.198418
0.00158247
0.19648
0.00193754
0.194192
0.00228834
0.191508
0.00268392
0.188426
0.00308161
0.184949
0.00347725
0.18107
0.00387912
0.176775
0.0042946
0.172046
0.00472885
0.16686
0.00518586
0.161191
0.00566915
0.15501
0.00618165
0.148284
0.00672554
0.140982
0.00730184
0.133072
0.00790991
0.124526
0.00854675
0.11532
0.00920606
0.105442
0.00987721
0.0948984
0.010544
0.0837151
0.0111833
0.0719509
0.0117642
0.0597031
0.0122478
0.0471151
0.012588
0.0343757
0.0127394
0.0216816
0.0126942
0.00903235
0.0126492
-0.00291816
0.0119505
-0.0084717
0.00555353
-0.00804201
-0.000429688
-0.00804201
0.199928
0.0016544
0.199175
0.00269017
0.197964
0.00349955
0.196331
0.00431745
0.19427
0.0051421
0.19178
0.00596782
0.188852
0.00680666
0.185475
0.00767209
0.181629
0.00857441
0.177293
0.00952194
0.17244
0.0105219
0.167041
0.0115806
0.161064
0.0127029
0.154474
0.0138913
0.147239
0.0151454
0.139325
0.0164602
0.130707
0.0178242
0.121367
0.0192174
0.111302
0.0206087
0.100533
0.0219529
0.0891086
0.0231883
0.0771216
0.0242348
0.0647163
0.0249933
0.0521096
0.0253461
0.0396502
0.0251535
0.0281013
0.0241981
0.0185908
0.0214611
0.00879299
0.0153513
0.00118155
0.00718174
-0.00686046
0.19978
0.00187393
0.199086
0.00338419
0.197945
0.00464074
0.196408
0.00585442
0.194482
0.00706865
0.192162
0.00828736
0.189444
0.00952465
0.186318
0.0107982
0.18277
0.0121229
0.17878
0.0135115
0.174327
0.0149747
0.169386
0.0165223
0.163927
0.0181621
0.157919
0.019899
0.15133
0.0217341
0.144128
0.0236623
0.136282
0.0256699
0.127768
0.0277314
0.118572
0.0298055
0.108694
0.0318305
0.0981624
0.0337198
0.0870407
0.0353566
0.0754446
0.0365894
0.0635682
0.0372225
0.0517272
0.0369945
0.0403928
0.0355325
0.0297351
0.0321188
0.0191634
0.025923
0.00959568
0.0167495
0.00273522
0.199703
0.00217095
0.199007
0.00407968
0.197887
0.00576154
0.196375
0.00736568
0.194487
0.0089572
0.19222
0.0105539
0.189572
0.0121729
0.186536
0.0138347
0.1831
0.015558
0.179253
0.0173586
0.174978
0.0192503
0.170254
0.0212455
0.165062
0.0233543
0.159378
0.0255837
0.153175
0.0279362
0.14643
0.0304078
0.139115
0.0329844
0.131208
0.0356387
0.122689
0.0383246
0.113548
0.0409712
0.103792
0.0434763
0.0934497
0.0456987
0.0825891
0.04745
0.0713271
0.0484845
0.0598359
0.0484857
0.0483128
0.0470556
0.0368076
0.0436239
0.0251856
0.0375451
0.0133344
0.0286007
0.0160696
0.199667
0.00250364
0.198964
0.00478313
0.197862
0.00686314
0.19638
0.00884773
0.194531
0.0108064
0.192316
0.012769
0.189731
0.0147573
0.186772
0.016794
0.18343
0.0189004
0.179694
0.021095
0.17555
0.0233939
0.170984
0.0258113
0.16598
0.0283587
0.160519
0.0310445
0.154583
0.0338722
0.148152
0.0368386
0.141206
0.0399304
0.133725
0.0431203
0.125688
0.0463613
0.117079
0.0495803
0.107886
0.0526693
0.0981075
0.0554771
0.0877582
0.0577992
0.076873
0.0593697
0.0655039
0.0598548
0.053704
0.0588555
0.0414509
0.0558771
0.0285856
0.0504104
0.0148512
0.0423351
0.0309208
0.199653
0.00285094
0.198948
0.00548738
0.19787
0.00794137
0.196426
0.0102923
0.194625
0.0126069
0.192471
0.014923
0.189961
0.0172675
0.187089
0.0196655
0.183849
0.0221404
0.180231
0.0247129
0.176224
0.0274012
0.171815
0.0302206
0.166989
0.0331841
0.161733
0.0363009
0.15603
0.0395755
0.149863
0.0430055
0.143214
0.0465788
0.136065
0.0502697
0.128393
0.0540334
0.120173
0.0577996
0.11138
0.0614632
0.101981
0.0648753
0.091948
0.0678326
0.0812481
0.0700696
0.0698493
0.0712536
0.0577129
0.0709918
0.0447577
0.0688323
0.0308471
0.0643209
0.0158721
0.0573101
0.0467929
0.19965
0.00320098
0.198954
0.00618357
0.197904
0.00899129
0.196504
0.0116924
0.194761
0.0143496
0.192678
0.0170056
0.190254
0.0196918
0.187484
0.0224358
0.184361
0.0252632
0.180877
0.0281966
0.177023
0.0312559
0.172785
0.034458
0.168153
0.0378169
0.16311
0.0413432
0.157644
0.0450423
0.151736
0.0489135
0.145368
0.0529466
0.138518
0.0571193
0.13116
0.0613916
0.12326
0.0657001
0.114773
0.0699494
0.105646
0.0740023
0.0958094
0.0776695
0.0851799
0.0806991
0.0736631
0.0827705
0.0611575
0.0834975
0.0475523
0.0824375
0.0327567
0.0791165
0.016782
0.0732849
0.0635749
0.199655
0.00354644
0.198974
0.00686389
0.197958
0.0100074
0.196609
0.0130415
0.194932
0.0160261
0.192931
0.0190068
0.190605
0.0220185
0.187949
0.0250917
0.184958
0.0282539
0.181625
0.0315296
0.177941
0.0349401
0.173894
0.0385042
0.169474
0.0422372
0.164666
0.0461513
0.159455
0.0502538
0.153822
0.0545463
0.147746
0.0590222
0.141201
0.0636641
0.134153
0.0684398
0.126557
0.0732965
0.118352
0.0781539
0.10946
0.0828943
0.0997784
0.0873512
0.0891804
0.0912971
0.0775196
0.0944313
0.0646433
0.0963738
0.0504146
0.0966661
0.0347664
0.0947647
0.017789
0.0902623
0.0813639
0.199664
0.00388237
0.199006
0.00752191
0.198029
0.0109839
0.196738
0.0143334
0.195135
0.0176287
0.193225
0.0209172
0.191006
0.0242371
0.188477
0.0276211
0.185632
0.0310987
0.182465
0.0346961
0.178969
0.0384365
0.175133
0.04234
0.170946
0.046424
0.166395
0.0507026
0.161463
0.0551857
0.156131
0.0598783
0.150375
0.0647789
0.144161
0.0698773
0.13745
0.0751513
0.130184
0.0805627
0.122287
0.086051
0.113656
0.0915245
0.104159
0.0968485
0.0936263
0.10183
0.0818587
0.106199
0.0686452
0.109587
0.0537993
0.111512
0.0372352
0.111329
0.0190829
0.108415
0.100447
0.199677
0.00420527
0.199047
0.00815238
0.198115
0.0119156
0.196886
0.0155621
0.195365
0.0191501
0.193554
0.0227285
0.191453
0.0263376
0.189061
0.0300127
0.186375
0.0337849
0.183389
0.0376819
0.180097
0.0417287
0.17649
0.0459472
0.172557
0.0503567
0.168286
0.0549736
0.163661
0.0598114
0.15866
0.0648793
0.153256
0.0701821
0.147415
0.0757185
0.141087
0.081479
0.134207
0.0874432
0.126683
0.0935747
0.118393
0.0998144
0.109173
0.106069
0.0988107
0.112192
0.0870459
0.117964
0.0735855
0.123048
0.0581462
0.126951
0.0405512
0.128924
0.0209013
0.128064
0.121348
0.199693
0.00451246
0.199094
0.008751
0.198212
0.0127975
0.197052
0.0167222
0.195618
0.0205841
0.193914
0.024433
0.19194
0.0283115
0.189696
0.0322565
0.18718
0.0363009
0.184388
0.0404739
0.181315
0.044802
0.177953
0.0493088
0.174294
0.0540158
0.170326
0.058942
0.166033
0.0641045
0.161394
0.0695176
0.156383
0.0751932
0.150962
0.0811401
0.145077
0.0873633
0.138658
0.0938623
0.131604
0.100629
0.123776
0.107643
0.114984
0.114861
0.104973
0.122203
0.0934116
0.129525
0.0798936
0.136566
0.0639664
0.142879
0.0452353
0.147655
0.0236127
0.149687
0.144961
0.199711
0.00480189
0.199147
0.00931426
0.198319
0.0136255
0.197233
0.017809
0.195892
0.0219248
0.194301
0.0260241
0.192461
0.0301508
0.190374
0.0343436
0.188039
0.0386366
0.185452
0.0430606
0.182611
0.0476432
0.17951
0.0524098
0.176142
0.0573837
0.172497
0.0625869
0.168562
0.0680397
0.164317
0.073762
0.159738
0.0797728
0.154787
0.0860914
0.149412
0.0927376
0.143542
0.0997323
0.137074
0.107097
0.129862
0.114855
0.121701
0.123022
0.112303
0.131602
0.101265
0.140563
0.088041
0.149789
0.0719228
0.158997
0.0520891
0.167489
0.0278889
0.173887
0.17285
0.19973
0.00507195
0.199205
0.00983929
0.198435
0.0143959
0.197425
0.0188182
0.196183
0.0231675
0.194711
0.027496
0.193012
0.0318491
0.19109
0.0362665
0.188943
0.0407836
0.186571
0.0454322
0.183973
0.0502411
0.181146
0.055237
0.178084
0.0604451
0.174782
0.0658896
0.171227
0.0715942
0.167406
0.0775835
0.163295
0.0838833
0.158864
0.0905226
0.154066
0.0975352
0.148837
0.104962
0.143081
0.112854
0.13666
0.121275
0.129375
0.130307
0.120927
0.140049
0.110873
0.150617
0.0985388
0.162124
0.0829032
0.174632
0.0624431
0.187949
0.035133
0.201197
0.207983
0.199751
0.00532137
0.199266
0.0103238
0.198556
0.0151057
0.197628
0.0197462
0.196488
0.024308
0.19514
0.0288441
0.193588
0.0334008
0.191835
0.038019
0.189884
0.0427348
0.187736
0.0475808
0.18539
0.0525866
0.182847
0.0577799
0.180105
0.0631873
0.17716
0.0688347
0.174005
0.0747487
0.170632
0.0809573
0.167023
0.0874921
0.163156
0.0943897
0.158996
0.101695
0.154492
0.109465
0.14957
0.117776
0.144119
0.126726
0.137971
0.136455
0.130867
0.147153
0.122393
0.159091
0.111855
0.172662
0.0980226
0.188465
0.0785529
0.207418
0.0486841
0.231066
0.256667
0.199772
0.0055492
0.19933
0.010766
0.198683
0.0157526
0.197839
0.0205903
0.196804
0.0253431
0.195583
0.0300646
0.194182
0.0348019
0.192605
0.0395964
0.190855
0.0444849
0.188935
0.0495002
0.186849
0.0546726
0.184599
0.0600304
0.182186
0.0656007
0.17961
0.0714106
0.17687
0.0774884
0.173963
0.0838644
0.170881
0.0905736
0.167613
0.0976576
0.16414
0.105168
0.160432
0.113173
0.156446
0.121761
0.152117
0.131055
0.147345
0.141228
0.141971
0.152527
0.135733
0.165328
0.128163
0.180232
0.11832
0.198308
0.103954
0.221785
0.077743
0.257277
0.33441
0.00550418
-0.00550418
0.0106045
-0.00510036
0.0149836
-0.00437902
0.018717
-0.00373341
0.0219224
-0.00320541
0.0246976
-0.00277527
0.0271215
-0.00242384
0.0292573
-0.00213585
0.0311548
-0.00189745
0.0328509
-0.0016961
0.0343686
-0.00151771
0.0357102
-0.00134157
0.0368525
-0.00114237
0.0377586
-0.000906115
0.0384138
-0.000655172
0.0388517
-0.000437857
0.039112
-0.000260327
0.0391833
-7.12786e-05
0.039066
0.000117306
0.0388274
0.000238599
0.0385662
0.000261139
0.0383558
0.000210479
0.0382599
9.58399e-05
0.0383301
-7.01739e-05
0.0386074
-0.000277288
0.0391539
-0.000546481
0.0399702
-0.00081634
0.0410499
-0.00107971
0.0423609
-0.00131102
-0.00127005
0.00459715
-0.0101013
0.00908647
-0.00958968
0.0130283
-0.00832084
0.0164393
-0.00714443
0.019417
-0.00618309
0.0220449
-0.00540314
0.0243871
-0.00476608
0.0264929
-0.00424159
0.0284001
-0.00380466
0.0301399
-0.00343596
0.0317379
-0.00311568
0.0332062
-0.0028099
0.0345325
-0.00246869
0.0356776
-0.00205117
0.0366092
-0.00158673
0.0373578
-0.00118652
0.0379932
-0.000895668
0.0385091
-0.000587192
0.0388736
-0.000247243
0.0390837
2.848e-05
0.0391779
0.000167024
0.0391923
0.000196056
0.0391344
0.000153697
0.0389991
6.51994e-05
0.0387972
-7.5415e-05
0.03855
-0.000299289
0.0382613
-0.000527683
0.0379978
-0.000816177
0.0378535
-0.00116671
-0.00171871
0.00355337
-0.0136547
0.00696089
-0.0129972
0.00992959
-0.0112895
0.0124929
-0.00970771
0.0147219
-0.00841213
0.0166756
-0.00735684
0.0184006
-0.00649112
0.0199303
-0.00577121
0.0212877
-0.00516211
0.0224938
-0.00464203
0.0235735
-0.00419537
0.0245482
-0.00378465
0.0254175
-0.00333798
0.0261375
-0.00277119
0.0266399
-0.00208904
0.0269734
-0.00152007
0.0272463
-0.00116857
0.0272262
-0.00056714
0.0266345
0.000344495
0.0254659
0.00119708
0.0239131
0.00171983
0.0221288
0.00198037
0.0202543
0.00202821
0.0184518
0.00186769
0.0169428
0.00143354
0.0159598
0.000683706
0.0154742
-4.20279e-05
0.0155526
-0.00089463
0.0162441
-0.00185818
-0.00295711
0.00247152
-0.0161262
0.00463783
-0.0151635
0.00643848
-0.0130902
0.00795788
-0.0112271
0.0092371
-0.00969134
0.0103086
-0.00842839
0.0112017
-0.00738415
0.0119348
-0.00650431
0.0125149
-0.00574223
0.0129427
-0.00506987
0.0132302
-0.00448282
0.0134065
-0.00396095
0.0135149
-0.00344639
0.0135476
-0.00280389
0.013321
-0.00186249
0.0123646
-0.000563586
0.010592
0.000604026
0.00866355
0.00136127
0.00709774
0.0019103
0.00574488
0.00254994
0.00444064
0.00302407
0.00320611
0.0032149
0.00211976
0.00311455
0.00127962
0.00270783
0.000740127
0.00197303
0.000493211
0.000930622
0.000724098
-0.000272915
0.00138253
-0.00155307
0.00244884
-0.00292448
-0.00395707
0.00126397
-0.0173902
0.00207179
-0.0159713
0.00259263
-0.013611
0.00293502
-0.0115695
0.00310397
-0.0098603
0.0031159
-0.00844032
0.00298553
-0.00725377
0.00272416
-0.00624295
0.00233334
-0.00535141
0.00179169
-0.00452823
0.00104231
-0.00373343
1.3963e-05
-0.0029326
-0.00133726
-0.00209517
-0.00294711
-0.00119404
-0.00463106
-0.000178538
-0.00594678
0.000752135
-0.00686218
0.00151942
-0.00772463
0.00222372
-0.0086259
0.00281157
-0.0094013
0.00332534
-0.0100286
0.0036514
-0.0105063
0.00369256
-0.0108136
0.00342185
-0.0109399
0.00283413
-0.010903
0.00193615
-0.0107353
0.000762935
-0.0104184
-0.000589789
-0.00997234
-0.00199916
-0.00954865
-0.00334818
-0.0043841
-0.000132743
-0.0172574
-0.000707332
-0.0153967
-0.00151975
-0.0127986
-0.00245282
-0.0106364
-0.00350948
-0.00880364
-0.00467841
-0.00727138
-0.0059544
-0.00597779
-0.00733129
-0.00486605
-0.00879876
-0.00388394
-0.0103352
-0.00299179
-0.0119043
-0.00216434
-0.0134651
-0.00137175
-0.0149721
-0.000588232
-0.0163261
0.000159944
-0.0173832
0.00087865
-0.0182177
0.00158658
-0.0189625
0.00226424
-0.0195984
0.00285961
-0.0201327
0.00334585
-0.0205146
0.00370723
-0.0207336
0.00387046
-0.0208087
0.00376767
-0.0207589
0.00337206
-0.0206078
0.00268299
-0.0203888
0.0017172
-0.0201367
0.000510782
-0.0198799
-0.000846553
-0.0196416
-0.00223751
-0.0194442
-0.00354555
-0.0045746
-0.00153619
-0.0157213
-0.00359497
-0.013338
-0.00575005
-0.0106435
-0.00795168
-0.0084348
-0.0101477
-0.0066076
-0.0123138
-0.00510526
-0.0144217
-0.00386992
-0.016445
-0.00284273
-0.0183618
-0.00196717
-0.0201588
-0.00119483
-0.0218236
-0.000499535
-0.0233206
0.000125317
-0.0245971
0.000688259
-0.0256615
0.00122429
-0.0265598
0.00177698
-0.0273129
0.00233962
-0.0279183
0.00286965
-0.0283802
0.00332155
-0.0286991
0.0036647
-0.0288615
0.00386968
-0.0288755
0.00388443
-0.0287689
0.00366104
-0.0285735
0.00317674
-0.0283222
0.00243168
-0.0280503
0.00144531
-0.027795
0.000255481
-0.0275959
-0.00104574
-0.0274693
-0.00236407
-0.0274105
-0.0036043
-0.00457445
-0.00301805
-0.0127032
-0.00645316
-0.00990286
-0.00985217
-0.00724452
-0.0130959
-0.00519104
-0.0161204
-0.00358308
-0.0189058
-0.00231987
-0.02144
-0.00133575
-0.0237271
-0.000555638
-0.025767
7.27648e-05
-0.0275458
0.000583972
-0.0290665
0.00102116
-0.0303678
0.00142664
-0.0315029
0.00182336
-0.0325004
0.00222174
-0.0333471
0.00262367
-0.0340275
0.00302005
-0.0345399
0.00338198
-0.0348923
0.003674
-0.0350924
0.00386483
-0.0351453
0.00392257
-0.0350685
0.00380761
-0.0348923
0.00348483
-0.0346512
0.00293563
-0.0343799
0.00216039
-0.0341146
0.00118
-0.0338939
3.47846e-05
-0.0337578
-0.00118185
-0.0337195
-0.00240231
-0.0337763
-0.00354752
-0.00441569
-0.00454633
-0.00815688
-0.00925323
-0.00519596
-0.0137099
-0.00278788
-0.01774
-0.00116091
-0.021305
-1.80909e-05
-0.0243579
0.000733018
-0.0269501
0.00125648
-0.0291518
0.00164607
-0.0310355
0.00195645
-0.0326763
0.00222475
-0.0341294
0.00247433
-0.0354144
0.00271158
-0.0365363
0.00294529
-0.0374946
0.00318
-0.0382852
0.00341427
-0.0389036
0.00363848
-0.0393527
0.00383106
-0.0396422
0.00396358
-0.0397842
0.00400676
-0.0397922
0.00393057
-0.0396881
0.00370358
-0.0395026
0.0032993
-0.0392699
0.00270287
-0.0390247
0.00191522
-0.0388031
0.000958406
-0.0386423
-0.000126016
-0.0385773
-0.00124679
-0.0386247
-0.00235496
-0.0387835
-0.00338872
-0.00415296
-0.00637499
-0.00178189
-0.0123208
0.000749828
-0.0173458
0.00223716
-0.0215575
0.00305073
-0.0250488
0.00347325
-0.0279897
0.00367396
-0.0305176
0.0037843
-0.0327087
0.00383725
-0.0346167
0.00386439
-0.0362808
0.00388889
-0.0377308
0.00392432
-0.0389913
0.0039721
-0.0400748
0.00402879
-0.040985
0.0040902
-0.041723
0.00415226
-0.0422917
0.0042071
-0.0426987
0.00423809
-0.042956
0.00422093
-0.0430777
0.0041284
-0.0430805
0.00393338
-0.0429877
0.00361077
-0.042829
0.00314065
-0.0426378
0.00251161
-0.0424476
0.00172503
-0.042292
0.000802822
-0.0422077
-0.000210333
-0.0422234
-0.00123104
-0.0423578
-0.00222055
-0.0426098
-0.00313672
-0.00380764
-0.00755049
0.00576859
-0.0140314
0.00723078
-0.0193285
0.0075342
-0.0237262
0.00744846
-0.0273873
0.00713435
-0.0304549
0.00674158
-0.033035
0.00636433
-0.0352289
0.00603119
-0.0371099
0.00574537
-0.0387292
0.00550823
-0.0401262
0.00532133
-0.0413304
0.00517628
-0.0423577
0.00505607
-0.0432137
0.00494625
-0.0439023
0.00484084
-0.044431
0.0047358
-0.0448119
0.00461893
-0.0450587
0.00446779
-0.045186
0.00425565
-0.0452106
0.00395796
-0.045155
0.00355517
-0.0450476
0.00303333
-0.0449204
0.0023844
-0.0448052
0.00160978
-0.0447323
0.000729888
-0.0447355
-0.000207118
-0.0448396
-0.00112685
-0.0450634
-0.00199677
-0.0454054
-0.00279471
-0.00338008
-0.0081349
0.0139035
-0.0152936
0.0143894
-0.0210761
0.0133167
-0.0256661
0.0120385
-0.0293499
0.0108182
-0.0323466
0.00973825
-0.0348211
0.0088388
-0.0369022
0.00811233
-0.038672
0.00751516
-0.0401834
0.00701963
-0.0414815
0.00661943
-0.0426016
0.00629639
-0.0435602
0.00601463
-0.0443596
0.00574571
-0.0450025
0.00548375
-0.0454998
0.00523309
-0.0458679
0.00498703
-0.0461223
0.00472213
-0.0462758
0.00440919
-0.046343
0.00402514
-0.0463441
0.0035563
-0.0463061
0.00299536
-0.0462598
0.00233807
-0.0462352
0.0015852
-0.0462593
0.000753976
-0.0463585
-0.000107938
-0.0465559
-0.000929412
-0.0468718
-0.00168091
-0.047306
-0.00236047
-0.00286383
-0.00935942
0.0232629
-0.0173274
0.0223574
-0.0232667
0.019256
-0.0276776
0.0164494
-0.0310917
0.0142322
-0.0337946
0.0124412
-0.035988
0.0110322
-0.0378343
0.00995863
-0.0394127
0.00909356
-0.0407581
0.008365
-0.0419154
0.0077768
-0.042929
0.00730994
-0.043813
0.00689862
-0.0445585
0.0064912
-0.0451612
0.00608651
-0.0456354
0.00570721
-0.0460038
0.00535542
-0.0462833
0.00500165
-0.0464827
0.00460862
-0.0466111
0.00415355
-0.0466853
0.00363045
-0.0467309
0.00304098
-0.0467785
0.00238572
-0.0468573
0.001664
-0.0469901
0.000886754
-0.0471949
9.68565e-05
-0.0474898
-0.000634474
-0.0479007
-0.00127003
-0.0484337
-0.00182752
-0.00224957
-0.0116092
0.0348721
-0.0206924
0.0314407
-0.0263042
0.0248678
-0.0299215
0.0200667
-0.0326936
0.0170044
-0.0348587
0.0146062
-0.036578
0.0127515
-0.0380708
0.0114514
-0.0393973
0.0104201
-0.0405291
0.00949685
-0.0415057
0.00875334
-0.0423953
0.00819961
-0.0432089
0.00771221
-0.043911
0.00719324
-0.0444814
0.00665692
-0.04494
0.00616586
-0.0453226
0.00573796
-0.0456477
0.00532681
-0.0459153
0.0048762
-0.0461244
0.00436267
-0.0462868
0.00379277
-0.0464277
0.00318188
-0.0465793
0.00253739
-0.0467714
0.00185605
-0.0470233
0.00113863
-0.047344
0.000417639
-0.0477441
-0.000234374
-0.0482538
-0.000760349
-0.0488944
-0.0011869
-0.00152443
-0.0157201
0.0505922
-0.0262997
0.0420202
-0.0307562
0.0293243
-0.03239
0.0217005
-0.034102
0.0187165
-0.0355219
0.016026
-0.0365489
0.0137785
-0.037578
0.0124805
-0.038646
0.0114881
-0.0395368
0.0103876
-0.040285
0.00950153
-0.0410365
0.00895109
-0.0418013
0.00847704
-0.0424839
0.00787587
-0.0430321
0.00720512
-0.0434806
0.00661434
-0.0438932
0.00615053
-0.0442918
0.0057254
-0.0446573
0.00524168
-0.0449712
0.00467665
-0.0452384
0.00405996
-0.0454858
0.00342923
-0.04575
0.00280166
-0.0460636
0.00216958
-0.0464433
0.00151835
-0.0468895
0.000863831
-0.0474039
0.000280042
-0.0480188
-0.000145452
-0.0487765
-0.000429198
-0.000661404
0.207447
0.00576211
0.207034
0.0111788
0.206431
0.0163555
0.205646
0.0213754
0.204686
0.0263031
0.203558
0.031193
0.202267
0.0360925
0.20082
0.0410434
0.199222
0.0460826
0.197479
0.0512431
0.195597
0.0565552
0.19358
0.0620472
0.191434
0.0677463
0.189165
0.0736798
0.186777
0.0798764
0.184275
0.0863671
0.18166
0.0931878
0.178937
0.100381
0.176103
0.108002
0.173159
0.116117
0.1701
0.12482
0.166922
0.134234
0.16362
0.14453
0.160196
0.15595
0.156675
0.168849
0.153154
0.183754
0.150002
0.201459
0.14891
0.222877
0.160715
0.245472
0.258494
0.236631
0.21249
0.00595468
0.212117
0.011552
0.211573
0.0168996
0.210867
0.0220819
0.210005
0.0271643
0.208997
0.0322014
0.207849
0.0372407
0.206568
0.0423239
0.205163
0.0474877
0.203641
0.0527649
0.202011
0.0581852
0.200282
0.0637763
0.198464
0.0695647
0.196566
0.0755771
0.194602
0.0818408
0.192583
0.0883859
0.190525
0.0952463
0.188444
0.102462
0.186362
0.110083
0.184308
0.118171
0.182322
0.126806
0.180466
0.13609
0.178838
0.146157
0.177612
0.157177
0.17711
0.169351
0.177989
0.182875
0.18167
0.197778
0.190765
0.213781
0.206286
0.229951
0.245346
0.219434
0.217657
0.00612478
0.217328
0.0118813
0.216849
0.0173787
0.216229
0.0227022
0.215475
0.0279175
0.214598
0.0330791
0.213604
0.0382341
0.212504
0.043424
0.211307
0.0486847
0.210024
0.0540483
0.208666
0.0595435
0.207245
0.0651967
0.205777
0.0710331
0.204277
0.0770771
0.202764
0.0833539
0.201259
0.0898903
0.19979
0.0967157
0.198388
0.103864
0.197096
0.111376
0.195969
0.119298
0.195086
0.127689
0.19456
0.136616
0.194561
0.146156
0.195354
0.156384
0.197348
0.167357
0.201154
0.179068
0.207542
0.191391
0.217167
0.204157
0.229733
0.217384
0.228494
0.246586
0.222951
0.00627039
0.222669
0.0121629
0.222261
0.0177874
0.221734
0.0232292
0.221097
0.0285539
0.220361
0.0338157
0.219534
0.039061
0.218627
0.0443305
0.217653
0.0496591
0.216624
0.0550777
0.215554
0.0606133
0.21446
0.0662905
0.213361
0.0721321
0.212278
0.0781598
0.211237
0.084395
0.210268
0.0908595
0.209407
0.0975764
0.208701
0.104571
0.208207
0.111869
0.208003
0.119503
0.20819
0.127502
0.208909
0.135897
0.210352
0.144712
0.212784
0.153952
0.21655
0.163591
0.222067
0.173551
0.229782
0.183676
0.24026
0.193679
0.254412
0.203232
0.210079
0.272827
0.228374
0.00638968
0.228144
0.0123933
0.227811
0.0181204
0.227384
0.0236562
0.226872
0.0290656
0.226286
0.0344019
0.225636
0.0397109
0.224935
0.0450318
0.224195
0.0503983
0.223434
0.0558394
0.222667
0.0613803
0.221914
0.067043
0.221199
0.0728473
0.220548
0.0788112
0.219991
0.0849515
0.219567
0.0912839
0.219319
0.0978237
0.219305
0.104585
0.219592
0.111582
0.220269
0.118826
0.221448
0.126323
0.223274
0.134071
0.225932
0.142054
0.229652
0.150233
0.234712
0.158532
0.241439
0.166824
0.25021
0.174905
0.261467
0.182422
0.275679
0.18902
0.193614
0.292144
0.233929
0.00648094
0.233753
0.0125691
0.233501
0.0183732
0.23318
0.0239772
0.2328
0.0294453
0.232372
0.0348296
0.231909
0.0401746
0.231422
0.045518
0.230929
0.0508917
0.230446
0.0563228
0.229992
0.0618337
0.229591
0.0674439
0.229269
0.0731695
0.229056
0.0790242
0.228988
0.0850196
0.229107
0.0911649
0.229463
0.097467
0.230119
0.10393
0.231147
0.110554
0.23264
0.117333
0.234709
0.124254
0.237489
0.131291
0.241143
0.1384
0.245863
0.145512
0.251869
0.152526
0.2594
0.159292
0.268698
0.165608
0.279938
0.171182
0.293213
0.175745
0.178786
0.30804
0.23962
0.0065427
0.239501
0.0126875
0.239333
0.0185415
0.239123
0.024187
0.238881
0.0296869
0.238619
0.0350918
0.238349
0.0404446
0.238086
0.0457812
0.237846
0.0511315
0.237649
0.0565199
0.237516
0.0619666
0.237472
0.0674875
0.237547
0.0730951
0.237772
0.0787987
0.238188
0.0846042
0.238838
0.0905144
0.239777
0.0965282
0.241067
0.10264
0.242782
0.108839
0.245009
0.115105
0.247852
0.121411
0.25143
0.127714
0.255876
0.133953
0.261341
0.140048
0.267979
0.145888
0.27594
0.151332
0.285341
0.156206
0.296226
0.160297
0.308583
0.163388
0.165216
0.322153
0.245448
0.00657367
0.24539
0.0127462
0.245309
0.0186219
0.245215
0.0242813
0.245116
0.0297854
0.245025
0.0351831
0.244954
0.0405152
0.24492
0.0458157
0.244939
0.0511122
0.245033
0.0564265
0.245223
0.0617759
0.245538
0.067173
0.246006
0.0726265
0.246664
0.0781412
0.24755
0.0837179
0.248711
0.0893534
0.2502
0.0950395
0.252077
0.100763
0.254413
0.106503
0.257287
0.112232
0.260787
0.117911
0.265012
0.123489
0.270066
0.128899
0.276054
0.134059
0.283077
0.138865
0.291213
0.143195
0.30051
0.14691
0.310955
0.149851
0.322481
0.151862
0.152812
0.334885
0.251418
0.00657284
0.251421
0.012743
0.251431
0.0186117
0.251456
0.0242568
0.251504
0.0297371
0.251588
0.0350994
0.25172
0.0403826
0.251918
0.0456182
0.252199
0.0508314
0.252584
0.0560415
0.253097
0.0612626
0.253766
0.0665042
0.254621
0.0717714
0.255698
0.0770648
0.257035
0.0823806
0.258678
0.0877104
0.260677
0.0930406
0.263088
0.0983516
0.265974
0.103617
0.269402
0.108803
0.273447
0.113866
0.278183
0.118753
0.283685
0.123397
0.290023
0.127721
0.297252
0.131636
0.305406
0.135041
0.314487
0.137829
0.324448
0.13989
0.335191
0.14112
0.141459
0.346544
0.257532
0.00653947
0.257599
0.0126767
0.257701
0.0185089
0.257847
0.0241111
0.258045
0.0295395
0.258305
0.0348386
0.258643
0.040045
0.259073
0.0451877
0.259615
0.0502895
0.26029
0.055367
0.261121
0.0604315
0.262136
0.0654894
0.263365
0.0705425
0.264842
0.0755878
0.266604
0.0806178
0.268695
0.0856199
0.271159
0.0905766
0.274046
0.0954644
0.27741
0.100254
0.281305
0.104908
0.28579
0.109382
0.290917
0.113626
0.296737
0.117577
0.303289
0.121169
0.310598
0.124327
0.318666
0.126974
0.327464
0.129031
0.336929
0.130425
0.346957
0.131091
0.13101
0.357406
0.263794
0.00647307
0.263924
0.0125463
0.264121
0.0183125
0.264389
0.023843
0.264737
0.0291916
0.265175
0.0344001
0.265718
0.0395026
0.26638
0.0445258
0.267179
0.0494897
0.268138
0.0544086
0.269278
0.0592912
0.270627
0.064141
0.272212
0.0689569
0.274067
0.0737332
0.276225
0.0784594
0.278725
0.0831202
0.281606
0.0876955
0.28491
0.0921599
0.288681
0.0964826
0.292962
0.100627
0.297793
0.104551
0.30321
0.108208
0.309243
0.111544
0.315908
0.114504
0.323206
0.117029
0.331119
0.119061
0.339604
0.120546
0.348592
0.121438
0.357983
0.1217
0.121332
0.36766
0.270207
0.00637347
0.270401
0.0123515
0.270692
0.018022
0.271082
0.0234525
0.27158
0.0286938
0.272195
0.033785
0.27294
0.0387577
0.27383
0.0436361
0.274882
0.0484379
0.276115
0.0531749
0.277553
0.0578533
0.27922
0.0624746
0.281141
0.0670353
0.283347
0.0715274
0.285868
0.0759385
0.288736
0.0802519
0.291986
0.0844462
0.29565
0.0884957
0.299762
0.0923704
0.304353
0.0960361
0.30945
0.0994547
0.315073
0.102585
0.321235
0.105382
0.327936
0.107803
0.335162
0.109803
0.342883
0.11134
0.351048
0.11238
0.359589
0.112897
0.368418
0.112871
0.112316
0.377434
0.276774
0.00624077
0.277032
0.0120926
0.277416
0.017638
0.277928
0.0229406
0.278574
0.0280477
0.279363
0.0329961
0.280307
0.0378145
0.281418
0.0425247
0.282714
0.0471423
0.284212
0.0516768
0.285933
0.0561325
0.287898
0.0605088
0.290133
0.0648008
0.292661
0.0689989
0.29551
0.0730898
0.298706
0.0770561
0.302276
0.0808766
0.306245
0.0845266
0.310637
0.0879782
0.315472
0.0912006
0.320766
0.0941607
0.326527
0.0968239
0.332754
0.0991553
0.339436
0.101121
0.34655
0.102689
0.354059
0.103832
0.361911
0.104528
0.370042
0.104766
0.378374
0.104539
0.103866
0.386824
0.283498
0.00607534
0.28382
0.0117703
0.284297
0.0171618
0.284928
0.0223092
0.285719
0.0272565
0.286678
0.0320376
0.287813
0.0366787
0.289139
0.0411995
0.290668
0.0456131
0.292417
0.0499275
0.294404
0.0541451
0.296649
0.0582642
0.299172
0.0622784
0.301993
0.0661777
0.305134
0.0699483
0.308617
0.0735733
0.312461
0.0770325
0.316684
0.0803032
0.321302
0.0833605
0.326325
0.0861775
0.331759
0.0887269
0.337602
0.0909807
0.343846
0.0929121
0.35047
0.0944963
0.357447
0.0957117
0.364737
0.0965416
0.37229
0.0969749
0.380048
0.0970081
0.387942
0.0966444
0.0959042
0.395904
0.290384
0.00587781
0.290768
0.0113859
0.291335
0.0165955
0.292082
0.0215613
0.293015
0.0263241
0.294137
0.030915
0.295458
0.0353578
0.296988
0.0396698
0.298739
0.0438624
0.300724
0.0479419
0.30296
0.0519096
0.305461
0.0557625
0.308246
0.059494
0.31133
0.0630938
0.31473
0.0665485
0.318461
0.0698423
0.322536
0.0729566
0.326968
0.0758714
0.331764
0.0785651
0.336926
0.0810154
0.342453
0.0832001
0.348335
0.0850978
0.354559
0.0866887
0.361099
0.0879558
0.367926
0.0888855
0.374998
0.0894689
0.382271
0.0897025
0.38969
0.0895886
0.397199
0.0891354
0.088364
0.404739
0.297435
0.00564905
0.297879
0.0109412
0.298533
0.0159417
0.299394
0.0207007
0.300462
0.0252558
0.301742
0.0296352
0.303239
0.0338603
0.304963
0.0379464
0.306922
0.0419034
0.309128
0.045736
0.311592
0.0494448
0.314329
0.0530263
0.317349
0.0564735
0.320666
0.0597767
0.324291
0.0629234
0.328234
0.0658991
0.332503
0.0686877
0.337103
0.0712717
0.342035
0.0736332
0.347296
0.0757544
0.352878
0.077618
0.358768
0.0792081
0.364945
0.0805111
0.371385
0.0815161
0.378055
0.0822157
0.384917
0.0826068
0.391929
0.0826908
0.399043
0.0824739
0.406212
0.0819671
0.0811909
0.413385
0.304654
0.00539012
0.305157
0.0104382
0.305895
0.0152035
0.306864
0.0197319
0.308062
0.0240574
0.309492
0.0282056
0.311156
0.0321957
0.313062
0.036041
0.315215
0.03975
0.317625
0.0433265
0.320299
0.0467703
0.323248
0.0500777
0.326479
0.0532422
0.330001
0.0562545
0.333821
0.0591036
0.337943
0.0617768
0.342371
0.06426
0.347104
0.0665391
0.352137
0.0685995
0.357464
0.0704274
0.363073
0.0720099
0.368945
0.073336
0.375059
0.0743969
0.381388
0.0751866
0.387902
0.0757023
0.394563
0.075945
0.401335
0.0759192
0.408175
0.0756336
0.415042
0.0751002
0.0743383
0.421895
0.312046
0.00510223
0.312605
0.00987935
0.313424
0.0143848
0.314496
0.0186599
0.315818
0.0227355
0.317389
0.0266346
0.31921
0.0303741
0.321286
0.0339658
0.323619
0.0374168
0.326215
0.0407301
0.32908
0.0439052
0.33222
0.0469385
0.335638
0.049824
0.339339
0.0525535
0.343325
0.0551172
0.347598
0.0575043
0.352154
0.0597035
0.35699
0.0617032
0.362097
0.0634921
0.367465
0.06506
0.373077
0.0663978
0.378914
0.0674985
0.384954
0.068357
0.39117
0.0689711
0.397531
0.0693412
0.404005
0.0694711
0.410557
0.0693672
0.417151
0.0690394
0.423752
0.0684998
0.0677666
0.430323
0.319615
0.00478669
0.320227
0.00926721
0.321123
0.0134893
0.322293
0.0174901
0.323731
0.021297
0.325435
0.0249307
0.327403
0.0284059
0.329636
0.0317329
0.332135
0.0349179
0.334902
0.0379631
0.337939
0.0408679
0.341249
0.0436291
0.344832
0.0462411
0.348688
0.0486971
0.352816
0.0509887
0.357214
0.0531072
0.361874
0.0550433
0.366789
0.0567882
0.371947
0.0583335
0.377336
0.0596719
0.382936
0.0607976
0.388728
0.0617065
0.394688
0.0623968
0.40079
0.0628686
0.407007
0.0631249
0.413307
0.0631708
0.41966
0.0630141
0.426035
0.0626648
0.4324
0.0621349
0.0614407
0.438726
0.327365
0.00444486
0.328028
0.00860447
0.328996
0.0125211
0.330258
0.0162278
0.331806
0.019749
0.333634
0.0231025
0.335739
0.0263014
0.338117
0.0293546
0.340768
0.0322672
0.34369
0.0350411
0.346882
0.0376757
0.350343
0.040168
0.354071
0.0425135
0.358062
0.0447062
0.362311
0.0467396
0.366812
0.0486065
0.371555
0.0502999
0.37653
0.0518131
0.381723
0.0531404
0.387118
0.0542769
0.392696
0.0552193
0.398437
0.0559659
0.404317
0.056517
0.410311
0.0568746
0.416393
0.0570431
0.422535
0.0570285
0.42871