/*--------------------------------*- C++ -*----------------------------------*\
  =========                 |
  \\      /  F ield         | OpenFOAM: The Open Source CFD Toolbox
   \\    /   O peration     | Website:  https://openfoam.org
    \\  /    A nd           | Version:  7
     \\/     M anipulation  |
\*---------------------------------------------------------------------------*/
FoamFile
{
    version     2.0;
    format      ascii;
    class       volVectorField;
    location    "2.4";
    object      U;
}
// * * * * * * * * * * * * * * * * * * * * * * * * * * * * * * * * * * * * * //

dimensions      [0 1 -1 0 0 0 0];

internalField   nonuniform List<vector> 
2790
(
(9.94399 0.0205244 0)
(9.87571 0.0295902 0)
(9.77519 0.0359933 0)
(9.6494 0.0425614 0)
(9.50403 0.0493921 0)
(9.33998 0.0564364 0)
(9.15643 0.0638253 0)
(8.95248 0.0717223 0)
(8.72728 0.0802671 0)
(8.47986 0.0895864 0)
(8.20902 0.0998072 0)
(7.91335 0.11106 0)
(7.59135 0.123475 0)
(7.24141 0.137179 0)
(6.86193 0.152287 0)
(6.45137 0.168884 0)
(6.00843 0.187009 0)
(5.53222 0.206629 0)
(5.0225 0.227598 0)
(4.47998 0.249615 0)
(3.9067 0.272177 0)
(3.30639 0.294521 0)
(2.68488 0.31561 0)
(2.05025 0.334273 0)
(1.41148 0.350584 0)
(0.797783 0.372858 0)
(0.110404 0.32488 0)
(-0.469449 -0.114871 0)
(-0.453742 -0.296994 0)
(-0.231119 -0.423742 0)
(9.9985 0.0407067 0)
(9.98145 0.0623903 0)
(9.93572 0.0791516 0)
(9.86412 0.0966402 0)
(9.77091 0.115143 0)
(9.65706 0.134511 0)
(9.52194 0.155002 0)
(9.3647 0.176973 0)
(9.18453 0.20074 0)
(8.98045 0.226585 0)
(8.75126 0.254781 0)
(8.49558 0.285598 0)
(8.21186 0.319287 0)
(7.89845 0.356058 0)
(7.55363 0.396053 0)
(7.17576 0.439292 0)
(6.76333 0.485616 0)
(6.31519 0.534603 0)
(5.83077 0.58547 0)
(5.31041 0.636952 0)
(4.75569 0.687191 0)
(4.16997 0.733622 0)
(3.55889 0.772917 0)
(2.93118 0.801045 0)
(2.29963 0.813689 0)
(1.69269 0.807182 0)
(1.10693 0.747134 0)
(0.65875 0.547807 0)
(0.18617 0.22441 0)
(-0.00817903 -0.453733 0)
(9.99559 0.0432132 0)
(9.97555 0.0752844 0)
(9.93178 0.103365 0)
(9.86486 0.132397 0)
(9.77772 0.163092 0)
(9.67146 0.195438 0)
(9.54576 0.229787 0)
(9.39999 0.266653 0)
(9.23347 0.306525 0)
(9.04542 0.349866 0)
(8.83484 0.397133 0)
(8.60052 0.448784 0)
(8.34112 0.505253 0)
(8.05514 0.566922 0)
(7.74099 0.634064 0)
(7.39703 0.706776 0)
(7.02167 0.784872 0)
(6.61351 0.867747 0)
(6.17148 0.954203 0)
(5.69519 1.04225 0)
(5.18519 1.12886 0)
(4.64354 1.20974 0)
(4.0744 1.27909 0)
(3.48502 1.32925 0)
(2.88654 1.34999 0)
(2.29921 1.32631 0)
(1.73163 1.22063 0)
(1.21609 0.972866 0)
(0.701031 0.570031 0)
(0.357934 -0.156698 0)
(9.99402 0.049508 0)
(9.9718 0.0932241 0)
(9.92786 0.133599 0)
(9.86221 0.174245 0)
(9.77687 0.216479 0)
(9.6729 0.260715 0)
(9.5502 0.307492 0)
(9.40834 0.357485 0)
(9.24684 0.411366 0)
(9.06511 0.469786 0)
(8.86243 0.533385 0)
(8.6379 0.602807 0)
(8.39052 0.678674 0)
(8.11916 0.761552 0)
(7.82261 0.85189 0)
(7.4996 0.949933 0)
(7.14882 1.05559 0)
(6.769 1.16827 0)
(6.35905 1.28661 0)
(5.91816 1.40825 0)
(5.44611 1.52943 0)
(4.9436 1.64462 0)
(4.4128 1.74605 0)
(3.85793 1.8231 0)
(3.28553 1.86122 0)
(2.70616 1.84016 0)
(2.12545 1.72582 0)
(1.55411 1.47768 0)
(0.957861 1.08352 0)
(0.509382 0.502171 0)
(9.99331 0.0572249 0)
(9.96993 0.110982 0)
(9.92591 0.162139 0)
(9.86142 0.213394 0)
(9.77793 0.266415 0)
(9.67626 0.321984 0)
(9.55642 0.380782 0)
(9.41806 0.443578 0)
(9.26079 0.511153 0)
(9.08411 0.584273 0)
(8.88744 0.663694 0)
(8.67008 0.75017 0)
(8.43125 0.844438 0)
(8.17009 0.947181 0)
(7.88568 1.05896 0)
(7.57706 1.18015 0)
(7.24322 1.31074 0)
(6.88316 1.45021 0)
(6.49583 1.59722 0)
(6.08029 1.7493 0)
(5.63573 1.90235 0)
(5.16172 2.05022 0)
(4.65841 2.18405 0)
(4.12689 2.29158 0)
(3.56912 2.35638 0)
(2.98866 2.35711 0)
(2.38665 2.26473 0)
(1.76626 2.04741 0)
(1.08991 1.69117 0)
(0.536611 1.15393 0)
(9.99302 0.0655525 0)
(9.96922 0.12873 0)
(9.92554 0.190156 0)
(9.86249 0.251901 0)
(9.78122 0.31565 0)
(9.68235 0.382404 0)
(9.56589 0.452973 0)
(9.43156 0.528211 0)
(9.27901 0.608999 0)
(9.10783 0.696211 0)
(8.9175 0.790709 0)
(8.70743 0.893354 0)
(8.47693 1.00498 0)
(8.22529 1.12637 0)
(7.95173 1.25819 0)
(7.65544 1.4009 0)
(7.33557 1.5546 0)
(6.99117 1.71889 0)
(6.62121 1.89255 0)
(6.22454 2.07318 0)
(5.79984 2.25677 0)
(5.34563 2.43708 0)
(4.86033 2.60504 0)
(4.34237 2.74802 0)
(3.79012 2.84932 0)
(3.20235 2.88794 0)
(2.5764 2.83795 0)
(1.91335 2.67133 0)
(1.17268 2.37372 0)
(0.549932 1.89414 0)
(9.99297 0.0740914 0)
(9.96926 0.146348 0)
(9.92635 0.217534 0)
(9.86504 0.28936 0)
(9.78636 0.363441 0)
(9.69075 0.440929 0)
(9.57822 0.522778 0)
(9.44855 0.609942 0)
(9.30145 0.703398 0)
(9.13653 0.804116 0)
(8.95336 0.913056 0)
(8.75137 1.03117 0)
(8.52996 1.15937 0)
(8.28846 1.29854 0)
(8.02614 1.44942 0)
(7.74221 1.61258 0)
(7.4358 1.78826 0)
(7.10589 1.9762 0)
(6.7513 2.1754 0)
(6.37051 2.38376 0)
(5.96163 2.59764 0)
(5.5222 2.81123 0)
(5.04913 3.01595 0)
(4.53866 3.19972 0)
(3.98638 3.3464 0)
(3.38769 3.43566 0)
(2.73709 3.44299 0)
(2.03613 3.34117 0)
(1.24169 3.11325 0)
(0.563485 2.69284 0)
(9.99306 0.0826073 0)
(9.9698 0.163645 0)
(9.92805 0.244109 0)
(9.86881 0.325559 0)
(9.79306 0.409546 0)
(9.70116 0.497326 0)
(9.5931 0.589976 0)
(9.46871 0.68855 0)
(9.32775 0.794107 0)
(9.16989 0.907707 0)
(8.99472 1.0304 0)
(8.80176 1.16322 0)
(8.59042 1.30718 0)
(8.36007 1.46326 0)
(8.10997 1.63229 0)
(7.8393 1.81499 0)
(7.54707 2.01175 0)
(7.23212 2.22255 0)
(6.89295 2.44672 0)
(6.52762 2.68262 0)
(6.13357 2.92723 0)
(5.70737 3.17558 0)
(5.24454 3.42012 0)
(4.73941 3.6499 0)
(4.18518 3.8499 0)
(3.57453 4.00052 0)
(2.89936 4.07752 0)
(2.16201 4.052 0)
(1.31607 3.90133 0)
(0.583197 3.53981 0)
(9.99326 0.0909504 0)
(9.97071 0.180453 0)
(9.93044 0.269736 0)
(9.87358 0.360333 0)
(9.80111 0.453762 0)
(9.71334 0.551347 0)
(9.61024 0.65427 0)
(9.49171 0.763673 0)
(9.35754 0.880698 0)
(9.20747 1.00649 0)
(9.04114 1.14217 0)
(8.85811 1.28888 0)
(8.65785 1.44773 0)
(8.43975 1.61978 0)
(8.20306 1.80604 0)
(7.94691 2.00735 0)
(7.6702 2.22435 0)
(7.37156 2.45732 0)
(7.04918 2.70604 0)
(6.70066 2.96949 0)
(6.32276 3.24551 0)
(5.9111 3.53031 0)
(5.45988 3.81777 0)
(4.9616 4.09863 0)
(4.40708 4.35946 0)
(3.78616 4.58166 0)
(3.08741 4.74063 0)
(2.31262 4.80403 0)
(1.41061 4.74068 0)
(0.614296 4.44155 0)
(9.99352 0.0990172 0)
(9.9719 0.19663 0)
(9.93338 0.294272 0)
(9.8792 0.39352 0)
(9.81033 0.495886 0)
(9.72706 0.602744 0)
(9.62939 0.715362 0)
(9.51723 0.834964 0)
(9.39045 0.962765 0)
(9.24885 1.09998 0)
(9.09212 1.24784 0)
(8.91989 1.40754 0)
(8.73168 1.58031 0)
(8.52692 1.76733 0)
(8.30488 1.96976 0)
(8.06466 2.18865 0)
(7.80508 2.42491 0)
(7.52463 2.67923 0)
(7.22123 2.95191 0)
(6.89208 3.24273 0)
(6.53336 3.55061 0)
(6.13985 3.87322 0)
(5.70449 4.20634 0)
(5.21801 4.54295 0)
(4.66862 4.87194 0)
(4.04261 5.17644 0)
(3.32354 5.43178 0)
(2.5097 5.60147 0)
(1.54186 5.64306 0)
(0.664062 5.41766 0)
(9.99384 0.106732 0)
(9.97329 0.212057 0)
(9.93677 0.317588 0)
(9.88553 0.424972 0)
(9.82056 0.535735 0)
(9.74214 0.651295 0)
(9.6503 0.77299 0)
(9.54499 0.902113 0)
(9.42614 1.03995 0)
(9.29361 1.18778 0)
(9.14717 1.34691 0)
(8.98653 1.51864 0)
(8.81127 1.70427 0)
(8.62089 1.90513 0)
(8.41472 2.12255 0)
(8.19187 2.3578 0)
(7.95117 2.61211 0)
(7.69104 2.88662 0)
(7.40928 3.18228 0)
(7.10286 3.49976 0)
(6.76758 3.83927 0)
(6.39761 4.20023 0)
(5.9849 4.58076 0)
(5.51853 4.9768 0)
(4.98395 5.38071 0)
(4.36298 5.7789 0)
(3.63176 6.14849 0)
(2.7801 6.45009 0)
(1.73351 6.62805 0)
(0.744875 6.50275 0)
(9.9942 0.114037 0)
(9.97486 0.226638 0)
(9.94053 0.339569 0)
(9.89247 0.454552 0)
(9.83166 0.573145 0)
(9.7584 0.696804 0)
(9.67273 0.82692 0)
(9.57468 0.964849 0)
(9.46423 1.11193 0)
(9.34131 1.26952 0)
(9.20578 1.43897 0)
(9.05743 1.62166 0)
(8.89594 1.81901 0)
(8.72089 2.03247 0)
(8.53172 2.26351 0)
(8.32765 2.51368 0)
(8.10757 2.78453 0)
(7.86998 3.07767 0)
(7.61274 3.39474 0)
(7.33284 3.73739 0)
(7.02603 4.10723 0)
(6.68629 4.50567 0)
(6.3051 4.93361 0)
(5.87041 5.39081 0)
(5.36525 5.87461 0)
(4.76656 6.37743 0)
(4.04059 6.88242 0)
(3.16152 7.35281 0)
(2.02491 7.72273 0)
(0.880852 7.75686 0)
(9.99459 0.120887 0)
(9.97656 0.240294 0)
(9.94459 0.360113 0)
(9.8999 0.482143 0)
(9.84348 0.607975 0)
(9.77564 0.739099 0)
(9.69646 0.876949 0)
(9.60602 1.02293 0)
(9.50437 1.17843 0)
(9.39152 1.34485 0)
(9.26742 1.52361 0)
(9.13196 1.71615 0)
(8.98493 1.92398 0)
(8.82607 2.14865 0)
(8.65493 2.39181 0)
(8.47089 2.65522 0)
(8.27307 2.94076 0)
(8.06015 3.25049 0)
(7.83028 3.58673 0)
(7.58077 3.95209 0)
(7.30775 4.34961 0)
(7.00563 4.78276 0)
(6.66625 5.25553 0)
(6.27763 5.77219 0)
(5.82179 6.33677 0)
(5.27207 6.95138 0)
(4.58442 7.6126 0)
(3.71016 8.30005 0)
(2.48857 8.95775 0)
(1.12477 9.2933 0)
(9.99501 0.127248 0)
(9.97836 0.25296 0)
(9.94888 0.379137 0)
(9.90774 0.507643 0)
(9.8559 0.640105 0)
(9.7937 0.77804 0)
(9.72126 0.922916 0)
(9.63872 1.07617 0)
(9.5462 1.23924 0)
(9.44379 1.41355 0)
(9.33154 1.60056 0)
(9.20946 1.80177 0)
(9.07748 2.01876 0)
(8.93548 2.25316 0)
(8.78322 2.50677 0)
(8.62031 2.78152 0)
(8.44614 3.07957 0)
(8.25978 3.40339 0)
(8.05984 3.75586 0)
(7.84428 4.14045 0)
(7.61009 4.56146 0)
(7.35285 5.02429 0)
(7.06596 5.53589 0)
(6.73933 6.10526 0)
(6.35705 6.74412 0)
(5.89352 7.4676 0)
(5.30068 8.29492 0)
(4.50931 9.24675 0)
(3.26972 10.3413 0)
(1.60575 11.36 0)
(9.99544 0.133091 0)
(9.98025 0.264586 0)
(9.95336 0.396568 0)
(9.9159 0.530959 0)
(9.8688 0.669415 0)
(9.8124 0.813473 0)
(9.74691 0.964627 0)
(9.67249 1.12434 0)
(9.58935 1.29407 0)
(9.49766 1.47526 0)
(9.39759 1.66941 0)
(9.28926 1.87804 0)
(9.17276 2.10277 0)
(9.04815 2.34532 0)
(8.91542 2.60755 0)
(8.77446 2.89153 0)
(8.62503 3.19962 0)
(8.46669 3.53458 0)
(8.2987 3.89969 0)
(8.11994 4.29906 0)
(7.92872 4.73789 0)
(7.72249 5.22303 0)
(7.49743 5.76371 0)
(7.24767 6.37273 0)
(6.96377 7.06855 0)
(6.63025 7.87904 0)
(6.21439 8.84971 0)
(5.66685 10.0638 0)
(4.69243 11.7299 0)
(2.68952 14.5956 0)
(0.178316 -0.191784 0)
(0.401797 -0.167452 0)
(0.636791 -0.137142 0)
(0.845124 -0.111744 0)
(1.02114 -0.0917024 0)
(1.17064 -0.0758441 0)
(1.29992 -0.0632026 0)
(1.41328 -0.0530728 0)
(1.51362 -0.0448803 0)
(1.60306 -0.0381334 0)
(1.6831 -0.0323544 0)
(1.75447 -0.027002 0)
(1.81673 -0.0215374 0)
(1.86833 -0.0157236 0)
(1.90765 -0.00997976 0)
(1.93477 -0.00517261 0)
(1.95175 -0.00171446 0)
(1.95994 0.000974998 0)
(1.9588 0.00319189 0)
(1.9493 0.00494858 0)
(1.93564 0.00644132 0)
(1.92276 0.00782192 0)
(1.91429 0.00867665 0)
(1.91295 0.0078186 0)
(1.92111 0.00391846 0)
(1.94127 -0.00251136 0)
(1.97514 -0.0102035 0)
(2.02263 -0.0186667 0)
(2.08225 -0.0263861 0)
(2.16453 -0.0290191 0)
(0.132539 -0.396322 0)
(0.343105 -0.36365 0)
(0.551572 -0.306149 0)
(0.738906 -0.255014 0)
(0.900384 -0.213997 0)
(1.04059 -0.18133 0)
(1.1644 -0.155166 0)
(1.27518 -0.134073 0)
(1.37516 -0.116891 0)
(1.466 -0.102673 0)
(1.54907 -0.0904834 0)
(1.62543 -0.0790763 0)
(1.69528 -0.0669977 0)
(1.75757 -0.0534601 0)
(1.81025 -0.0396639 0)
(1.85211 -0.0278981 0)
(1.88568 -0.017259 0)
(1.91426 -0.00514111 0)
(1.93721 0.00489495 0)
(1.95211 0.00897826 0)
(1.95879 0.00726669 0)
(1.96088 0.00170999 0)
(1.95968 -0.00581746 0)
(1.95481 -0.0142726 0)
(1.94653 -0.0222385 0)
(1.9346 -0.0275423 0)
(1.92069 -0.0305729 0)
(1.90606 -0.033075 0)
(1.8946 -0.0346129 0)
(1.89761 -0.0327292 0)
(0.0938329 -0.603466 0)
(0.265353 -0.563076 0)
(0.420878 -0.480038 0)
(0.562109 -0.404386 0)
(0.683079 -0.34306 0)
(0.787776 -0.293755 0)
(0.879585 -0.253849 0)
(0.960771 -0.221206 0)
(1.03281 -0.194172 0)
(1.09671 -0.171604 0)
(1.15343 -0.152528 0)
(1.2042 -0.135283 0)
(1.24991 -0.117147 0)
(1.29029 -0.0953419 0)
(1.32327 -0.0715199 0)
(1.34371 -0.0549903 0)
(1.35486 -0.0487067 0)
(1.36744 -0.0410169 0)
(1.3571 -0.0252771 0)
(1.3102 -0.00771283 0)
(1.23947 0.00558709 0)
(1.15379 0.0144003 0)
(1.06068 0.0197092 0)
(0.966913 0.0216895 0)
(0.880741 0.0200965 0)
(0.814064 0.013885 0)
(0.782271 0.00308622 0)
(0.770009 -0.00849495 0)
(0.787322 -0.0248136 0)
(0.849613 -0.0492346 0)
(0.0599339 -0.749616 0)
(0.182165 -0.694614 0)
(0.273988 -0.589497 0)
(0.360753 -0.495751 0)
(0.431248 -0.419829 0)
(0.490254 -0.358549 0)
(0.53945 -0.308766 0)
(0.580122 -0.267745 0)
(0.613102 -0.233286 0)
(0.638505 -0.203992 0)
(0.65614 -0.179178 0)
(0.666755 -0.157844 0)
(0.671878 -0.138352 0)
(0.673755 -0.117411 0)
(0.677232 -0.0907947 0)
(0.663903 -0.0566024 0)
(0.579734 -0.020805 0)
(0.470327 0.0120645 0)
(0.392926 0.0470452 0)
(0.325739 0.0736468 0)
(0.25714 0.0878404 0)
(0.191785 0.0919577 0)
(0.132073 0.0880469 0)
(0.0826622 0.0764557 0)
(0.0474472 0.0561984 0)
(0.0267128 0.0268323 0)
(0.0233318 -0.00423122 0)
(0.0502848 -0.0331889 0)
(0.0894371 -0.0663615 0)
(0.15925 -0.0969445 0)
(0.026233 -0.839945 0)
(0.0907275 -0.764634 0)
(0.11166 -0.64136 0)
(0.138552 -0.535774 0)
(0.15092 -0.449742 0)
(0.155868 -0.379877 0)
(0.153107 -0.322908 0)
(0.14338 -0.275768 0)
(0.127348 -0.235732 0)
(0.104728 -0.200637 0)
(0.0735798 -0.168881 0)
(0.029595 -0.138178 0)
(-0.0299714 -0.106082 0)
(-0.107177 -0.0693112 0)
(-0.1928 -0.0249533 0)
(-0.27186 0.0199891 0)
(-0.317048 0.0504401 0)
(-0.365163 0.0666258 0)
(-0.408653 0.0810169 0)
(-0.449412 0.0967067 0)
(-0.485085 0.106772 0)
(-0.513581 0.107416 0)
(-0.533676 0.0986453 0)
(-0.544483 0.0809649 0)
(-0.546212 0.0550865 0)
(-0.541149 0.0228529 0)
(-0.531843 -0.0121093 0)
(-0.508702 -0.0486586 0)
(-0.488258 -0.0812077 0)
(-0.475022 -0.103486 0)
(-0.00962224 -0.865305 0)
(-0.0099026 -0.765441 0)
(-0.0617465 -0.628094 0)
(-0.0998428 -0.515565 0)
(-0.150239 -0.422926 0)
(-0.205151 -0.347419 0)
(-0.265831 -0.285364 0)
(-0.331921 -0.233322 0)
(-0.402995 -0.188252 0)
(-0.478316 -0.147816 0)
(-0.556568 -0.110656 0)
(-0.63565 -0.0761232 0)
(-0.712837 -0.0440181 0)
(-0.786465 -0.0144948 0)
(-0.847879 0.0128373 0)
(-0.890543 0.0390306 0)
(-0.930204 0.0644444 0)
(-0.964959 0.0861556 0)
(-0.994232 0.101296 0)
(-1.0167 0.112161 0)
(-1.03159 0.116558 0)
(-1.03897 0.112402 0)
(-1.03947 0.0994688 0)
(-1.03407 0.0783506 0)
(-1.02435 0.0500579 0)
(-1.0127 0.016275 0)
(-1.00105 -0.0203524 0)
(-0.986855 -0.05636 0)
(-0.978734 -0.0884328 0)
(-0.977226 -0.111168 0)
(-0.051949 -0.81813 0)
(-0.120598 -0.694619 0)
(-0.24063 -0.552971 0)
(-0.345703 -0.43905 0)
(-0.455258 -0.346205 0)
(-0.563824 -0.271061 0)
(-0.670484 -0.209898 0)
(-0.773762 -0.159553 0)
(-0.872336 -0.117271 0)
(-0.96517 -0.0809257 0)
(-1.05168 -0.0491026 0)
(-1.13166 -0.0207964 0)
(-1.20209 0.00458283 0)
(-1.25962 0.0275215 0)
(-1.3074 0.0488999 0)
(-1.34841 0.0691803 0)
(-1.38231 0.087645 0)
(-1.40897 0.102817 0)
(-1.42833 0.113553 0)
(-1.43996 0.119393 0)
(-1.444 0.118899 0)
(-1.44139 0.11083 0)
(-1.4335 0.0950225 0)
(-1.4219 0.0720565 0)
(-1.40844 0.0429968 0)
(-1.39533 0.00948034 0)
(-1.38431 -0.0260758 0)
(-1.37587 -0.0605072 0)
(-1.37411 -0.09116 0)
(-1.37635 -0.113119 0)
(-0.0996724 -0.699476 0)
(-0.232048 -0.558838 0)
(-0.416791 -0.420078 0)
(-0.580072 -0.312221 0)
(-0.735942 -0.22811 0)
(-0.880467 -0.162612 0)
(-1.01282 -0.110837 0)
(-1.13287 -0.0697051 0)
(-1.24094 -0.0366321 0)
(-1.33685 -0.00976313 0)
(-1.41892 0.0121257 0)
(-1.4887 0.0306555 0)
(-1.54896 0.047149 0)
(-1.6024 0.0628867 0)
(-1.64841 0.0783431 0)
(-1.68639 0.0929684 0)
(-1.71604 0.105627 0)
(-1.73749 0.115193 0)
(-1.75103 0.120839 0)
(-1.75695 0.121843 0)
(-1.75591 0.117173 0)
(-1.74918 0.106017 0)
(-1.73834 0.0882545 0)
(-1.7251 0.0643907 0)
(-1.71133 0.0354665 0)
(-1.69916 0.0031399 0)
(-1.69034 -0.0303504 0)
(-1.68672 -0.0623564 0)
(-1.68957 -0.090806 0)
(-1.69378 -0.110884 0)
(-0.154202 -0.514408 0)
(-0.345882 -0.367035 0)
(-0.586578 -0.243796 0)
(-0.795957 -0.152268 0)
(-0.984149 -0.0837081 0)
(-1.14949 -0.0328773 0)
(-1.28898 0.001319 0)
(-1.40759 0.0254203 0)
(-1.50863 0.0429848 0)
(-1.59553 0.0564713 0)
(-1.67273 0.0680717 0)
(-1.74108 0.0786132 0)
(-1.80121 0.0884605 0)
(-1.85319 0.0977716 0)
(-1.89681 0.106614 0)
(-1.93185 0.11468 0)
(-1.95833 0.121158 0)
(-1.97655 0.125103 0)
(-1.98702 0.125713 0)
(-1.99035 0.122259 0)
(-1.9875 0.113969 0)
(-1.97983 0.100286 0)
(-1.96895 0.0811249 0)
(-1.95657 0.0569269 0)
(-1.94454 0.0286985 0)
(-1.93498 -0.0019251 0)
(-1.92935 -0.032878 0)
(-1.93041 -0.0620343 0)
(-1.93732 -0.0878018 0)
(-1.94313 -0.105602 0)
(-0.222379 -0.28351 0)
(-0.479823 -0.123058 0)
(-0.760647 -0.00916533 0)
(-0.986211 0.050884 0)
(-1.17518 0.0826035 0)
(-1.33237 0.0982958 0)
(-1.4679 0.107903 0)
(-1.58501 0.114007 0)
(-1.68681 0.118163 0)
(-1.77558 0.121331 0)
(-1.8531 0.124019 0)
(-1.92068 0.126485 0)
(-1.97918 0.128858 0)
(-2.02893 0.131117 0)
(-2.06998 0.133153 0)
(-2.10245 0.134687 0)
(-2.12661 0.13512 0)
(-2.14295 0.133668 0)
(-2.15208 0.129563 0)
(-2.15479 0.122113 0)
(-2.1521 0.110712 0)
(-2.14539 0.0949676 0)
(-2.13623 0.0748307 0)
(-2.12628 0.0506841 0)
(-2.11728 0.0234711 0)
(-2.1112 -0.00524304 0)
(-2.1097 -0.0334532 0)
(-2.11546 -0.0595834 0)
(-2.12629 -0.0825104 0)
(-2.13364 -0.0981196 0)
(-0.274111 0.125049 0)
(-0.557839 0.206315 0)
(-0.853083 0.231994 0)
(-1.08964 0.23992 0)
(-1.28774 0.236219 0)
(-1.45353 0.227046 0)
(-1.59305 0.21615 0)
(-1.71126 0.205237 0)
(-1.81232 0.195157 0)
(-1.89923 0.186345 0)
(-1.97424 0.178981 0)
(-2.03904 0.172859 0)
(-2.09469 0.16755 0)
(-2.14163 0.162659 0)
(-2.18005 0.157962 0)
(-2.21026 0.153241 0)
(-2.23276 0.148035 0)
(-2.24818 0.141637 0)
(-2.25721 0.133284 0)
(-2.26062 0.122324 0)
(-2.25942 0.108278 0)
(-2.25494 0.0908796 0)
(-2.2487 0.0701122 0)
(-2.24225 0.046296 0)
(-2.23719 0.0202837 0)
(-2.23528 -0.00639574 0)
(-2.2385 -0.0318255 0)
(-2.24909 -0.0549193 0)
(-2.26388 -0.0750181 0)
(-2.27284 -0.0886616 0)
(-0.287289 0.484134 0)
(-0.604386 0.51801 0)
(-0.931592 0.488655 0)
(-1.18333 0.445807 0)
(-1.38605 0.401112 0)
(-1.55025 0.359718 0)
(-1.68512 0.324037 0)
(-1.79776 0.294277 0)
(-1.89315 0.26936 0)
(-1.9745 0.248414 0)
(-2.04429 0.231057 0)
(-2.10453 0.21661 0)
(-2.15638 0.203972 0)
(-2.20018 0.192254 0)
(-2.23601 0.181155 0)
(-2.26427 0.170629 0)
(-2.28567 0.160356 0)
(-2.30098 0.149613 0)
(-2.31089 0.13757 0)
(-2.31604 0.123591 0)
(-2.31734 0.107321 0)
(-2.31603 0.0886232 0)
(-2.31359 0.067522 0)
(-2.31147 0.0442662 0)
(-2.31108 0.019589 0)
(-2.31399 -0.0050369 0)
(-2.32223 -0.0278248 0)
(-2.33783 -0.0479612 0)
(-2.35675 -0.0652939 0)
(-2.36747 -0.0771586 0)
(-0.327351 0.909346 0)
(-0.689762 0.881515 0)
(-1.04044 0.76485 0)
(-1.28948 0.653068 0)
(-1.48021 0.560842 0)
(-1.62977 0.484958 0)
(-1.75002 0.423975 0)
(-1.84984 0.376135 0)
(-1.93464 0.337424 0)
(-2.00699 0.305089 0)
(-2.06908 0.278515 0)
(-2.12323 0.256739 0)
(-2.17066 0.237722 0)
(-2.21126 0.219848 0)
(-2.24469 0.202842 0)
(-2.27133 0.187081 0)
(-2.29218 0.17246 0)
(-2.3082 0.158115 0)
(-2.31993 0.143006 0)
(-2.32779 0.126483 0)
(-2.33246 0.108349 0)
(-2.33508 0.0886492 0)
(-2.33711 0.0674726 0)
(-2.33998 0.0449793 0)
(-2.34488 0.0217206 0)
(-2.35317 -0.000968373 0)
(-2.36677 -0.0213421 0)
(-2.38757 -0.0386426 0)
(-2.41089 -0.0532386 0)
(-2.42356 -0.0634018 0)
(-0.409514 1.4096 0)
(-0.841057 1.29026 0)
(-1.20491 1.04293 0)
(-1.42135 0.840409 0)
(-1.57572 0.700504 0)
(-1.69541 0.592134 0)
(-1.79013 0.507979 0)
(-1.86965 0.445767 0)
(-1.93964 0.396561 0)
(-2.00026 0.354395 0)
(-2.05242 0.31986 0)
(-2.09914 0.29253 0)
(-2.14195 0.268802 0)
(-2.17976 0.245739 0)
(-2.2112 0.223347 0)
(-2.23658 0.202962 0)
(-2.25744 0.184876 0)
(-2.27506 0.16783 0)
(-2.28973 0.150316 0)
(-2.30135 0.131642 0)
(-2.31024 0.111889 0)
(-2.31744 0.0913928 0)
(-2.32448 0.0703546 0)
(-2.33284 0.0488085 0)
(-2.34355 0.0270202 0)
(-2.35769 0.0060721 0)
(-2.37717 -0.0122362 0)
(-2.40349 -0.0268913 0)
(-2.43154 -0.0386378 0)
(-2.44642 -0.0469678 0)
(-0.585011 2.26633 0)
(-1.09874 1.88753 0)
(-1.46357 1.3316 0)
(-1.59158 0.96061 0)
(-1.67044 0.795148 0)
(-1.74535 0.671543 0)
(-1.80363 0.569702 0)
(-1.85525 0.49912 0)
(-1.90809 0.445028 0)
(-1.95589 0.394403 0)
(-1.996 0.353093 0)
(-2.03393 0.323084 0)
(-2.07259 0.297436 0)
(-2.10878 0.270356 0)
(-2.13894 0.242803 0)
(-2.16335 0.218266 0)
(-2.18481 0.197804 0)
(-2.20522 0.179223 0)
(-2.22432 0.160017 0)
(-2.24104 0.139464 0)
(-2.25514 0.118164 0)
(-2.2676 0.0969473 0)
(-2.28014 0.0761878 0)
(-2.29441 0.0557561 0)
(-2.3114 0.0355287 0)
(-2.33181 0.0162234 0)
(-2.35748 -0.000323295 0)
(-2.38997 -0.012591 0)
(-2.42317 -0.0211965 0)
(-2.4406 -0.0273184 0)
(9.9959 0.13849 0)
(9.98224 0.275328 0)
(9.95808 0.412662 0)
(9.92448 0.552458 0)
(9.88233 0.696395 0)
(9.83203 0.846025 0)
(9.77381 1.00285 0)
(9.70792 1.16835 0)
(9.63462 1.34398 0)
(9.55421 1.53121 0)
(9.46694 1.73153 0)
(9.37309 1.94648 0)
(9.27291 2.17769 0)
(9.16667 2.4269 0)
(9.05461 2.69602 0)
(8.93696 2.98717 0)
(8.81391 3.30282 0)
(8.6856 3.64584 0)
(8.5521 4.01975 0)
(8.41342 4.42891 0)
(8.2695 4.87896 0)
(8.12024 5.37734 0)
(7.96559 5.93424 0)
(7.80587 6.56397 0)
(7.64232 7.28762 0)
(7.48004 8.13777 0)
(7.33246 9.1684 0)
(7.29014 10.4731 0)
(7.75307 12.197 0)
(7.94525 14.9164 0)
(9.99638 0.143453 0)
(9.98432 0.28519 0)
(9.96302 0.427401 0)
(9.93346 0.572084 0)
(9.89647 0.720931 0)
(9.85249 0.875499 0)
(9.80179 1.03729 0)
(9.74468 1.20779 0)
(9.68153 1.38845 0)
(9.6127 1.58072 0)
(9.53859 1.78607 0)
(9.45961 2.00605 0)
(9.37619 2.24225 0)
(9.28882 2.4964 0)
(9.19802 2.77039 0)
(9.10437 3.06631 0)
(9.00851 3.3866 0)
(8.91121 3.7341 0)
(8.81338 4.11224 0)
(8.71619 4.5253 0)
(8.62127 4.97866 0)
(8.53099 5.47935 0)
(8.44909 6.03668 0)
(8.38184 6.66319 0)
(8.34047 7.37607 0)
(8.34715 8.19867 0)
(8.44086 9.16101 0)
(8.67772 10.2961 0)
(9.32683 11.5479 0)
(9.82071 12.6288 0)
(9.99688 0.147894 0)
(9.98649 0.29401 0)
(9.96816 0.440564 0)
(9.94277 0.589571 0)
(9.91112 0.742726 0)
(9.87364 0.90158 0)
(9.83067 1.06763 0)
(9.78258 1.24233 0)
(9.72981 1.42712 0)
(9.67283 1.62341 0)
(9.61213 1.83265 0)
(9.54828 2.05633 0)
(9.48189 2.29599 0)
(9.41366 2.5533 0)
(9.34439 2.83003 0)
(9.275 3.12821 0)
(9.20659 3.45008 0)
(9.14049 3.79828 0)
(9.0784 4.17592 0)
(9.02253 4.58675 0)
(8.97589 5.03536 0)
(8.94278 5.52741 0)
(8.92948 6.06985 0)
(8.94554 6.67103 0)
(9.00545 7.34034 0)
(9.13135 8.08632 0)
(9.35426 8.91065 0)
(9.68351 9.80188 0)
(10.2484 10.7081 0)
(10.9343 11.418 0)
(9.9974 0.15176 0)
(9.98872 0.301679 0)
(9.97343 0.451983 0)
(9.95233 0.604687 0)
(9.92613 0.761479 0)
(9.89531 0.923893 0)
(9.86022 1.0934 0)
(9.82132 1.27143 0)
(9.77909 1.45937 0)
(9.7341 1.6586 0)
(9.68695 1.87049 0)
(9.63835 2.09646 0)
(9.58907 2.33797 0)
(9.54001 2.59654 0)
(9.49222 2.87383 0)
(9.44692 3.17165 0)
(9.40562 3.49198 0)
(9.37012 3.83708 0)
(9.34273 4.20953 0)
(9.32642 4.61229 0)
(9.3251 5.04874 0)
(9.3441 5.52272 0)
(9.39063 6.03831 0)
(9.4746 6.59945 0)
(9.60919 7.20886 0)
(9.81118 7.86611 0)
(10.1032 8.56399 0)
(10.4939 9.2877 0)
(11.0496 10.027 0)
(11.84 10.6688 0)
(9.99792 0.155003 0)
(9.99099 0.308107 0)
(9.97881 0.461523 0)
(9.96206 0.617257 0)
(9.9414 0.776973 0)
(9.91731 0.942178 0)
(9.8902 1.11431 0)
(9.86055 1.29474 0)
(9.82893 1.48482 0)
(9.79597 1.68584 0)
(9.76239 1.8991 0)
(9.72897 2.12591 0)
(9.69667 2.3676 0)
(9.66653 2.62554 0)
(9.63983 2.90118 0)
(9.61803 3.19605 0)
(9.60291 3.5118 0)
(9.59666 3.85019 0)
(9.60196 4.21315 0)
(9.62218 4.60271 0)
(9.66166 5.02096 0)
(9.72589 5.46989 0)
(9.82194 5.9511 0)
(9.95875 6.46526 0)
(10.1473 7.01125 0)
(10.4007 7.58516 0)
(10.7361 8.17883 0)
(11.165 8.77755 0)
(11.7103 9.36978 0)
(12.4602 9.88072 0)
(9.99845 0.157581 0)
(9.99329 0.313206 0)
(9.98424 0.469058 0)
(9.97188 0.627112 0)
(9.9568 0.789002 0)
(9.93947 0.956194 0)
(9.92035 1.13007 0)
(9.89995 1.31196 0)
(9.8789 1.50312 0)
(9.85788 1.70477 0)
(9.8377 1.9181 0)
(9.81925 2.14429 0)
(9.80356 2.38452 0)
(9.79184 2.63996 0)
(9.7855 2.91181 0)
(9.78617 3.2013 0)
(9.79584 3.50966 0)
(9.81685 3.83813 0)
(9.85207 4.18793 0)
(9.90497 4.56018 0)
(9.97985 4.95577 0)
(10.0819 5.37515 0)
(10.2174 5.81806 0)
(10.394 6.28303 0)
(10.6203 6.76678 0)
(10.9061 7.26353 0)
(11.2624 7.76406 0)
(11.6972 8.25284 0)
(12.2112 8.71321 0)
(12.8838 9.10375 0)
(9.99898 0.159455 0)
(9.99559 0.3169 0)
(9.98967 0.474474 0)
(9.9817 0.634107 0)
(9.97219 0.797388 0)
(9.96159 0.965731 0)
(9.95039 1.14046 0)
(9.93915 1.32282 0)
(9.92852 1.514 0)
(9.91924 1.71511 0)
(9.91215 1.92722 0)
(9.90824 2.15136 0)
(9.90861 2.38852 0)
(9.91454 2.63968 0)
(9.92753 2.90576 0)
(9.94931 3.18764 0)
(9.98192 3.48614 0)
(10.0277 3.80198 0)
(10.0896 4.13571 0)
(10.1709 4.48762 0)
(10.2755 4.85763 0)
(10.408 5.245 0)
(10.5738 5.64817 0)
(10.7786 6.06433 0)
(11.0289 6.48898 0)
(11.3311 6.91545 0)
(11.6912 7.3344 0)
(12.1133 7.73245 0)
(12.5913 8.0951 0)
(13.1939 8.40193 0)
(9.99951 0.16059 0)
(9.99787 0.319123 0)
(9.99507 0.477674 0)
(9.99145 0.638114 0)
(9.98743 0.801978 0)
(9.98348 0.970616 0)
(9.98007 1.14528 0)
(9.9778 1.32713 0)
(9.97733 1.51726 0)
(9.97944 1.71667 0)
(9.98501 1.92629 0)
(9.99505 2.14699 0)
(10.0107 2.37959 0)
(10.0333 2.62481 0)
(10.0643 2.88331 0)
(10.1056 3.15564 0)
(10.159 3.44222 0)
(10.2269 3.74328 0)
(10.3119 4.05879 0)
(10.4171 4.38838 0)
(10.5459 4.7312 0)
(10.702 5.0857 0)
(10.8897 5.44952 0)
(11.1131 5.81912 0)
(11.3767 6.18962 0)
(11.684 6.55449 0)
(12.038 6.90546 0)
(12.4401 7.23226 0)
(12.8826 7.52383 0)
(13.4234 7.76892 0)
(10 0.160959 0)
(10.0001 0.31982 0)
(10.0004 0.478577 0)
(10.001 0.639034 0)
(10.0024 0.802654 0)
(10.0049 0.970719 0)
(10.0091 1.1444 0)
(10.0155 1.32476 0)
(10.0249 1.51279 0)
(10.0379 1.70937 0)
(10.0556 1.91528 0)
(10.0788 2.13125 0)
(10.1088 2.35788 0)
(10.1469 2.59568 0)
(10.1944 2.84504 0)
(10.2532 3.1062 0)
(10.3251 3.37922 0)
(10.4122 3.66391 0)
(10.5168 3.95979 0)
(10.6416 4.26598 0)
(10.7893 4.58109 0)
(10.963 4.90311 0)
(11.1656 5.22924 0)
(11.4 5.5558 0)
(11.6689 5.87804 0)
(11.974 6.19013 0)
(12.3163 6.48524 0)
(12.6954 6.75557 0)
(13.1036 6.99282 0)
(13.5896 7.19021 0)
(10.0005 0.16054 0)
(10.0023 0.318947 0)
(10.0056 0.477124 0)
(10.0104 0.636791 0)
(10.017 0.799334 0)
(10.0258 0.965954 0)
(10.0373 1.13773 0)
(10.052 1.31564 0)
(10.0707 1.50055 0)
(10.0942 1.69322 0)
(10.1232 1.8943 0)
(10.1587 2.10433 0)
(10.202 2.32374 0)
(10.2542 2.55282 0)
(10.3167 2.79173 0)
(10.391 3.04043 0)
(10.479 3.29868 0)
(10.5823 3.56596 0)
(10.7031 3.84144 0)
(10.8433 4.1239 0)
(11.0053 4.41164 0)
(11.1912 4.70243 0)
(11.4031 4.99338 0)
(11.6426 5.28093 0)
(11.9112 5.5608 0)
(12.2095 5.82803 0)
(12.5368 6.07713 0)
(12.8921 6.30222 0)
(13.2681 6.4973 0)
(13.7066 6.65824 0)
(10.001 0.159318 0)
(10.0044 0.316477 0)
(10.0106 0.473275 0)
(10.0194 0.631339 0)
(10.031 0.791971 0)
(10.0458 0.956284 0)
(10.0643 1.12527 0)
(10.087 1.29979 0)
(10.1145 1.48061 0)
(10.1476 1.66835 0)
(10.1872 1.86354 0)
(10.2341 2.06655 0)
(10.2894 2.27765 0)
(10.3543 2.49693 0)
(10.43 2.72434 0)
(10.5179 2.95962 0)
(10.6195 3.20229 0)
(10.7362 3.45158 0)
(10.8699 3.70644 0)
(11.022 3.96545 0)
(11.1942 4.22677 0)
(11.3879 4.48814 0)
(11.6045 4.74678 0)
(11.8448 4.99946 0)
(12.1093 5.24247 0)
(12.3976 5.47173 0)
(12.7086 5.68293 0)
(13.0406 5.87174 0)
(13.3872 6.03395 0)
(13.7849 6.16705 0)
(10.0015 0.157286 0)
(10.0065 0.312394 0)
(10.0153 0.467012 0)
(10.028 0.622661 0)
(10.0444 0.780555 0)
(10.0649 0.941715 0)
(10.0899 1.10703 0)
(10.1201 1.27727 0)
(10.1558 1.45308 0)
(10.1979 1.63497 0)
(10.2472 1.82332 0)
(10.3044 2.01837 0)
(10.3705 2.22024 0)
(10.4466 2.42885 0)
(10.5338 2.64397 0)
(10.6331 2.86517 0)
(10.746 3.0918 0)
(10.8736 3.32294 0)
(11.0171 3.55739 0)
(11.1778 3.79367 0)
(11.3567 4.02993 0)
(11.5548 4.26399 0)
(11.7726 4.49334 0)
(12.0105 4.71512 0)
(12.2683 4.92623 0)
(12.545 5.12342 0)
(12.8394 5.30338 0)
(13.1493 5.46296 0)
(13.4694 5.59927 0)
(13.8322 5.71079 0)
(10.0019 0.154441 0)
(10.0084 0.306698 0)
(10.0199 0.458337 0)
(10.0361 0.61077 0)
(10.057 0.765116 0)
(10.0829 0.922302 0)
(10.1141 1.08312 0)
(10.1511 1.24824 0)
(10.1944 1.4182 0)
(10.2447 1.59338 0)
(10.3027 1.77406 0)
(10.3691 1.96035 0)
(10.4447 2.15222 0)
(10.5305 2.34949 0)
(10.6274 2.55177 0)
(10.7364 2.75852 0)
(10.8583 2.96897 0)
(10.9942 3.18211 0)
(11.145 3.39671 0)
(11.3115 3.61128 0)
(11.4943 3.82406 0)
(11.6939 4.03306 0)
(11.9104 4.23605 0)
(12.1437 4.43062 0)
(12.3931 4.61423 0)
(12.6575 4.78432 0)
(12.9355 4.93842 0)
(13.2249 5.07425 0)
(13.5214 5.18985 0)
(13.854 5.28436 0)
(10.0024 0.150791 0)
(10.0102 0.299402 0)
(10.0241 0.447273 0)
(10.0437 0.595705 0)
(10.0689 0.745717 0)
(10.0997 0.898143 0)
(10.1365 1.05368 0)
(10.1798 1.21289 0)
(10.23 1.37622 0)
(10.2877 1.54395 0)
(10.3535 1.71624 0)
(10.4279 1.8931 0)
(10.5118 2.0744 0)
(10.6059 2.25984 0)
(10.7108 2.44896 0)
(10.8275 2.64112 0)
(10.9565 2.83548 0)
(11.0986 3.03104 0)
(11.2544 3.22657 0)
(11.4243 3.42064 0)
(11.6087 3.61165 0)
(11.8076 3.79783 0)
(12.0208 3.97725 0)
(12.2479 4.14792 0)
(12.4881 4.30781 0)
(12.7401 4.45495 0)
(13.0024 4.58749 0)
(13.2731 4.70383 0)
(13.5484 4.80266 0)
(13.8548 4.88354 0)
(10.0027 0.146346 0)
(10.0119 0.290532 0)
(10.0281 0.433865 0)
(10.0508 0.577533 0)
(10.0798 0.722455 0)
(10.1151 0.869374 0)
(10.1571 1.01889 0)
(10.2061 1.17148 0)
(10.2625 1.32749 0)
(10.3267 1.48711 0)
(10.3993 1.65041 0)
(10.4807 1.81732 0)
(10.5716 1.98761 0)
(10.6725 2.16092 0)
(10.784 2.33673 0)
(10.9067 2.51435 0)
(11.041 2.69295 0)
(11.1874 2.87152 0)
(11.3462 3.0489 0)
(11.5177 3.22379 0)
(11.7018 3.39475 0)
(11.8983 3.56024 0)
(12.1069 3.71865 0)
(12.327 3.86836 0)
(12.5574 4.00777 0)
(12.7972 4.13537 0)
(13.0447 4.24982 0)
(13.2983 4.35001 0)
(13.5548 4.43507 0)
(13.8384 4.50483 0)
(10.0031 0.141127 0)
(10.0134 0.280124 0)
(10.0317 0.418173 0)
(10.0573 0.556342 0)
(10.0898 0.695456 0)
(10.1293 0.836165 0)
(10.1759 0.978986 0)
(10.23 1.12431 0)
(10.2918 1.27238 0)
(10.3617 1.42333 0)
(10.4402 1.57716 0)
(10.5275 1.7337 0)
(10.6242 1.8927 0)
(10.7306 2.05373 0)
(10.8473 2.21624 0)
(10.9744 2.37955 0)
(11.1124 2.54283 0)
(11.2615 2.70513 0)
(11.4218 2.86539 0)
(11.5932 3.02243 0)
(11.7756 3.17501 0)
(11.9686 3.32181 0)
(12.1717 3.46152 0)
(12.3841 3.59282 0)
(12.6048 3.71448 0)
(12.8327 3.82537 0)
(13.0664 3.92452 0)
(13.3045 4.01116 0)
(13.5442 4.08476 0)
(13.8078 4.1453 0)
(10.0034 0.135155 0)
(10.0148 0.268228 0)
(10.035 0.400272 0)
(10.0632 0.532243 0)
(10.0988 0.66487 0)
(10.142 0.798717 0)
(10.1927 0.934219 0)
(10.2513 1.07169 0)
(10.3178 1.2113 0)
(10.3927 1.35312 0)
(10.4761 1.49708 0)
(10.5683 1.64298 0)
(10.6697 1.79051 0)
(10.7805 1.93923 0)