/*--------------------------------*- C++ -*----------------------------------*\
  =========                 |
  \\      /  F ield         | OpenFOAM: The Open Source CFD Toolbox
   \\    /   O peration     | Website:  https://openfoam.org
    \\  /    A nd           | Version:  7
     \\/     M anipulation  |
\*---------------------------------------------------------------------------*/
FoamFile
{
    version     2.0;
    format      ascii;
    class       surfaceVectorField;
    location    "2.4";
    object      Uf;
}
// * * * * * * * * * * * * * * * * * * * * * * * * * * * * * * * * * * * * * //

dimensions      [0 1 -1 0 0 0 0];

internalField   nonuniform List<vector> 
5457
(
(9.92088 0.0251114 0)
(9.97124 0.0387483 0)
(9.824 0.03283 0)
(9.92858 0.0485902 0)
(9.70958 0.0393166 0)
(9.85546 0.0587759 0)
(9.57539 0.0460176 0)
(9.75676 0.0706038 0)
(9.42131 0.0529563 0)
(9.63747 0.0830265 0)
(9.24744 0.060175 0)
(9.49852 0.0959522 0)
(9.05349 0.067821 0)
(9.33919 0.109631 0)
(8.83876 0.0760457 0)
(9.15859 0.124309 0)
(8.60231 0.0849824 0)
(8.95591 0.140189 0)
(8.34302 0.0947578 0)
(8.73016 0.157457 0)
(8.05956 0.105501 0)
(8.48014 0.176294 0)
(7.75048 0.117341 0)
(8.20447 0.196882 0)
(7.4142 0.130409 0)
(7.90161 0.219386 0)
(7.04911 0.144823 0)
(7.56993 0.243946 0)
(6.65362 0.160684 0)
(7.20778 0.270653 0)
(6.22628 0.178055 0)
(6.81356 0.299518 0)
(5.76598 0.196936 0)
(6.38588 0.330428 0)
(5.27212 0.217239 0)
(5.92371 0.363093 0)
(4.74492 0.238738 0)
(5.42664 0.396979 0)
(4.18576 0.261031 0)
(4.89519 0.431233 0)
(3.59754 0.283482 0)
(4.33119 0.464608 0)
(2.98516 0.305192 0)
(3.73818 0.495406 0)
(2.35576 0.325053 0)
(3.12188 0.521485 0)
(1.71879 0.342526 0)
(2.49072 0.540523 0)
(1.08408 0.361854 0)
(1.85555 0.551632 0)
(0.451618 0.348582 0)
(1.24524 0.562975 0)
(-0.145908 0.102377 0)
(0.608664 0.544744 0)
(-0.423585 -0.207021 0)
(0.0946503 0.259272 0)
(-0.4021 -0.361125 0)
(-0.133786 -0.0205457 0)
(-0.119649 -0.393833 0)
(9.9964 0.0516781 0)
(9.99705 0.0405096 0)
(9.95877 0.0708711 0)
(9.9785 0.0674647 0)
(9.89821 0.0880004 0)
(9.93375 0.0898855 0)
(9.81654 0.106002 0)
(9.86449 0.113576 0)
(9.71351 0.124943 0)
(9.77432 0.138541 0)
(9.58898 0.144879 0)
(9.66426 0.164678 0)
(9.44261 0.166119 0)
(9.53385 0.192368 0)
(9.27373 0.188999 0)
(9.38235 0.222072 0)
(9.08145 0.213817 0)
(9.209 0.254193 0)
(8.86465 0.240851 0)
(9.01293 0.289112 0)
(8.62201 0.270373 0)
(8.79305 0.327202 0)
(8.35206 0.302643 0)
(8.54805 0.368836 0)
(8.05319 0.337892 0)
(8.27649 0.414366 0)
(7.72372 0.376295 0)
(7.97679 0.464093 0)
(7.36194 0.417931 0)
(7.64731 0.518231 0)
(6.96627 0.462731 0)
(7.28639 0.576843 0)
(6.53536 0.510402 0)
(6.8925 0.639753 0)
(6.06835 0.56034 0)
(6.46435 0.706445 0)
(5.56512 0.611518 0)
(6.00113 0.775914 0)
(5.02664 0.662372 0)
(5.5028 0.846515 0)
(4.45543 0.710684 0)
(4.97044 0.915783 0)
(3.85608 0.753504 0)
(4.40676 0.980267 0)
(3.23581 0.787149 0)
(3.81665 1.0354 0)
(2.60548 0.807442 0)
(3.2081 1.07541 0)
(1.98251 0.810397 0)
(2.59308 1.09306 0)
(1.40507 0.776799 0)
(1.99595 1.07698 0)
(0.929538 0.646279 0)
(1.41928 0.978267 0)
(0.439649 0.384176 0)
(0.937421 0.716691 0)
(0.0590776 -0.118713 0)
(0.443601 0.343397 0)
(0.174878 -0.33597 0)
(9.98902 0.0594404 0)
(9.99481 0.045885 0)
(9.95432 0.0894927 0)
(9.97367 0.0848695 0)
(9.89726 0.118055 0)
(9.92982 0.119197 0)
(9.82041 0.147928 0)
(9.86353 0.154007 0)
(9.72409 0.179458 0)
(9.7773 0.190447 0)
(9.60811 0.212818 0)
(9.67218 0.228684 0)
(9.47221 0.248441 0)
(9.54798 0.269183 0)
(9.31591 0.286827 0)
(9.40417 0.312557 0)
(9.13848 0.328454 0)
(9.24016 0.359392 0)
(8.939 0.373782 0)
(9.05527 0.410244 0)
(8.71637 0.423267 0)
(8.84863 0.46567 0)
(8.46928 0.477356 0)
(8.61921 0.526225 0)
(8.19633 0.536456 0)
(8.36582 0.592443 0)
(7.89594 0.600894 0)
(8.08715 0.664803 0)
(7.56651 0.670855 0)
(7.7818 0.743676 0)
(7.2064 0.746291 0)
(7.44831 0.829237 0)
(6.81412 0.826805 0)
(7.08524 0.921354 0)
(6.38842 0.911491 0)
(6.69126 1.01942 0)
(5.92858 0.99875 0)
(6.26527 1.12217 0)
(5.4347 1.08607 0)
(5.80667 1.2274 0)
(4.90812 1.16978 0)
(5.31565 1.33171 0)
(4.35203 1.24483 0)
(4.79357 1.43013 0)
(3.77223 1.30447 0)
(4.2436 1.51579 0)
(3.17841 1.33974 0)
(3.67148 1.57932 0)
(2.58636 1.33801 0)
(3.08603 1.60762 0)
(2.01964 1.27284 0)
(2.50269 1.58143 0)
(1.48675 1.09527 0)
(1.92854 1.46408 0)
(0.958172 0.769041 0)
(1.3851 1.21024 0)
(0.479784 0.202324 0)
(0.829446 0.800882 0)
(0.433658 0.133949 0)
(9.98515 0.0716272 0)
(9.99367 0.0531579 0)
(9.95037 0.113653 0)
(9.97087 0.102311 0)
(9.89433 0.154165 0)
(9.92688 0.147985 0)
(9.81877 0.195614 0)
(9.86181 0.193763 0)
(9.72434 0.238861 0)
(9.7774 0.24133 0)
(9.61102 0.284383 0)
(9.67458 0.291226 0)
(9.47861 0.332787 0)
(9.55331 0.344027 0)
(9.32678 0.384747 0)
(9.4132 0.400452 0)
(9.15502 0.440925 0)
(9.25381 0.461227 0)
(8.96267 0.501965 0)
(9.07461 0.527053 0)
(8.74888 0.568511 0)
(8.87493 0.598631 0)
(8.51272 0.641194 0)
(8.65399 0.676657 0)
(8.25311 0.720608 0)
(8.41089 0.761813 0)
(7.96888 0.807261 0)
(8.14462 0.854722 0)
(7.65877 0.901498 0)
(7.85414 0.955894 0)
(7.3215 1.00339 0)
(7.53833 1.06563 0)
(6.95577 1.1126 0)
(7.19602 1.18389 0)
(6.5604 1.22815 0)
(6.82608 1.3101 0)
(6.13445 1.34816 0)
(6.42744 1.44292 0)
(5.67741 1.46956 0)
(5.99922 1.57987 0)
(5.18959 1.58771 0)
(5.54092 1.71702 0)
(4.67249 1.69594 0)
(5.05266 1.84845 0)
(4.12946 1.78503 0)
(4.5356 1.96572 0)
(3.56635 1.84239 0)
(3.99241 2.05716 0)
(2.9918 1.85056 0)
(3.42733 2.10697 0)
(2.41564 1.78231 0)
(2.84741 2.09429 0)
(1.84038 1.60027 0)
(2.25605 1.98852 0)
(1.25928 1.27825 0)
(1.66019 1.75283 0)
(0.666718 0.789373 0)
(1.02389 1.36755 0)
(0.522997 0.786958 0)
(9.98337 0.0844246 0)
(9.99316 0.061304 0)
(9.94819 0.136866 0)
(9.96958 0.119953 0)
(9.89311 0.188073 0)
(9.92572 0.176279 0)
(9.81901 0.240221 0)
(9.86195 0.23275 0)
(9.72655 0.294531 0)
(9.77957 0.291152 0)
(9.61579 0.351734 0)
(9.67931 0.352352 0)
(9.48657 0.412555 0)
(9.56115 0.417066 0)
(9.33861 0.477769 0)
(9.42481 0.486108 0)
(9.1715 0.54815 0)
(9.2699 0.560312 0)
(8.98468 0.624458 0)
(9.09597 0.640501 0)
(8.7775 0.707448 0)
(8.90247 0.727485 0)
(8.54921 0.797867 0)
(8.68875 0.822073 0)
(8.29899 0.896423 0)
(8.45409 0.925054 0)
(8.02595 1.00374 0)
(8.19769 1.03716 0)
(7.72916 1.12028 0)
(7.9187 1.15901 0)
(7.40761 1.24622 0)
(7.61625 1.291 0)
(7.06031 1.38131 0)
(7.28939 1.4332 0)
(6.68624 1.5246 0)
(6.93716 1.58513 0)
(6.2844 1.67417 0)
(6.55852 1.7455 0)
(5.85395 1.82674 0)
(6.15241 1.91184 0)
(5.3943 1.97717 0)
(5.71778 2.08009 0)
(4.90537 2.11794 0)
(5.25367 2.24398 0)
(4.38791 2.23846 0)
(4.75937 2.39446 0)
(3.84365 2.32437 0)
(4.23463 2.51901 0)
(3.27519 2.35675 0)
(3.67962 2.60102 0)
(2.6852 2.31037 0)
(3.09551 2.61946 0)
(2.07255 2.15477 0)
(2.48153 2.54706 0)
(1.42928 1.86716 0)
(1.8398 2.35346 0)
(0.742562 1.41934 0)
(1.1313 2.02426 0)
(0.543271 1.51425 0)
(9.98264 0.0975187 0)
(9.99299 0.0698079 0)
(9.94742 0.15981 0)
(9.96924 0.137614 0)
(9.89351 0.221398 0)
(9.92594 0.203973 0)
(9.82128 0.284156 0)
(9.86377 0.270751 0)
(9.73126 0.349426 0)
(9.78379 0.339661 0)
(9.62356 0.41811 0)
(9.68655 0.411791 0)
(9.49805 0.491042 0)
(9.57205 0.48801 0)
(9.35447 0.569088 0)
(9.44005 0.569224 0)
(9.19247 0.653126 0)
(9.29023 0.656364 0)
(9.01157 0.744025 0)
(9.12218 0.750351 0)
(8.81121 0.842645 0)
(8.93543 0.852099 0)
(8.59075 0.949835 0)
(8.7294 0.962508 0)
(8.34947 1.0664 0)
(8.50345 1.08246 0)
(8.08665 1.19307 0)
(8.25688 1.21277 0)
(7.80148 1.3304 0)
(7.98894 1.35416 0)
(7.49313 1.47867 0)
(7.69883 1.50712 0)
(7.16071 1.63773 0)
(7.38568 1.67183 0)
(6.80324 1.80676 0)
(7.04853 1.84795 0)
(6.41964 1.98394 0)
(6.68625 2.03435 0)
(6.00867 2.16607 0)
(6.29753 2.22879 0)
(5.56898 2.348 0)
(5.88073 2.42739 0)
(5.09907 2.52206 0)
(5.43391 2.62412 0)
(4.5974 2.67738 0)
(4.95473 2.81011 0)
(4.06241 2.79927 0)
(4.44052 2.973 0)
(3.49246 2.86886 0)
(3.88825 3.09637 0)
(2.88565 2.86265 0)
(3.29502 3.15961 0)
(2.23788 2.75365 0)
(2.65675 3.13761 0)
(1.54236 2.52075 0)
(1.97474 3.00288 0)
(0.793606 2.13106 0)
(1.20719 2.7403 0)
(0.556708 2.29154 0)
(9.9825 0.110651 0)
(9.99301 0.0783792 0)
(9.94769 0.182366 0)
(9.96953 0.155073 0)
(9.89519 0.253876 0)
(9.9272 0.23094 0)
(9.82519 0.326843 0)
(9.86692 0.307582 0)
(9.73805 0.402648 0)
(9.78971 0.386614 0)
(9.63392 0.482343 0)
(9.69596 0.469258 0)
(9.51271 0.566881 0)
(9.58566 0.556524 0)
(9.37419 0.657228 0)
(9.45863 0.649412 0)
(9.21805 0.754359 0)
(9.3146 0.748941 0)
(9.04387 0.859237 0)
(9.15321 0.856125 0)
(8.85113 0.972817 0)
(8.97404 0.971969 0)
(8.63927 1.09604 0)
(8.77656 1.09746 0)
(8.40763 1.22979 0)
(8.56019 1.23358 0)
(8.15552 1.37488 0)
(8.32427 1.38123 0)
(7.88218 1.53198 0)
(8.06806 1.54121 0)
(7.58678 1.70147 0)
(7.79075 1.71416 0)
(7.26839 1.88335 0)
(7.49144 1.90038 0)
(6.92591 2.07699 0)
(7.16901 2.09974 0)
(6.558 2.28083 0)
(6.82212 2.31138 0)
(6.16298 2.49198 0)
(6.44906 2.53343 0)
(5.73867 2.70571 0)
(6.0476 2.76253 0)
(5.28232 2.91481 0)
(5.61478 2.9933 0)
(4.79047 3.10893 0)
(5.14683 3.21763 0)
(4.259 3.27394 0)
(4.63904 3.424 0)
(3.68315 3.39156 0)
(4.08578 3.59684 0)
(3.05787 3.43937 0)
(3.48111 3.7162 0)
(2.37762 3.39147 0)
(2.81823 3.75777 0)
(1.63784 3.22585 0)
(2.09907 3.69363 0)
(0.839098 2.90053 0)
(1.27888 3.50414 0)
(0.573341 3.11338 0)
(9.98273 0.123611 0)
(9.99316 0.0868379 0)
(9.94871 0.204358 0)
(9.97026 0.172134 0)
(9.89791 0.285321 0)
(9.92924 0.257038 0)
(9.83045 0.368055 0)
(9.87119 0.343073 0)
(9.74662 0.45396 0)
(9.79708 0.431785 0)
(9.64657 0.544205 0)
(9.70725 0.524478 0)
(9.53023 0.639852 0)
(9.60167 0.622282 0)
(9.39743 0.741959 0)
(9.48021 0.72629 0)
(9.24789 0.851586 0)
(9.34264 0.837604 0)
(9.08125 0.969786 0)
(9.18868 0.957322 0)
(8.89703 1.0976 0)
(9.01793 1.08654 0)
(8.69472 1.23606 0)
(8.82993 1.22633 0)
(8.47371 1.38615 0)
(8.62414 1.37777 0)
(8.2333 1.54878 0)
(8.39991 1.54186 0)
(7.97273 1.72473 0)
(8.15651 1.71954 0)
(7.69108 1.91454 0)
(7.8931 1.91156 0)
(7.38731 2.11841 0)
(7.60863 2.11845 0)
(7.06006 2.33598 0)
(7.30184 2.34033 0)
(6.70765 2.56608 0)
(6.97106 2.57675 0)
(6.32783 2.80639 0)
(6.61414 2.82636 0)
(5.9176 3.05289 0)
(6.22816 3.08656 0)
(5.473 3.29931 0)
(5.80924 3.35297 0)
(4.98892 3.53638 0)
(5.35221 3.61871 0)
(4.45902 3.75109 0)
(4.85051 3.87366 0)
(3.87598 3.92611 0)
(4.29613 4.10356 0)
(3.23216 4.03948 0)
(3.68035 4.28928 0)
(2.52073 4.06461 0)
(2.99339 4.40636 0)
(1.73832 3.97577 0)
(2.23732 4.42418 0)
(0.889452 3.71841 0)
(1.36334 4.31592 0)
(0.598746 3.98455 0)
(9.9832 0.136237 0)
(9.99339 0.0950637 0)
(9.9503 0.225628 0)
(9.9713 0.188637 0)
(9.90147 0.315576 0)
(9.93191 0.282121 0)
(9.83688 0.407605 0)
(9.87639 0.377057 0)
(9.75675 0.503137 0)
(9.80572 0.474962 0)
(9.66123 0.603423 0)
(9.7202 0.577195 0)
(9.5503 0.709625 0)
(9.61982 0.684982 0)
(9.42383 0.822885 0)
(9.50447 0.799504 0)
(9.28159 0.944343 0)
(9.374 0.92194 0)
(9.12326 1.07514 0)
(9.22816 1.05347 0)
(8.94845 1.2164 0)
(9.06663 1.19526 0)
(8.75666 1.36925 0)
(8.889 1.3485 0)
(8.54732 1.53478 0)
(8.69477 1.51434 0)
(8.31975 1.71402 0)
(8.48333 1.69391 0)
(8.07316 1.90789 0)
(8.25397 1.88829 0)
(7.80657 2.11714 0)
(8.00578 2.09842 0)
(7.51873 2.34223 0)
(7.73764 2.32507 0)
(7.20807 2.58317 0)
(7.44809 2.56873 0)
(6.8725 2.83934 0)
(7.1352 2.82943 0)
(6.50919 3.10915 0)
(6.79637 3.10655 0)
(6.11433 3.38961 0)
(6.42806 3.39844 0)
(5.68282 3.67575 0)
(6.02548 3.70205 0)
(5.20796 3.95988 0)
(5.58219 4.01215 0)
(4.68131 4.2306 0)
(5.0898 4.32056 0)
(4.09294 4.47189 0)
(4.53785 4.61493 0)
(3.43226 4.66209 0)
(3.91439 4.87738 0)
(2.68997 4.77271 0)
(3.20548 5.08309 0)
(1.86176 4.77197 0)
(2.41116 5.19749 0)
(0.954143 4.58933 0)
(1.47624 5.18387 0)
(0.639179 4.91907 0)
(9.98386 0.148407 0)
(9.99368 0.10297 0)
(9.95233 0.246034 0)
(9.97259 0.204448 0)
(9.90575 0.344489 0)
(9.93507 0.306051 0)
(9.84431 0.445315 0)
(9.88236 0.409379 0)
(9.76824 0.549953 0)
(9.81545 0.515954 0)
(9.67768 0.659726 0)
(9.7346 0.627175 0)
(9.57265 0.775878 0)
(9.63984 0.744348 0)
(9.45307 0.899628 0)
(9.53111 0.86873 0)
(9.31876 1.03219 0)
(9.4083 1.00157 0)
(9.16947 1.17479 0)
(9.27123 1.14412 0)
(9.00486 1.32864 0)
(9.11965 1.29764 0)
(8.8245 1.49496 0)
(8.95321 1.46339 0)
(8.62787 1.67494 0)
(8.77148 1.64262 0)
(8.41432 1.86975 0)
(8.57391 1.83661 0)
(8.18303 2.08051 0)
(8.3598 2.04657 0)
(7.93298 2.30819 0)
(8.12826 2.27368 0)
(7.66282 2.55359 0)
(7.87813 2.51901 0)
(7.37076 2.8172 0)
(7.60783 2.78346 0)
(7.05437 3.09906 0)
(7.31525 3.06767 0)
(6.71035 3.39851 0)
(6.99747 3.37186 0)
(6.33416 3.71385 0)
(6.65047 3.69558 0)
(5.91966 4.04177 0)
(6.26873 4.03736 0)
(5.45866 4.37666 0)
(5.8447 4.39412 0)
(4.94054 4.70941 0)
(5.36827 4.76023 0)
(4.3523 5.02601 0)
(4.82629 5.12618 0)
(3.67928 5.30563 0)
(4.20279 5.47646 0)
(2.90731 5.51764 0)
(3.47765 5.78686 0)
(2.02756 5.62251 0)
(2.6449 6.01894 0)
(1.04507 5.52901 0)
(1.63768 6.12344 0)
(0.704468 5.94265 0)
(9.98464 0.160024 0)
(9.99402 0.110492 0)
(9.95471 0.265453 0)
(9.97408 0.21946 0)
(9.91061 0.371922 0)
(9.93865 0.328703 0)
(9.85261 0.481015 0)
(9.889 0.439899 0)
(9.78091 0.594206 0)
(9.82611 0.554588 0)
(9.69568 0.71287 0)
(9.75027 0.67421 0)
(9.59699 0.838323 0)
(9.66152 0.800132 0)
(9.4848 0.971855 0)
(9.55983 0.933677 0)
(9.359 1.11475 0)
(9.44518 1.07616 0)
(9.2194 1.2683 0)
(9.31746 1.2289 0)
(9.06574 1.4338 0)
(9.17648 1.39321 0)
(8.89766 1.61256 0)
(9.02198 1.57045 0)
(8.7147 1.8059 0)
(8.8536 1.76198 0)
(8.51628 2.01514 0)
(8.67089 1.96919 0)
(8.30163 2.24158 0)
(8.47322 2.19346 0)
(8.06971 2.48647 0)
(8.25976 2.43622 0)
(7.81916 2.75101 0)
(8.02937 2.69887 0)
(7.54808 3.03622 0)
(7.78051 2.98276 0)
(7.25387 3.34292 0)
(7.51101 3.28921 0)
(6.93291 3.67155 0)
(7.21785 3.61938 0)
(6.5802 4.02191 0)
(6.89681 3.97418 0)
(6.18878 4.39277 0)
(6.54195 4.35401 0)
(5.74918 4.78115 0)
(6.145 4.75835 0)
(5.24863 5.18117 0)
(5.69447 5.18499 0)
(4.67058 5.58219 0)
(5.1746 5.62857 0)
(3.99468 5.96591 0)
(4.56477 6.0781 0)
(3.19832 6.3011 0)
(3.83618 6.51288 0)
(2.26177 6.54013 0)
(2.97081 6.89342 0)
(1.18063 6.56465 0)
(1.87921 7.15733 0)
(0.812864 7.09901 0)
(9.98553 0.17101 0)
(9.9944 0.117579 0)
(9.95737 0.283778 0)
(9.97571 0.233585 0)
(9.91597 0.397748 0)
(9.94256 0.349969 0)
(9.86163 0.514557 0)
(9.89619 0.468487 0)
(9.79459 0.635714 0)
(9.83757 0.590711 0)
(9.71504 0.76264 0)
(9.76702 0.718115 0)
(9.62307 0.896708 0)
(9.6846 0.852114 0)
(9.51872 1.03927 0)
(9.59035 0.994089 0)
(9.40193 1.19167 0)
(9.4843 1.14541 0)
(9.27259 1.35525 0)
(9.36642 1.30744 0)
(9.13053 1.5314 0)
(9.2366 1.48157 0)
(8.97548 1.72151 0)
(9.09469 1.66922 0)
(8.80709 1.92701 0)
(8.94044 1.87185 0)
(8.62484 2.14937 0)
(8.77348 2.09096 0)
(8.42808 2.39009 0)
(8.59333 2.32812 0)
(8.21586 2.65072 0)
(8.39927 2.58497 0)
(7.98689 2.93285 0)
(8.19032 2.86324 0)
(7.73933 3.2381 0)
(7.96507 3.16477 0)
(7.47061 3.56811 0)
(7.72151 3.49156 0)
(7.17711 3.92452 0)
(7.4568 3.84573 0)
(6.85369 4.30883 0)
(7.16689 4.22963 0)
(6.4931 4.7222 0)
(6.84596 4.64572 0)
(6.08506 5.16495 0)
(6.48568 5.09643 0)
(5.61513 5.6356 0)
(6.07402 5.58376 0)
(5.06323 6.12902 0)
(5.59352 6.10823 0)
(4.40205 6.63294 0)
(5.01931 6.66664 0)
(3.59614 7.12043 0)
(4.31251 7.2476 0)
(2.60446 7.53998 0)
(3.43584 7.81937 0)
(1.39444 7.74 0)
(2.25674 8.31447 0)
(1.00281 8.46478 0)
(9.9865 0.181304 0)
(9.9948 0.124192 0)
(9.96025 0.300919 0)
(9.97746 0.246752 0)
(9.92173 0.421857 0)
(9.94673 0.369757 0)
(9.87127 0.545811 0)
(9.90382 0.495034 0)
(9.80913 0.67432 0)
(9.84969 0.624192 0)
(9.73554 0.808847 0)
(9.78467 0.758733 0)
(9.65062 0.950812 0)
(9.70886 0.90011 0)
(9.55448 1.10161 0)
(9.62237 1.04975 0)
(9.44713 1.26264 0)
(9.52528 1.20905 0)
(9.32855 1.4353 0)
(9.41766 1.37944 0)
(9.19865 1.62103 0)
(9.29948 1.56235 0)
(9.05729 1.82131 0)
(9.17071 1.75927 0)
(8.90422 2.03765 0)
(9.03121 1.97171 0)
(8.73909 2.27168 0)
(8.88077 2.2013 0)
(8.56136 2.52509 0)
(8.71907 2.44974 0)
(8.37029 2.79969 0)
(8.5456 2.71889 0)
(8.16476 3.09747 0)
(8.3596 3.01077 0)
(7.9432 3.42062 0)
(8.15997 3.32767 0)
(7.70332 3.77159 0)
(7.94506 3.67218 0)
(7.44184 4.15323 0)
(7.71252 4.04739 0)
(7.15403 4.56877 0)
(7.45892 4.45697 0)
(6.83301 5.02197 0)
(7.17924 4.90541 0)
(6.46875 5.51695 0)
(6.86611 5.39824 0)
(6.04637 6.05786 0)
(6.50848 5.94218 0)
(5.54365 6.64775 0)
(6.08942 6.54515 0)
(4.92694 7.28594 0)
(5.58279 7.21559 0)
(4.14516 7.96043 0)
(4.94255 7.96032 0)
(3.12215 8.63283 0)
(4.10974 8.77457 0)
(1.75665 9.12753 0)
(2.87915 9.62031 0)
(1.36526 10.1853 0)
(9.98753 0.190855 0)
(9.99523 0.130299 0)
(9.9633 0.316802 0)
(9.97931 0.258903 0)
(9.92781 0.444158 0)
(9.95112 0.387988 0)
(9.88141 0.574665 0)
(9.91182 0.519448 0)
(9.82438 0.709897 0)
(9.86235 0.65492 0)
(9.75698 0.851344 0)
(9.80305 0.795932 0)
(9.67939 1.00046 0)
(9.73408 0.943967 0)
(9.59176 1.15868 0)
(9.6556 1.10048 0)
(9.4942 1.32744 0)
(9.56777 1.2669 0)
(9.38678 1.50817 0)
(9.47073 1.44468 0)
(9.2695 1.70237 0)
(9.36457 1.63529 0)
(9.14236 1.91156 0)
(9.24936 1.84025 0)
(9.00525 2.13736 0)
(9.12512 2.06116 0)
(8.85799 2.38148 0)
(8.99182 2.29969 0)
(8.70027 2.64579 0)
(8.84932 2.55768 0)
(8.53158 2.93233 0)
(8.69739 2.83712 0)
(8.35114 3.24342 0)
(8.53559 3.1403 0)
(8.15779 3.58173 0)
(8.36323 3.46982 0)
(7.94979 3.95045 0)
(8.17927 3.8288 0)
(7.72462 4.35347 0)
(7.98211 4.22105 0)
(7.47852 4.79564 0)
(7.7694 4.65135 0)
(7.20595 5.28314 0)
(7.53767 5.12591 0)
(6.89855 5.82398 0)
(7.28169 5.65294 0)
(6.54336 6.42851 0)
(6.9935 6.24359 0)
(6.11967 7.11018 0)
(6.66041 6.91338 0)
(5.59277 7.8862 0)
(6.26189 7.68461 0)
(4.90113 8.77652 0)
(5.75754 8.59086 0)
(3.92765 9.80056 0)
(5.08808 9.68353 0)
(2.4342 10.8567 0)
(3.98108 11.0485 0)
(2.14763 12.5695 0)
(9.98861 0.199625 0)
(9.99567 0.135878 0)
(9.9665 0.331366 0)
(9.98123 0.269992 0)
(9.93416 0.464567 0)
(9.95567 0.404603 0)
(9.89195 0.601014 0)
(9.92011 0.541653 0)
(9.8402 0.742305 0)
(9.87544 0.682808 0)
(9.77917 0.889953 0)
(9.82203 0.829611 0)
(9.70912 1.04544 0)
(9.76011 0.983563 0)
(9.63025 1.21022 0)
(9.68987 1.14613 0)
(9.54275 1.38575 0)
(9.61156 1.31878 0)
(9.44677 1.57349 0)
(9.5254 1.50296 0)
(9.34247 1.77497 0)
(9.43161 1.70016 0)
(9.22995 1.99175 0)
(9.33038 1.91193 0)
(9.10928 2.22549 0)
(9.22189 2.13988 0)
(8.98048 2.478 0)
(9.1063 2.38575 0)
(8.8435 2.75124 0)
(8.98371 2.65142 0)
(8.69814 3.04742 0)
(8.85419 2.939 0)
(8.54406 3.3691 0)
(8.7177 3.25091 0)
(8.38066 3.71932 0)
(8.57408 3.58996 0)
(8.20699 4.10176 0)
(8.42302 3.95958 0)
(8.02161 4.5211 0)
(8.26393 4.36402 0)
(7.82232 4.98336 0)
(8.09591 4.80876 0)
(7.60587 5.4966 0)
(7.91763 5.30102 0)
(7.36724 6.07186 0)
(7.72711 5.85066 0)
(7.09854 6.7248 0)
(7.52153 6.4716 0)
(6.78667 7.47864 0)
(7.29667 7.18443 0)
(6.40814 8.37017 0)
(7.04716 8.02155 0)
(5.916 9.464 0)
(6.76292 9.03953 0)
(5.19769 10.9068 0)
(6.46324 10.3542 0)
(3.88715 13.1799 0)
(6.194 12.3018 0)
(5.26801 16.3767 0)
(0.275209 -0.179763 0)
(0.155428 -0.26955 0)
(0.530227 -0.152478 0)
(0.372451 -0.243875 0)
(0.749178 -0.124594 0)
(0.594182 -0.204439 0)
(0.935849 -0.101843 0)
(0.792015 -0.170181 0)
(1.09612 -0.083868 0)
(0.960762 -0.142662 0)
(1.23488 -0.0695989 0)
(1.10562 -0.120601 0)
(1.35607 -0.0581982 0)
(1.23216 -0.102842 0)
(1.46287 -0.0490255 0)
(1.34423 -0.0884822 0)
(1.55774 -0.0415472 0)
(1.44439 -0.0767492 0)
(1.64254 -0.0352784 0)
(1.53453 -0.0669847 0)
(1.71843 -0.0297102 0)
(1.61609 -0.0585238 0)
(1.78551 -0.0243024 0)
(1.68995 -0.0505099 0)
(1.84263 -0.0186652 0)
(1.75601 -0.0419941 0)
(1.88793 -0.012886 0)
(1.81295 -0.0325226 0)
(1.92069 -0.00760491 0)
(1.85895 -0.0229603 0)
(1.94258 -0.0034642 0)
(1.89344 -0.0149822 0)
(1.9556 -0.000385799 0)
(1.91871 -0.00869722 0)
(1.95916 0.0020702 0)
(1.9371 -0.00232509 0)
(1.9533 0.00405974 0)
(1.948 0.00373611 0)
(1.94137 0.00568603 0)
(1.95071 0.00741976 0)
(1.92831 0.00712337 0)
(1.94721 0.0079289 0)
(1.91779 0.00824418 0)
(1.94182 0.00623977 0)
(1.913 0.00825275 0)
(1.93698 0.00277413 0)
(1.9165 0.00589183 0)
(1.93388 -0.00198324 0)
(1.93037 0.000741971 0)
(1.93382 -0.00765157 0)
(1.95769 -0.00631147 0)
(1.93794 -0.0147236 0)
(1.99851 -0.0143845 0)
(1.94791 -0.0214748 0)
(2.0525 -0.0224802 0)
(1.96435 -0.0277323 0)
(2.11805 -0.0276868 0)
(1.98842 -0.0328781 0)
(2.03107 -0.0310983 0)
(0.229857 -0.380181 0)
(0.113186 -0.494681 0)
(0.454324 -0.335243 0)
(0.304229 -0.458534 0)
(0.651415 -0.280887 0)
(0.486225 -0.388467 0)
(0.821966 -0.23475 0)
(0.650508 -0.325667 0)
(0.97085 -0.197859 0)
(0.791732 -0.275189 0)
(1.10224 -0.168404 0)
(0.914182 -0.234797 0)
(1.21936 -0.144746 0)
(1.02199 -0.202221 0)
(1.32464 -0.125585 0)
(1.11798 -0.175717 0)
(1.42 -0.109867 0)
(1.20399 -0.153894 0)
(1.507 -0.0966513 0)
(1.28136 -0.135698 0)
(1.5869 -0.084848 0)
(1.35125 -0.120142 0)
(1.66031 -0.0731092 0)
(1.41482 -0.105792 0)
(1.72663 -0.0603098 0)
(1.47259 -0.0907505 0)
(1.78388 -0.0466444 0)
(1.52393 -0.0736213 0)
(1.83046 -0.0338513 0)
(1.56676 -0.0556065 0)
(1.86789 -0.0226421 0)
(1.59791 -0.0405992 0)
(1.89966 -0.0112725 0)
(1.62027 -0.0299233 0)
(1.92545 -0.000183046 0)
(1.64085 -0.0191541 0)
(1.94368 0.00691221 0)
(1.64715 -0.00787455 0)
(1.95419 0.0081327 0)
(1.63116 0.000885647 0)
(1.95889 0.00452154 0)
(1.59913 0.0050713 0)
(1.95961 -0.00200876 0)
(1.55734 0.00581219 0)
(1.95672 -0.0099945 0)
(1.51018 0.00444883 0)
(1.94995 -0.0182079 0)
(1.46086 0.00184265 0)
(1.93986 -0.0248587 0)
(1.41364 -0.00208102 0)
(1.9275 -0.0290395 0)
(1.37433 -0.00806361 0)
(1.91307 -0.031809 0)
(1.35148 -0.0138813 0)
(1.89989 -0.0338348 0)
(1.33803 -0.0209634 0)
(1.89267 -0.0336823 0)
(1.34096 -0.0292591 0)
(1.37361 -0.0420842 0)
(0.177668 -0.583512 0)
(0.0768834 -0.668697 0)
(0.348045 -0.522053 0)
(0.223759 -0.621465 0)
(0.496479 -0.442664 0)
(0.347433 -0.527063 0)
(0.624643 -0.374089 0)
(0.461431 -0.44251 0)
(0.736095 -0.318702 0)
(0.557164 -0.374396 0)
(0.83378 -0.274041 0)
(0.639015 -0.319696 0)
(0.920032 -0.237723 0)
(0.709517 -0.275413 0)
(0.996513 -0.207851 0)
(0.770446 -0.239085 0)
(1.06439 -0.183023 0)
(0.822958 -0.208801 0)
(1.12469 -0.16218 0)
(0.867609 -0.18333 0)
(1.17867 -0.144008 0)
(0.904784 -0.161776 0)
(1.22741 -0.126323 0)
(0.935479 -0.142492 0)
(1.27088 -0.106374 0)
(0.960893 -0.122706 0)
(1.30688 -0.0835732 0)
(0.982025 -0.0994647 0)
(1.33199 -0.0633539 0)
(1.00025 -0.0732098 0)
(1.34867 -0.051886 0)
(1.00381 -0.0520122 0)
(1.36232 -0.0449078 0)
(0.967295 -0.0390405 0)
(1.36131 -0.0332411 0)
(0.918881 -0.0185 0)
(1.33173 -0.0165999 0)
(0.875013 0.010972 0)
(1.2733 -0.00114234 0)
(0.817972 0.0372257 0)
(1.19566 0.00994103 0)
(0.748306 0.0522186 0)
(1.10644 0.017023 0)
(0.672789 0.0587093 0)
(1.01271 0.0206875 0)
(0.596379 0.0587072 0)
(0.92259 0.0209025 0)
(0.524788 0.0527841 0)
(0.847142 0.0170279 0)
(0.464094 0.0395576 0)
(0.797992 0.00855015 0)
(0.420389 0.0184208 0)
(0.77371 -0.00263517 0)
(0.402801 -0.00110559 0)
(0.777632 -0.0165568 0)
(0.410147 -0.0229785 0)
(0.812205 -0.0368782 0)
(0.438379 -0.0465999 0)
(0.504432 -0.0724078 0)
(0.123576 -0.722444 0)
(0.0430835 -0.789732 0)
(0.231892 -0.642684 0)
(0.136446 -0.725048 0)
(0.321924 -0.543184 0)
(0.192824 -0.611128 0)
(0.397894 -0.458244 0)
(0.249653 -0.511769 0)
(0.461855 -0.389555 0)
(0.291084 -0.43133 0)
(0.515432 -0.333955 0)
(0.323061 -0.36626 0)
(0.560084 -0.2885 0)
(0.346279 -0.313304 0)
(0.596739 -0.250722 0)
(0.361751 -0.269455 0)
(0.625745 -0.218814 0)
(0.370225 -0.232266 0)
(0.647137 -0.191733 0)
(0.371617 -0.200226 0)
(0.661509 -0.168639 0)
(0.36486 -0.17286 0)
(0.670324 -0.148215 0)
(0.348175 -0.149129 0)
(0.675744 -0.128007 0)
(0.320953 -0.126692 0)
(0.677379 -0.104262 0)
(0.283289 -0.100638 0)
(0.666052 -0.0739028 0)
(0.242216 -0.0652704 0)
(0.618228 -0.0389176 0)
(0.196021 -0.0192842 0)
(0.529598 -0.00456664 0)
(0.131343 0.0201798 0)
(0.433177 0.0293458 0)
(0.0525821 0.0444043 0)
(0.354887 0.060187 0)
(-0.00786329 0.0608419 0)
(0.287244 0.0806588 0)
(-0.0618364 0.079296 0)
(0.222032 0.0898744 0)
(-0.113972 0.0918188 0)
(0.160305 0.0900256 0)
(-0.160898 0.0953076 0)
(0.105988 0.0823205 0)
(-0.200801 0.0901519 0)
(0.0639809 0.0664481 0)
(-0.230911 0.0765281 0)
(0.0370064 0.0416908 0)
(-0.249382 0.0544444 0)
(0.0246606 0.0114861 0)
(-0.257218 0.0250733 0)
(0.0362049 -0.018537 0)
(-0.254255 -0.00717935 0)
(0.0691266 -0.049577 0)
(-0.229209 -0.0398903 0)
(0.122442 -0.0814703 0)
(-0.19941 -0.0733409 0)
(-0.157886 -0.0968926 0)
(0.0631985 -0.80274 0)
(0.00830541 -0.851631 0)
(0.103589 -0.703733 0)
(0.0404125 -0.763674 0)
(0.129631 -0.589198 0)
(0.0249566 -0.635444 0)
(0.146751 -0.493272 0)
(0.0193546 -0.527377 0)
(0.155199 -0.415227 0)
(0.000340415 -0.43885 0)
(0.155795 -0.351733 0)
(-0.0246416 -0.366779 0)
(0.149276 -0.29962 0)
(-0.0563616 -0.307772 0)
(0.136208 -0.255989 0)
(-0.0942704 -0.258627 0)
(0.116667 -0.218394 0)
(-0.137823 -0.216457 0)
(0.0895847 -0.184948 0)
(-0.186794 -0.178835 0)
(0.0521153 -0.153713 0)
(-0.241494 -0.143963 0)
(0.000698149 -0.122322 0)
(-0.303027 -0.110412 0)
(-0.0668631 -0.0879163 0)
(-0.371404 -0.0770196 0)
(-0.147356 -0.0473973 0)
(-0.446821 -0.042857 0)
(-0.231553 -0.00275063 0)
(-0.52034 -0.00625682 0)
(-0.297339 0.0350326 0)
(-0.581202 0.0257358 0)
(-0.343109 0.0584362 0)
(-0.623626 0.0507621 0)
(-0.386232 0.0737353 0)
(-0.665061 0.0725374 0)
(-0.431295 0.088768 0)
(-0.701442 0.0895469 0)
(-0.470065 0.101679 0)
(-0.733055 0.103408 0)
(-0.501431 0.10709 0)
(-0.758338 0.110866 0)
(-0.525315 0.103083 0)
(-0.776276 0.109468 0)
(-0.540679 0.0899107 0)
(-0.786576 0.0990468 0)
(-0.546994 0.0681803 0)
(-0.789275 0.0800974 0)
(-0.54515 0.0391623 0)
(-0.785279 0.0534266 0)
(-0.536766 0.00558067 0)
(-0.776924 0.0205554 0)
(-0.520922 -0.0301656 0)
(-0.766448 -0.0155151 0)
(-0.498617 -0.0647386 0)
(-0.747779 -0.0513482 0)
(-0.477432 -0.0922136 0)
(-0.733496 -0.0839665 0)
(-0.726124 -0.107349 0)
(-0.00663717 -0.81597 0)
(-0.0307856 -0.84513 0)
(-0.0353666 -0.697588 0)
(-0.0652504 -0.7362 0)
(-0.0759873 -0.572502 0)
(-0.151188 -0.597515 0)
(-0.122641 -0.469799 0)
(-0.222773 -0.484844 0)
(-0.175474 -0.385623 0)
(-0.302749 -0.391821 0)
(-0.233921 -0.316762 0)
(-0.384488 -0.315982 0)
(-0.29772 -0.259654 0)
(-0.468157 -0.253633 0)
(-0.366564 -0.211056 0)
(-0.552842 -0.201587 0)
(-0.439938 -0.168275 0)
(-0.637665 -0.1571 0)
(-0.51676 -0.129458 0)
(-0.721743 -0.118156 0)
(-0.595215 -0.0935958 0)
(-0.804124 -0.0834581 0)
(-0.673257 -0.0602625 0)
(-0.883656 -0.0516464 0)
(-0.748604 -0.0294329 0)
(-0.957464 -0.0216238 0)
(-0.816303 -0.00099207 0)
(-1.02304 0.00574078 0)
(-0.869162 0.0257774 0)
(-1.07764 0.030792 0)
(-0.910884 0.0515857 0)
(-1.11948 0.0542879 0)
(-0.948125 0.0751703 0)
(-1.15626 0.0756456 0)
(-0.979919 0.0936351 0)
(-1.18697 0.0932797 0)
(-1.00663 0.106664 0)
(-1.21128 0.106563 0)
(-1.02573 0.114333 0)
(-1.22833 0.115284 0)
(-1.03668 0.114505 0)
(-1.2378 0.117518 0)
(-1.04044 0.106013 0)
(-1.24018 0.111695 0)
(-1.03795 0.0890359 0)
(-1.23649 0.0976055 0)
(-1.03039 0.0643733 0)
(-1.22798 0.0758259 0)
(-1.01944 0.0333683 0)
(-1.21639 0.0473848 0)
(-1.00683 -0.00181986 0)
(-1.20401 0.0137618 0)
(-0.993996 -0.038141 0)
(-1.19268 -0.0222696 0)
(-0.982079 -0.0722048 0)
(-1.18136 -0.0574701 0)
(-0.97221 -0.0996646 0)
(-1.17642 -0.0889163 0)
(-1.17679 -0.112014 0)
(-0.0768094 -0.757112 0)
(-0.0758107 -0.7699 0)
(-0.179748 -0.624641 0)
(-0.176323 -0.637759 0)
(-0.287502 -0.496691 0)
(-0.32871 -0.496904 0)
(-0.397584 -0.393182 0)
(-0.462887 -0.384486 0)
(-0.507386 -0.309082 0)
(-0.5956 -0.294083 0)
(-0.615692 -0.240845 0)
(-0.722145 -0.221852 0)
(-0.721086 -0.185026 0)
(-0.841649 -0.164198 0)
(-0.822252 -0.138665 0)
(-0.953316 -0.117766 0)
(-0.91809 -0.0993158 0)
(-1.05664 -0.0795694 0)
(-1.00794 -0.0652043 0)
(-1.15101 -0.0471878 0)
(-1.09118 -0.0351186 0)
(-1.2353 -0.0192624 0)
(-1.16603 -0.00825841 0)
(-1.31018 0.00471818 0)
(-1.22986 0.0159151 0)
(-1.37552 0.0253008 0)
(-1.28307 0.038083 0)
(-1.43101 0.0439428 0)
(-1.32799 0.0589189 0)
(-1.4779 0.0622738 0)
(-1.36564 0.0783023 0)
(-1.5174 0.0800546 0)
(-1.39591 0.0951402 0)
(-1.54917 0.0958717 0)
(-1.41901 0.108121 0)
(-1.57323 0.108348 0)
(-1.43495 0.116438 0)
(-1.58968 0.116719 0)
(-1.44308 0.119149 0)
(-1.59845 0.120336 0)
(-1.44377 0.114913 0)
(-1.59996 0.117942 0)
(-1.43844 0.103021 0)
(-1.59528 0.108534 0)
(-1.42868 0.0836767 0)
(-1.58592 0.0919521 0)
(-1.41611 0.0577003 0)
(-1.5735 0.0687236 0)
(-1.40252 0.0264388 0)
(-1.55989 0.0398823 0)
(-1.38975 -0.00808526 0)
(-1.54724 0.0068833 0)
(-1.37979 -0.0430857 0)
(-1.53732 -0.0275093 0)
(-1.37346 -0.0756504 0)
(-1.5313 -0.0607209 0)
(-1.37053 -0.102008 0)
(-1.53184 -0.0903896 0)
(-1.53507 -0.11201 0)
(-0.150902 -0.629997 0)
(-0.126937 -0.6221 0)
(-0.322658 -0.490287 0)
(-0.288965 -0.473508 0)
(-0.492609 -0.366794 0)
(-0.501684 -0.338217 0)
(-0.654797 -0.270668 0)
(-0.688014 -0.236625 0)
(-0.806022 -0.195752 0)
(-0.860045 -0.159471 0)
(-0.945292 -0.137034 0)
(-1.01498 -0.100811 0)
(-1.072 -0.0905168 0)
(-1.1509 -0.056675 0)
(-1.18635 -0.0533662 0)
(-1.27023 -0.0230185 0)
(-1.28835 -0.0233582 0)
(-1.37478 0.00294324 0)
(-1.37729 0.00105051 0)
(-1.46619 0.023063 0)
(-1.45333 0.0212799 0)
(-1.54582 0.0393766 0)
(-1.51839 0.0388037 0)
(-1.61489 0.0537128 0)
(-1.57515 0.0549238 0)
(-1.67508 0.0670279 0)
(-1.62502 0.0705225 0)
(-1.7278 0.0797438 0)
(-1.66735 0.0855683 0)
(-1.77261 0.0919458 0)
(-1.70138 0.0992222 0)
(-1.80912 0.103337 0)
(-1.72699 0.110353 0)
(-1.83718 0.112988 0)
(-1.74461 0.117982 0)
(-1.85702 0.119845 0)
(-1.75462 0.121335 0)
(-1.86902 0.123092 0)
(-1.75727 0.119536 0)
(-1.87365 0.121981 0)
(-1.75342 0.111661 0)
(-1.87171 0.115609 0)
(-1.74461 0.0972419 0)
(-1.86451 0.10331 0)
(-1.73256 0.0764652 0)
(-1.85365 0.084973 0)
(-1.71899 0.0501014 0)
(-1.84083 0.0610563 0)
(-1.70573 0.0194964 0)
(-1.82794 0.0325611 0)
(-1.69469 -0.0134052 0)
(-1.81707 0.000937185 0)
(-1.68789 -0.0461622 0)
(-1.80984 -0.0310899 0)
(-1.68598 -0.0764112 0)
(-1.80856 -0.0617031 0)
(-1.68881 -0.100725 0)
(-1.81345 -0.0889657 0)
(-1.81845 -0.108122 0)
(-0.227316 -0.441602 0)
(-0.188291 -0.399458 0)
(-0.462662 -0.306152 0)
(-0.412853 -0.248446 0)
(-0.685493 -0.198579 0)
(-0.673613 -0.130155 0)
(-0.887 -0.118398 0)
(-0.891084 -0.0529183 0)
(-1.06525 -0.0585964 0)
(-1.07967 -0.000805167 0)
(-1.21789 -0.0159835 0)
(-1.24093 0.0318537 0)
(-1.34751 0.0132256 0)
(-1.37844 0.0533115 0)
(-1.45759 0.0340976 0)