/*--------------------------------*- C++ -*----------------------------------*\
  =========                 |
  \\      /  F ield         | OpenFOAM: The Open Source CFD Toolbox
   \\    /   O peration     | Website:  https://openfoam.org
    \\  /    A nd           | Version:  7
     \\/     M anipulation  |
\*---------------------------------------------------------------------------*/
FoamFile
{
    version     2.0;
    format      ascii;
    class       surfaceScalarField;
    location    "0.71";
    object      phi;
}
// * * * * * * * * * * * * * * * * * * * * * * * * * * * * * * * * * * * * * //

dimensions      [1 0 -1 0 0 0 0];

internalField   nonuniform List<scalar> 
23692
(
1.16754e-05
-4.03915e-08
1.17444e-05
-6.87126e-08
1.18317e-05
-8.68506e-08
1.19288e-05
-9.64937e-08
1.20307e-05
-1.01082e-07
1.21352e-05
-1.03528e-07
1.22423e-05
-1.05873e-07
1.23531e-05
-1.09233e-07
1.24688e-05
-1.13977e-07
1.2591e-05
-1.20034e-07
1.27205e-05
-1.27185e-07
1.28585e-05
-1.35229e-07
1.30056e-05
-1.44042e-07
1.31627e-05
-1.53569e-07
1.33303e-05
-1.63796e-07
1.35093e-05
-1.74721e-07
1.37004e-05
-1.86341e-07
1.39042e-05
-1.98638e-07
1.41214e-05
-2.11587e-07
1.43527e-05
-2.25148e-07
1.45985e-05
-2.39276e-07
1.48595e-05
-2.53918e-07
1.5136e-05
-2.6902e-07
1.54285e-05
-2.84521e-07
1.57372e-05
-3.00358e-07
1.60625e-05
-3.16466e-07
1.64045e-05
-3.32776e-07
1.67634e-05
-3.49217e-07
1.71391e-05
-3.65716e-07
1.75316e-05
-3.82197e-07
1.79408e-05
-3.98582e-07
1.83665e-05
-4.14792e-07
1.88084e-05
-4.30743e-07
1.92661e-05
-4.46354e-07
1.97392e-05
-4.61542e-07
2.0227e-05
-4.76222e-07
2.07291e-05
-4.90311e-07
2.12446e-05
-5.03724e-07
2.17728e-05
-5.16377e-07
2.23128e-05
-5.2819e-07
2.28636e-05
-5.3908e-07
2.34242e-05
-5.48968e-07
2.39935e-05
-5.57775e-07
2.45702e-05
-5.65426e-07
2.51532e-05
-5.71845e-07
2.57411e-05
-5.7696e-07
2.63325e-05
-5.80698e-07
2.69259e-05
-5.82989e-07
2.75197e-05
-5.83765e-07
2.81125e-05
-5.82957e-07
2.87025e-05
-5.80496e-07
2.92879e-05
-5.76312e-07
2.9867e-05
-5.70336e-07
3.04379e-05
-5.62494e-07
3.09987e-05
-5.52711e-07
3.15473e-05
-5.40905e-07
3.20816e-05
-5.2699e-07
3.25995e-05
-5.10869e-07
3.30985e-05
-4.92435e-07
3.35764e-05
-4.71566e-07
3.40305e-05
-4.48122e-07
3.4458e-05
-4.21935e-07
3.48562e-05
-3.92809e-07
3.52218e-05
-3.60504e-07
3.55513e-05
-3.24723e-07
3.58409e-05
-2.85097e-07
3.60864e-05
-2.41154e-07
3.62829e-05
-1.92291e-07
3.64246e-05
-1.37713e-07
3.65048e-05
-7.63745e-08
3.65155e-05
-6.87367e-09
3.64461e-05
7.30611e-08
3.62827e-05
1.66936e-07
3.60063e-05
2.80024e-07
3.55892e-05
4.20668e-07
3.49901e-05
6.02743e-07
3.41434e-05
8.50322e-07
3.29397e-05
1.20735e-06
3.11817e-05
1.76189e-06
2.84669e-05
2.71861e-06
4.79644e-06
2.36745e-05
1.24927e-05
-8.31294e-08
1.25665e-05
-1.42212e-07
1.266e-05
-1.79872e-07
1.27639e-05
-1.99799e-07
1.2873e-05
-2.09261e-07
1.29848e-05
-2.14273e-07
1.30994e-05
-2.19061e-07
1.32177e-05
-2.2595e-07
1.33413e-05
-2.35701e-07
1.34717e-05
-2.48173e-07
1.361e-05
-2.62912e-07
1.37571e-05
-2.795e-07
1.39141e-05
-2.97677e-07
1.40816e-05
-3.17328e-07
1.42603e-05
-3.38421e-07
1.44512e-05
-3.60952e-07
1.46548e-05
-3.8491e-07
1.48719e-05
-4.10263e-07
1.51033e-05
-4.36953e-07
1.53496e-05
-4.64901e-07
1.56114e-05
-4.94012e-07
1.58891e-05
-5.24179e-07
1.61834e-05
-5.55286e-07
1.64946e-05
-5.8721e-07
1.68231e-05
-6.19821e-07
1.7169e-05
-6.52983e-07
1.75327e-05
-6.86554e-07
1.79142e-05
-7.20388e-07
1.83135e-05
-7.54333e-07
1.87305e-05
-7.88232e-07
1.91653e-05
-8.21924e-07
1.96174e-05
-8.55244e-07
2.00866e-05
-8.88025e-07
2.05725e-05
-9.20095e-07
2.10746e-05
-9.51281e-07
2.15922e-05
-9.81412e-07
2.21248e-05
-1.01031e-06
2.26715e-05
-1.03781e-06
2.32315e-05
-1.06373e-06
2.38039e-05
-1.08791e-06
2.43875e-05
-1.11018e-06
2.49814e-05
-1.13037e-06
2.55842e-05
-1.14833e-06
2.61948e-05
-1.16389e-06
2.68118e-05
-1.17691e-06
2.74338e-05
-1.18723e-06
2.80592e-05
-1.1947e-06
2.86866e-05
-1.19919e-06
2.93142e-05
-1.20054e-06
2.99404e-05
-1.19863e-06
3.05633e-05
-1.1933e-06
3.11812e-05
-1.18443e-06
3.17921e-05
-1.17186e-06
3.23941e-05
-1.15544e-06
3.29851e-05
-1.13503e-06
3.35629e-05
-1.11046e-06
3.41253e-05
-1.08155e-06
3.467e-05
-1.0481e-06
3.51946e-05
-1.00991e-06
3.56965e-05
-9.66729e-07
3.61731e-05
-9.18271e-07
3.66214e-05
-8.64206e-07
3.70385e-05
-8.04141e-07
3.7421e-05
-7.37601e-07
3.77654e-05
-6.64e-07
3.80679e-05
-5.82612e-07
3.83239e-05
-4.92516e-07
3.85286e-05
-3.92536e-07
3.86764e-05
-2.81138e-07
3.87604e-05
-1.56299e-07
3.87729e-05
-1.52895e-08
3.8704e-05
1.45947e-07
3.85414e-05
3.33435e-07
3.82692e-05
5.5605e-07
3.78666e-05
8.27137e-07
3.73059e-05
1.16739e-06
3.65506e-05
1.60951e-06
3.5556e-05
2.20592e-06
3.42792e-05
3.04284e-06
3.27466e-05
4.25547e-06
5.93938e-06
3.1608e-05
1.33672e-05
-1.28307e-07
1.34461e-05
-2.20857e-07
1.35461e-05
-2.79364e-07
1.36574e-05
-3.10369e-07
1.37741e-05
-3.2504e-07
1.38937e-05
-3.32735e-07
1.40161e-05
-3.40033e-07
1.41425e-05
-3.50562e-07
1.42743e-05
-3.65526e-07
1.44132e-05
-3.8472e-07
1.45605e-05
-4.07444e-07
1.47172e-05
-4.33044e-07
1.48842e-05
-4.61109e-07
1.50623e-05
-4.91455e-07
1.52523e-05
-5.24024e-07
1.54551e-05
-5.58806e-07
1.56713e-05
-5.95781e-07
1.59019e-05
-6.34897e-07
1.61475e-05
-6.76064e-07
1.64087e-05
-7.19158e-07
1.66862e-05
-7.64034e-07
1.69806e-05
-8.10523e-07
1.72924e-05
-8.58446e-07
1.76219e-05
-9.07613e-07
1.79695e-05
-9.57822e-07
1.83355e-05
-1.00886e-06
1.872e-05
-1.06052e-06
1.91232e-05
-1.11256e-06
1.9545e-05
-1.16474e-06
1.99855e-05
-1.21684e-06
2.04443e-05
-1.2686e-06
2.09213e-05
-1.31976e-06
2.14161e-05
-1.37006e-06
2.19283e-05
-1.41924e-06
2.24572e-05
-1.46703e-06
2.30024e-05
-1.51317e-06
2.35629e-05
-1.55739e-06
2.4138e-05
-1.59942e-06
2.47268e-05
-1.639e-06
2.53283e-05
-1.67586e-06
2.59413e-05
-1.70975e-06
2.65647e-05
-1.74042e-06
2.71972e-05
-1.76761e-06
2.78374e-05
-1.79109e-06
2.84839e-05
-1.81063e-06
2.91352e-05
-1.82598e-06
2.97897e-05
-1.83693e-06
3.04457e-05
-1.84326e-06
3.11016e-05
-1.84475e-06
3.17554e-05
-1.84119e-06
3.24053e-05
-1.83236e-06
3.30494e-05
-1.81805e-06
3.36857e-05
-1.79804e-06
3.43121e-05
-1.77211e-06
3.49264e-05
-1.74003e-06
3.55263e-05
-1.70155e-06
3.61096e-05
-1.65641e-06
3.66739e-05
-1.60432e-06
3.72166e-05
-1.54495e-06
3.77351e-05
-1.47795e-06
3.82266e-05
-1.40291e-06
3.86883e-05
-1.31933e-06
3.9117e-05
-1.22665e-06
3.95094e-05
-1.12417e-06
3.98621e-05
-1.01106e-06
4.01711e-05
-8.86285e-07
4.04322e-05
-7.48541e-07
4.06407e-05
-5.96186e-07
4.07913e-05
-4.27101e-07
4.08781e-05
-2.38524e-07
4.0894e-05
-2.67999e-08
4.08311e-05
2.13087e-07
4.06807e-05
4.88163e-07
4.04326e-05
8.08355e-07
4.00764e-05
1.18753e-06
3.96029e-05
1.64513e-06
3.90085e-05
2.2082e-06
3.83058e-05
2.913e-06
3.75493e-05
3.8039e-06
3.68948e-05
4.91455e-06
6.17559e-06
3.66635e-05
1.43029e-05
-1.76152e-07
1.43873e-05
-3.04877e-07
1.44941e-05
-3.85717e-07
1.46132e-05
-4.28699e-07
1.47382e-05
-4.48974e-07
1.48662e-05
-4.5947e-07
1.4997e-05
-4.69302e-07
1.51318e-05
-4.83521e-07
1.52723e-05
-5.03836e-07
1.54201e-05
-5.29999e-07
1.55766e-05
-5.61052e-07
1.5743e-05
-5.96094e-07
1.59202e-05
-6.34543e-07
1.61091e-05
-6.76125e-07
1.63106e-05
-7.20749e-07
1.65254e-05
-7.68391e-07
1.67545e-05
-8.19017e-07
1.69985e-05
-8.72549e-07
1.72582e-05
-9.28865e-07
1.75343e-05
-9.87793e-07
1.78274e-05
-1.04913e-06
1.81381e-05
-1.11264e-06
1.84669e-05
-1.17809e-06
1.88143e-05
-1.24521e-06
1.91805e-05
-1.31372e-06
1.95658e-05
-1.38334e-06
1.99703e-05
-1.45375e-06
2.03942e-05
-1.52466e-06
2.08374e-05
-1.59573e-06
2.12999e-05
-1.66663e-06
2.17813e-05
-1.73703e-06
2.22815e-05
-1.80656e-06
2.28e-05
-1.87488e-06
2.33363e-05
-1.94162e-06
2.38899e-05
-2.00642e-06
2.44599e-05
-2.06891e-06
2.50457e-05
-2.12873e-06
2.56462e-05
-2.1855e-06
2.62606e-05
-2.23888e-06
2.68877e-05
-2.2885e-06
2.75264e-05
-2.33401e-06
2.81754e-05
-2.37507e-06
2.88333e-05
-2.41134e-06
2.94986e-05
-2.4425e-06
3.01699e-05
-2.46822e-06
3.08456e-05
-2.48819e-06
3.15239e-05
-2.50211e-06
3.22032e-05
-2.50969e-06
3.28816e-05
-2.51063e-06
3.35571e-05
-2.50464e-06
3.42279e-05
-2.49145e-06
3.48919e-05
-2.47076e-06
3.5547e-05
-2.44228e-06
3.61911e-05
-2.40572e-06
3.68219e-05
-2.36078e-06
3.7437e-05
-2.30713e-06
3.80341e-05
-2.24443e-06
3.86108e-05
-2.1723e-06
3.91645e-05
-2.09033e-06
3.96924e-05
-1.99806e-06
4.0192e-05
-1.89495e-06
4.06601e-05
-1.7804e-06
4.10939e-05
-1.65369e-06
4.149e-05
-1.51396e-06
4.18452e-05
-1.36018e-06
4.21558e-05
-1.1911e-06
4.2418e-05
-1.00516e-06
4.26276e-05
-8.00438e-07
4.27801e-05
-5.74485e-07
4.28707e-05
-3.24189e-07
4.28943e-05
-4.55847e-08
4.28458e-05
2.66316e-07
4.27206e-05
6.18022e-07
4.25154e-05
1.01821e-06
4.22297e-05
1.4779e-06
4.18688e-05
2.01069e-06
4.14493e-05
2.63249e-06
4.10075e-05
3.35965e-06
4.06131e-05
4.20341e-06
4.03788e-05
5.15395e-06
6.1384e-06
4.04214e-05
1.53043e-05
-2.26872e-07
1.53943e-05
-3.94539e-07
1.55084e-05
-4.99347e-07
1.56359e-05
-5.55317e-07
1.57696e-05
-5.8166e-07
1.59066e-05
-5.95082e-07
1.60464e-05
-6.07429e-07
1.61901e-05
-6.25312e-07
1.63396e-05
-6.51034e-07
1.64967e-05
-6.84335e-07
1.66628e-05
-7.24007e-07
1.68391e-05
-7.68876e-07
1.70268e-05
-8.18165e-07
1.72267e-05
-8.71494e-07
1.74398e-05
-9.28718e-07
1.76668e-05
-9.89787e-07
1.79086e-05
-1.05465e-06
1.8166e-05
-1.12319e-06
1.84398e-05
-1.19526e-06
1.87306e-05
-1.27063e-06
1.90391e-05
-1.34903e-06
1.93658e-05
-1.43018e-06
1.97113e-05
-1.51375e-06
2.00759e-05
-1.5994e-06
2.046e-05
-1.68679e-06
2.08638e-05
-1.77553e-06
2.12874e-05
-1.86524e-06
2.17308e-05
-1.95551e-06
2.21941e-05
-2.04593e-06
2.26771e-05
-2.13607e-06
2.31796e-05
-2.22549e-06
2.37011e-05
-2.31374e-06
2.42412e-05
-2.40037e-06
2.47994e-05
-2.4849e-06
2.5375e-05
-2.56688e-06
2.59673e-05
-2.64583e-06
2.65753e-05
-2.72129e-06
2.71981e-05
-2.79279e-06
2.78346e-05
-2.85987e-06
2.84838e-05
-2.92208e-06
2.91442e-05
-2.97896e-06
2.98145e-05
-3.03008e-06
3.04934e-05
-3.07502e-06
3.11792e-05
-3.11335e-06
3.18705e-05
-3.14469e-06
3.25654e-05
-3.16862e-06
3.32622e-05
-3.18478e-06
3.39591e-05
-3.19278e-06
3.46541e-05
-3.19227e-06
3.53454e-05
-3.18288e-06
3.60308e-05
-3.16426e-06
3.67083e-05
-3.13607e-06
3.73757e-05
-3.09793e-06
3.80308e-05
-3.0495e-06
3.86712e-05
-2.99039e-06
3.92946e-05
-2.92023e-06
3.98987e-05
-2.8386e-06
4.04809e-05
-2.74504e-06
4.10386e-05
-2.63909e-06
4.15693e-05
-2.52018e-06
4.20702e-05
-2.38772e-06
4.25385e-05
-2.24101e-06
4.29714e-05
-2.07922e-06
4.33658e-05
-1.90142e-06
4.37188e-05
-1.70647e-06
4.40271e-05
-1.49302e-06
4.42874e-05
-1.25943e-06
4.44966e-05
-1.00371e-06
4.46512e-05
-7.23412e-07
4.4748e-05
-4.15538e-07
4.47842e-05
-7.64443e-08
4.47578e-05
2.97988e-07
4.46684e-05
7.12673e-07
4.45181e-05
1.17369e-06
4.43134e-05
1.68785e-06
4.40672e-05
2.2621e-06
4.38027e-05
2.90241e-06
4.35564e-05
3.61142e-06
4.33813e-05
4.38408e-06
4.33418e-05
5.19931e-06
6.00438e-06
4.34818e-05
1.63757e-05
-2.80658e-07
1.64716e-05
-4.90125e-07
1.65936e-05
-6.20691e-07
1.67299e-05
-6.9077e-07
1.68731e-05
-7.23718e-07
1.70197e-05
-7.40203e-07
1.7169e-05
-7.54998e-07
1.73222e-05
-7.7644e-07
1.74812e-05
-8.07529e-07
1.76478e-05
-8.48054e-07
1.78237e-05
-8.96561e-07
1.80103e-05
-9.51587e-07
1.82085e-05
-1.01213e-06
1.84196e-05
-1.07768e-06
1.86443e-05
-1.148e-06
1.88835e-05
-1.22302e-06
1.91382e-05
-1.30265e-06
1.94089e-05
-1.38673e-06
1.96966e-05
-1.47508e-06
2.0002e-05
-1.5674e-06
2.03255e-05
-1.66338e-06
2.06678e-05
-1.76265e-06
2.10294e-05
-1.86482e-06
2.14106e-05
-1.96947e-06
2.18118e-05
-2.07616e-06
2.22331e-05
-2.18443e-06
2.26746e-05
-2.29379e-06
2.31363e-05
-2.40376e-06
2.36183e-05
-2.51381e-06
2.41201e-05
-2.62343e-06
2.46417e-05
-2.73207e-06
2.51824e-05
-2.83917e-06
2.5742e-05
-2.94418e-06
2.63196e-05
-3.04652e-06
2.69145e-05
-3.14562e-06
2.75261e-05
-3.24092e-06
2.81532e-05
-3.33182e-06
2.87948e-05
-3.41778e-06
2.94498e-05
-3.49822e-06
3.0117e-05
-3.57258e-06
3.0795e-05
-3.64034e-06
3.14824e-05
-3.70095e-06
3.21776e-05
-3.75389e-06
3.2879e-05
-3.79867e-06
3.3585e-05
-3.8348e-06
3.42938e-05
-3.86181e-06
3.50035e-05
-3.87923e-06
3.57122e-05
-3.88663e-06
3.64179e-05
-3.88355e-06
3.71187e-05
-3.86959e-06
3.78124e-05
-3.84433e-06
3.84969e-05
-3.80735e-06
3.91699e-05
-3.75823e-06
3.98292e-05
-3.69657e-06
4.04724e-05
-3.62193e-06
4.10973e-05
-3.53387e-06
4.17014e-05
-3.43194e-06
4.22823e-05
-3.31563e-06
4.28374e-05
-3.18442e-06
4.33643e-05
-3.03772e-06
4.38603e-05
-2.87487e-06
4.4323e-05
-2.69515e-06
4.47495e-05
-2.49772e-06
4.51374e-05
-2.28161e-06
4.54841e-05
-2.04571e-06
4.57868e-05
-1.78872e-06
4.60433e-05
-1.50909e-06
4.62511e-05
-1.20502e-06
4.64084e-05
-8.74383e-07
4.65137e-05
-5.14684e-07
4.65664e-05
-1.23111e-07
4.65672e-05
3.03102e-07
4.6519e-05
7.66803e-07
4.64274e-05
1.27116e-06
4.63021e-05
1.81897e-06
4.61583e-05
2.41189e-06
4.60175e-05
3.04934e-06
4.59081e-05
3.72696e-06
4.58644e-05
4.43418e-06
4.59194e-05
5.151e-06
5.84392e-06
4.60867e-05
1.75221e-05
-3.37683e-07
1.76243e-05
-5.91907e-07
1.77544e-05
-7.50174e-07
1.79002e-05
-8.35597e-07
1.80534e-05
-8.75767e-07
1.82102e-05
-8.95465e-07
1.83697e-05
-9.12599e-07
1.85329e-05
-9.37405e-07
1.87018e-05
-9.73723e-07
1.88783e-05
-1.02146e-06
1.90642e-05
-1.07894e-06
1.92611e-05
-1.14438e-06
1.94702e-05
-1.21654e-06
1.96924e-05
-1.29473e-06
1.99288e-05
-1.37861e-06
2.01802e-05
-1.46804e-06
2.04476e-05
-1.56289e-06
2.07315e-05
-1.66297e-06
2.10329e-05
-1.76803e-06
2.13524e-05
-1.87773e-06
2.16905e-05
-1.99168e-06
2.20479e-05
-2.10945e-06
2.24248e-05
-2.23057e-06
2.28218e-05
-2.35452e-06
2.3239e-05
-2.48079e-06
2.36767e-05
-2.60881e-06
2.41348e-05
-2.73803e-06
2.46133e-05
-2.86783e-06
2.51122e-05
-2.99761e-06
2.5631e-05
-3.12674e-06
2.61695e-05
-3.25457e-06
2.67272e-05
-3.38044e-06
2.73036e-05
-3.50367e-06
2.78978e-05
-3.6236e-06
2.85091e-05
-3.73954e-06
2.91366e-05
-3.8508e-06
2.97793e-05
-3.95672e-06
3.0436e-05
-4.05661e-06
3.11056e-05
-4.14981e-06
3.17866e-05
-4.23566e-06
3.24776e-05
-4.31353e-06
3.31772e-05
-4.3828e-06
3.38837e-05
-4.44285e-06
3.45955e-05
-4.49309e-06
3.53108e-05
-4.53297e-06
3.60277e-05
-4.56193e-06
3.67443e-05
-4.57943e-06
3.74587e-05
-4.58497e-06
3.81689e-05
-4.57804e-06
3.88727e-05
-4.55817e-06
3.9568e-05
-4.52488e-06
4.02526e-05
-4.47771e-06
4.09244e-05
-4.41619e-06
4.1581e-05
-4.33988e-06
4.22201e-05
-4.2483e-06
4.28395e-05
-4.14098e-06
4.34368e-05
-4.01744e-06
4.40095e-05
-3.87716e-06
4.45555e-05
-3.7196e-06
4.50722e-05
-3.54417e-06
4.55574e-05
-3.35023e-06
4.60087e-05
-3.13708e-06
4.64239e-05
-2.90394e-06
4.68007e-05
-2.64992e-06
4.71373e-05
-2.37405e-06
4.74317e-05
-2.0752e-06
4.76823e-05
-1.75211e-06
4.7888e-05
-1.40339e-06
4.80482e-05
-1.02745e-06
4.81631e-05
-6.22601e-07
4.8234e-05
-1.87117e-07
4.82635e-05
2.80308e-07
4.82565e-05
7.80525e-07
4.82202e-05
1.31418e-06
4.81649e-05
1.88104e-06
4.81043e-05
2.47938e-06
4.80553e-05
3.10527e-06
4.80375e-05
3.75184e-06
4.80707e-05
4.40834e-06
4.81699e-05
5.05939e-06
5.68518e-06
4.83365e-05
1.87488e-05
-3.98094e-07
1.88574e-05
-7.00133e-07
1.89961e-05
-8.88187e-07
1.91518e-05
-9.90297e-07
1.93157e-05
-1.03838e-06
1.94833e-05
-1.06146e-06
1.96535e-05
-1.08079e-06
1.98272e-05
-1.10868e-06
2.00063e-05
-1.14999e-06
2.0193e-05
-1.20482e-06
2.03892e-05
-1.27131e-06
2.05965e-05
-1.34736e-06
2.08163e-05
-1.43142e-06
2.10498e-05
-1.5226e-06
2.12978e-05
-1.62043e-06
2.15613e-05
-1.72467e-06
2.1841e-05
-1.83512e-06
2.21379e-05
-1.95156e-06
2.24526e-05
-2.07366e-06
2.27856e-05
-2.20104e-06
2.31377e-05
-2.33324e-06
2.35093e-05
-2.46974e-06
2.39007e-05
-2.60998e-06
2.43123e-05
-2.75339e-06
2.47444e-05
-2.89934e-06
2.51969e-05
-3.04718e-06
2.567e-05
-3.19624e-06
2.61635e-05
-3.34582e-06
2.66771e-05
-3.49521e-06
2.72107e-05
-3.64367e-06
2.77637e-05
-3.79043e-06
2.83357e-05
-3.93474e-06
2.89259e-05
-4.07581e-06
2.95335e-05
-4.21285e-06
3.01577e-05
-4.34507e-06
3.07975e-05
-4.47168e-06
3.14518e-05
-4.5919e-06
3.21194e-05
-4.70494e-06
3.27989e-05
-4.81004e-06
3.34889e-05
-4.90644e-06
3.4188e-05
-4.99342e-06
3.48946e-05
-5.07024e-06
3.56069e-05
-5.13624e-06
3.63233e-05
-5.19072e-06
3.70418e-05
-5.23306e-06
3.77607e-05
-5.26262e-06
3.84778e-05
-5.27881e-06
3.91913e-05
-5.28106e-06
3.98991e-05
-5.2688e-06
4.05989e-05
-5.24152e-06
4.12888e-05
-5.1987e-06
4.19665e-05
-5.13983e-06
4.26297e-05
-5.06442e-06
4.32764e-05
-4.972e-06
4.39041e-05
-4.86208e-06
4.45108e-05
-4.73419e-06
4.50941e-05
-4.58784e-06
4.56519e-05
-4.42254e-06
4.61819e-05
-4.23777e-06
4.66821e-05
-4.03299e-06
4.71504e-05
-3.80763e-06
4.75849e-05
-3.56109e-06
4.79837e-05
-3.29272e-06
4.83452e-05
-3.00181e-06
4.8668e-05
-2.68763e-06
4.89511e-05
-2.34936e-06
4.91937e-05
-1.98616e-06
4.93959e-05
-1.59718e-06
4.95581e-05
-1.18153e-06
4.9682e-05
-7.38426e-07
4.977e-05
-2.67257e-07
4.98261e-05
2.32001e-07
4.98557e-05
7.5861e-07
4.98663e-05
1.31139e-06
4.98669e-05
1.88821e-06
4.98686e-05
2.48563e-06
4.98834e-05
3.09855e-06
4.99235e-05
3.71999e-06
4.99993e-05
4.34099e-06
5.01167e-05
4.95076e-06
5.53799e-06
5.02729e-05
2.00612e-05
-4.62011e-07
2.01765e-05
-8.14998e-07
2.03241e-05
-1.03505e-06
2.04901e-05
-1.15528e-06
2.06652e-05
-1.21204e-06
2.08442e-05
-1.23871e-06
2.10256e-05
-1.26004e-06
2.12101e-05
-1.29068e-06
2.13998e-05
-1.33663e-06
2.15969e-05
-1.39833e-06
2.18034e-05
-1.47377e-06
2.20212e-05
-1.56051e-06
2.22518e-05
-1.65669e-06
2.24962e-05
-1.76113e-06
2.27556e-05
-1.8732e-06
2.30308e-05
-1.99254e-06
2.33226e-05
-2.11889e-06
2.36319e-05
-2.25193e-06
2.39591e-05
-2.39129e-06
2.4305e-05
-2.53652e-06
2.46701e-05
-2.68708e-06
2.50548e-05
-2.84237e-06
2.54594e-05
-3.00178e-06
2.58843e-05
-3.1646e-06
2.63295e-05
-3.33014e-06
2.67951e-05
-3.49763e-06
2.72811e-05
-3.66632e-06
2.77873e-05
-3.8354e-06
2.83133e-05
-4.00404e-06
2.88589e-05
-4.17139e-06
2.94234e-05
-4.33659e-06
3.00064e-05
-4.49875e-06
3.06069e-05
-4.65699e-06
3.12242e-05
-4.8104e-06
3.18573e-05
-4.95808e-06
3.2505e-05
-5.09913e-06
3.31663e-05
-5.23267e-06
3.38399e-05
-5.35779e-06
3.45242e-05
-5.47365e-06
3.52179e-05
-5.57938e-06
3.59194e-05
-5.67417e-06
3.6627e-05
-5.75721e-06
3.73389e-05
-5.82773e-06
3.80534e-05
-5.88498e-06
3.87686e-05
-5.92824e-06
3.94825e-05
-5.95684e-06
4.01931e-05
-5.97012e-06
4.08983e-05
-5.96745e-06
4.15962e-05
-5.94823e-06
4.22846e-05
-5.91191e-06
4.29614e-05
-5.85793e-06
4.36243e-05
-5.78578e-06
4.42713e-05
-5.69496e-06
4.49002e-05
-5.58498e-06
4.55088e-05
-5.45538e-06
4.60952e-05
-5.3057e-06
4.66571e-05
-5.1355e-06
4.71926e-05
-4.94434e-06
4.76998e-05
-4.73178e-06
4.81769e-05
-4.49737e-06
4.86221e-05
-4.24067e-06
4.9034e-05
-3.96125e-06
4.94112e-05
-3.65866e-06
4.97527e-05
-3.33246e-06
5.00578e-05
-2.98223e-06
5.03262e-05
-2.60755e-06
5.0558e-05
-2.2081e-06
5.0754e-05
-1.78359e-06
5.09158e-05
-1.3339e-06
5.10457e-05
-8.59091e-07
5.11471e-05
-3.59538e-07
5.12243e-05
1.63842e-07
5.12827e-05
7.09269e-07
5.13288e-05
1.27442e-06
5.13699e-05
1.85622e-06
5.14142e-05
2.45062e-06
5.14695e-05
3.05258e-06
5.15431e-05
3.65602e-06
5.16399e-05
4.25406e-06
5.17614e-05
4.83942e-06
5.40581e-06
5.19041e-05
2.14654e-05
-5.29517e-07
2.15875e-05
-9.36633e-07
2.17442e-05
-1.19098e-06
2.19209e-05
-1.33084e-06
2.21074e-05
-1.39709e-06
2.22981e-05
-1.42756e-06
2.24911e-05
-1.45071e-06
2.26868e-05
-1.48369e-06
2.28873e-05
-1.53386e-06
2.30948e-05
-1.60211e-06
2.33117e-05
-1.68632e-06
2.35399e-05
-1.78374e-06
2.3781e-05
-1.89211e-06
2.40361e-05
-2.00997e-06
2.43065e-05
-2.13647e-06
2.45929e-05
-2.2711e-06
2.48961e-05
-2.41349e-06
2.52168e-05
-2.56324e-06
2.55558e-05
-2.71993e-06
2.59134e-05
-2.883e-06
2.62902e-05
-3.05187e-06
2.66866e-05
-3.22585e-06
2.71028e-05
-3.40423e-06
2.7539e-05
-3.58622e-06
2.79953e-05
-3.77103e-06
2.84717e-05
-3.9578e-06
2.8968e-05
-4.14565e-06
2.94841e-05
-4.33368e-06
3.00195e-05
-4.52095e-06
3.05737e-05
-4.70649e-06
3.11462e-05
-4.88934e-06
3.17362e-05
-5.06849e-06
3.23429e-05
-5.24294e-06
3.29654e-05
-5.41168e-06
3.36026e-05
-5.5737e-06
3.42533e-05
-5.72799e-06
3.49163e-05
-5.87355e-06
3.55901e-05
-6.00939e-06
3.62734e-05
-6.13457e-06
3.69645e-05
-6.24812e-06
3.76619e-05
-6.34914e-06
3.83637e-05
-6.43676e-06
3.90682e-05
-6.51011e-06
3.97735e-05
-6.56839e-06
4.04778e-05
-6.61083e-06
4.11789e-05
-6.63667e-06
4.1875e-05
-6.64524e-06
4.2564e-05
-6.63585e-06
4.32438e-05
-6.60789e-06
4.39123e-05
-6.56077e-06
4.45675e-05
-6.49394e-06
4.52072e-05
-6.40688e-06
4.58294e-05
-6.29911e-06
4.64322e-05
-6.17017e-06
4.70134e-05
-6.01963e-06
4.75712e-05
-5.8471e-06
4.81038e-05
-5.6522e-06
4.86093e-05
-5.4346e-06
4.90863e-05
-5.19396e-06
4.95331e-05
-4.93001e-06
4.99487e-05
-4.64248e-06
5.03318e-05
-4.33115e-06
5.06818e-05
-3.99584e-06
5.09982e-05
-3.63642e-06
5.12808e-05
-3.25285e-06
5.15301e-05
-2.84516e-06
5.17469e-05
-2.41351e-06
5.19327e-05
-1.95824e-06
5.20896e-05
-1.47989e-06
5.22206e-05
-9.79241e-07
5.23292e-05
-4.57424e-07
5.24195e-05
8.40836e-08
5.24964e-05
6.43003e-07
5.25652e-05
1.21634e-06
5.26314e-05
1.80073e-06
5.27007e-05
2.3922e-06
5.27781e-05
2.98626e-06
5.28675e-05
3.57798e-06
5.29708e-05
4.16223e-06
5.3088e-05
4.73417e-06
5.29039e-06
5.32156e-05
2.29677e-05
-6.0065e-07
2.30966e-05
-1.06508e-06
2.32625e-05
-1.35606e-06
2.345e-05
-1.51707e-06
2.36481e-05
-1.59367e-06
2.38507e-05
-1.6282e-06
2.40554e-05
-1.65296e-06
2.42625e-05
-1.68785e-06
2.44739e-05
-1.74175e-06
2.46919e-05
-1.81612e-06
2.4919e-05
-1.90882e-06
2.51573e-05
-2.01675e-06
2.54085e-05
-2.13727e-06
2.56738e-05
-2.26858e-06
2.59544e-05
-2.40955e-06
2.62512e-05
-2.5595e-06
2.65648e-05
-2.71792e-06
2.6896e-05
-2.88433e-06
2.72453e-05
-3.05821e-06
2.76131e-05
-3.23895e-06
2.8e-05
-3.42587e-06
2.84061e-05
-3.6182e-06
2.88317e-05
-3.81514e-06
2.92769e-05
-4.01582e-06
2.97417e-05
-4.21932e-06
3.02259e-05
-4.42471e-06
3.07295e-05
-4.63099e-06
3.1252e-05
-4.83714e-06
3.17929e-05
-5.04212e-06
3.23518e-05
-5.24485e-06
3.29279e-05
-5.44425e-06
3.35203e-05
-5.6392e-06
3.41283e-05
-5.82859e-06
3.47507e-05
-6.01129e-06
3.53863e-05
-6.18619e-06
3.60341e-05
-6.35218e-06
3.66925e-05
-6.50815e-06
3.73601e-05
-6.65303e-06
3.80354e-05
-6.78575e-06
3.87168e-05
-6.9053e-06
3.94025e-05
-7.01069e-06
4.00908e-05
-7.10095e-06
4.07799e-05
-7.17518e-06
4.14677e-05
-7.23251e-06
4.21525e-05
-7.2721e-06
4.28323e-05
-7.29319e-06
4.3505e-05
-7.29505e-06
4.41686e-05
-7.27698e-06
4.48211e-05
-7.23836e-06
4.54605e-05
-7.1786e-06
4.60847e-05
-7.09717e-06
4.66919e-05
-6.99356e-06
4.72802e-05
-6.86734e-06
4.78475e-05
-6.7181e-06
4.83922e-05
-6.5455e-06
4.89126e-05
-6.34922e-06
4.94072e-05
-6.12901e-06
4.98744e-05
-5.88465e-06
5.0313e-05
-5.61601e-06
5.07221e-05
-5.32296e-06
5.11006e-05
-5.00548e-06
5.14482e-05
-4.66361e-06
5.17645e-05
-4.29747e-06
5.20496e-05
-3.90727e-06
5.2304e-05
-3.49336e-06
5.25286e-05
-3.0562e-06
5.27247e-05
-2.59645e-06
5.28945e-05
-2.11494e-06
5.30402e-05
-1.61277e-06
5.31649e-05
-1.09129e-06
5.32722e-05
-5.52147e-07
5.33659e-05
2.95708e-09
5.34497e-05
5.71739e-07
5.3528e-05
1.15067e-06
5.36049e-05
1.73661e-06
5.36839e-05
2.326e-06
5.37683e-05
2.91498e-06
5.386e-05
3.49965e-06
5.39596e-05
4.0762e-06
5.40663e-05
4.64136e-06
5.1934e-06
5.41775e-05
2.45749e-05
-6.75393e-07
2.47107e-05
-1.20027e-06
2.48857e-05
-1.5302e-06
2.50838e-05
-1.7139e-06
2.52935e-05
-1.8017e-06
2.55079e-05
-1.84054e-06
2.57243e-05
-1.86674e-06
2.59426e-05
-1.90308e-06
2.61647e-05
-1.96015e-06
2.6393e-05
-2.04013e-06
2.663e-05
-2.1409e-06
2.6878e-05
-2.25905e-06
2.71386e-05
-2.39152e-06
2.74134e-05
-2.53613e-06
2.77033e-05
-2.69144e-06
2.80092e-05
-2.85655e-06
2.8332e-05
-3.0308e-06
2.8672e-05
-3.21362e-06
2.90299e-05
-3.40436e-06
2.9406e-05
-3.60235e-06
2.98006e-05
-3.80682e-06
3.0214e-05
-4.01692e-06
3.06463e-05
-4.23174e-06
3.10975e-05
-4.45033e-06
3.15675e-05
-4.67168e-06
3.20562e-05
-4.89472e-06
3.2563e-05
-5.11837e-06
3.30878e-05
-5.3415e-06
3.36298e-05
-5.56294e-06
3.41884e-05
-5.78151e-06
3.47629e-05
-5.99602e-06
3.53523e-05
-6.20523e-06
3.59556e-05
-6.40792e-06
3.65717e-05
-6.60287e-06
3.71993e-05
-6.78885e-06
3.78371e-05
-6.96464e-06
3.84836e-05
-7.12906e-06
3.91374e-05
-7.28093e-06
3.97969e-05
-7.41911e-06
4.04602e-05
-7.54251e-06
4.11258e-05
-7.65007e-06
4.17918e-05
-7.74076e-06
4.24562e-05
-7.81362e-06
4.31173e-05
-7.86775e-06
4.37731e-05
-7.90227e-06
4.44217e-05
-7.91639e-06
4.5061e-05
-7.90937e-06
4.56892e-05
-7.88052e-06
4.63042e-05
-7.82922e-06
4.69042e-05
-7.75491e-06
4.74874e-05
-7.65709e-06
4.80518e-05
-7.53531e-06
4.85959e-05
-7.38919e-06
4.91178e-05
-7.21844e-06
4.96162e-05
-7.0228e-06
5.00895e-05
-6.80208e-06
5.05366e-05
-6.55618e-06
5.09563e-05
-6.28506e-06
5.13479e-05
-5.98876e-06
5.17106e-05
-5.6674e-06
5.20442e-05
-5.32121e-06
5.23484e-05
-4.9505e-06
5.26235e-05
-4.5557e-06
5.28701e-05
-4.13739e-06
5.30891e-05
-3.69626e-06
5.32819e-05
-3.23318e-06
5.34502e-05
-2.74922e-06
5.35961e-05
-2.24561e-06
5.37223e-05
-1.72383e-06
5.38316e-05
-1.18561e-06
5.39272e-05
-6.32849e-07
5.40128e-05
-6.76609e-08
5.40916e-05
5.07818e-07
5.41666e-05
1.09069e-06
5.42405e-05
1.67781e-06
5.43159e-05
2.26594e-06
5.43945e-05
2.85186e-06
5.44775e-05
3.43244e-06
5.45649e-05
4.00479e-06
5.4656e-05
4.56666e-06
5.11729e-06
5.47488e-05
2.62944e-05
-7.53668e-07
2.64367e-05
-1.34203e-06
2.66206e-05
-1.71315e-06
2.6829e-05
-1.92099e-06
2.70499e-05
-2.02082e-06
2.72759e-05
-2.06424e-06
2.75036e-05
-2.09169e-06
2.77328e-05
-2.12901e-06
2.79653e-05
-2.18866e-06
2.82033e-05
-2.27365e-06
2.84497e-05
-2.38196e-06
2.87065e-05
-2.50988e-06
2.89757e-05
-2.65392e-06
2.92587e-05
-2.81147e-06
2.95566e-05
-2.98078e-06
2.98702e-05
-3.16068e-06
3.02002e-05
-3.35035e-06
3.05471e-05
-3.54906e-06
3.09114e-05
-3.75609e-06
3.12932e-05
-3.97065e-06
3.16929e-05
-4.19189e-06
3.21106e-05
-4.41888e-06
3.25462e-05
-4.65062e-06
3.29997e-05
-4.88604e-06
3.3471e-05
-5.12403e-06
3.39596e-05
-5.36344e-06
3.44651e-05
-5.60305e-06
3.49871e-05
-5.84164e-06
3.55248e-05
-6.07793e-06
3.60775e-05
-6.31063e-06
3.66442e-05
-6.53842e-06
3.72241e-05
-6.75997e-06
3.78159e-05
-6.97395e-06
3.84184e-05
-7.17903e-06
3.90303e-05
-7.37389e-06
3.96502e-05
-7.55723e-06
4.02766e-05
-7.72775e-06
4.09078e-05
-7.88422e-06
4.15423e-05
-8.02542e-06
4.21784e-05
-8.15019e-06
4.28141e-05
-8.2574e-06
4.34477e-05
-8.346e-06
4.40774e-05
-8.41498e-06
4.47013e-05
-8.46341e-06
4.53174e-05
-8.4904e-06
4.59239e-05
-8.49516e-06
4.65189e-05
-8.47694e-06
4.71005e-05
-8.43509e-06
4.7667e-05
-8.36901e-06
4.82164e-05
-8.27819e-06
4.87473e-05
-8.1622e-06
4.92579e-05
-8.02067e-06
4.97467e-05
-7.85332e-06
5.02124e-05
-7.65997e-06
5.06537e-05
-7.44049e-06
5.10695e-05
-7.19486e-06
5.1459e-05
-6.92314e-06
5.18214e-05
-6.6255e-06
5.21562e-05
-6.30219e-06
5.24633e-05
-5.9536e-06
5.27427e-05
-5.58019e-06
5.29948e-05
-5.18257e-06
5.32201e-05
-4.76149e-06
5.34197e-05
-4.31782e-06
5.35949e-05
-3.85261e-06
5.37473e-05
-3.36705e-06
5.38789e-05
-2.86251e-06
5.39919e-05
-2.34056e-06
5.40889e-05
-1.80292e-06
5.41726e-05
-1.25151e-06
5.42458e-05
-6.88384e-07
5.43116e-05
-1.15659e-07
5.43724e-05
4.64763e-07
5.44306e-05
1.05035e-06
5.44883e-05
1.63819e-06
5.45471e-05
2.22537e-06
5.46082e-05
2.80912e-06
5.46725e-05
3.38689e-06
5.47399e-05
3.95642e-06
5.48097e-05
4.51609e-06
5.06571e-06
5.4881e-05
2.81339e-05
-8.35324e-07
2.82825e-05
-1.49004e-06
2.84748e-05
-1.90443e-06
2.8693e-05
-2.13779e-06
2.89245e-05
-2.25038e-06
2.91612e-05
-2.29861e-06
2.93996e-05
-2.32712e-06
2.9639e-05
-2.36495e-06
2.98811e-05
-2.42656e-06
3.01282e-05
-2.51588e-06
3.03828e-05
-2.63105e-06
3.06475e-05
-2.76812e-06
3.09239e-05
-2.92315e-06
3.12137e-05
-3.09308e-06
3.15178e-05
-3.2758e-06
3.18371e-05
-3.46987e-06
3.21721e-05
-3.67425e-06
3.25234e-05
-3.88808e-06
3.28911e-05
-4.11052e-06
3.32756e-05
-4.34068e-06
3.36769e-05
-4.57761e-06
3.40951e-05
-4.82029e-06
3.453e-05
-5.06761e-06
3.49814e-05
-5.31843e-06
3.5449e-05
-5.57152e-06
3.59325e-05
-5.82561e-06
3.64312e-05
-6.07941e-06
3.69444e-05
-6.33156e-06
3.74715e-05
-6.58068e-06
3.80115e-05
-6.82537e-06
3.85635e-05
-7.06421e-06
3.91262e-05
-7.29576e-06
3.96986e-05
-7.51861e-06
4.02792e-05
-7.73131e-06
4.08667e-05
-7.93246e-06
4.14596e-05
-8.12067e-06
4.20564e-05
-8.29458e-06
4.26553e-05
-8.45288e-06
4.32547e-05
-8.59429e-06
4.38529e-05
-8.7176e-06
4.4448e-05
-8.82166e-06
4.50383e-05
-8.90536e-06
4.56219e-05
-8.96768e-06
4.6197e-05
-9.00769e-06
4.67617e-05
-9.0245e-06
4.73143e-05
-9.01733e-06
4.7853e-05
-8.98547e-06
4.8376e-05
-8.9283e-06
4.88818e-05
-8.8453e-06
4.93686e-05
-8.73602e-06
4.98352e-05
-8.60012e-06
5.028e-05
-8.43735e-06
5.07018e-05
-8.24755e-06
5.10996e-05
-8.03066e-06
5.14725e-05
-7.78674e-06
5.18196e-05
-7.51594e-06
5.21405e-05
-7.21851e-06
5.24349e-05
-6.89485e-06
5.27027e-05
-6.54544e-06
5.2944e-05
-6.17089e-06
5.31594e-05
-5.77196e-06
5.33495e-05
-5.34953e-06
5.35154e-05
-4.90461e-06
5.36583e-05
-4.43837e-06
5.37799e-05
-3.95211e-06
5.38819e-05
-3.4473e-06
5.39665e-05
-2.92554e-06
5.4036e-05
-2.3886e-06
5.40926e-05
-1.83835e-06
5.41391e-05
-1.2768e-06
5.41778e-05
-7.05964e-07
5.42111e-05
-1.27778e-07
5.42409e-05
4.56152e-07
5.42692e-05
1.04344e-06
5.42976e-05
1.63131e-06
5.43275e-05
2.21713e-06
5.43601e-05
2.7985e-06
5.43959e-05
3.37328e-06
5.44352e-05
3.93964e-06
5.44777e-05
4.49637e-06
5.04363e-06
5.4523e-05
3.01017e-05
-9.20123e-07
3.02561e-05
-1.64381e-06
3.04561e-05
-2.10337e-06
3.06833e-05
-2.36344e-06
3.09244e-05
-2.48944e-06
3.11709e-05
-2.54265e-06
3.14189e-05
-2.572e-06
3.16675e-05
-2.60983e-06
3.19181e-05
-2.67271e-06
3.21729e-05
-2.76558e-06
3.24347e-05
-2.88682e-06
3.27056e-05
-3.03223e-06
3.29875e-05
-3.19744e-06
3.32821e-05
-3.37894e-06
3.35901e-05
-3.57421e-06
3.39126e-05
-3.78154e-06
3.42498e-05
-3.99965e-06
3.46022e-05
-4.22751e-06
3.49701e-05
-4.46416e-06
3.53534e-05
-4.7086e-06
3.57521e-05
-4.95978e-06
3.61663e-05
-5.21657e-06
3.65956e-05
-5.4778e-06
3.70396e-05
-5.74218e-06
3.74981e-05
-6.00841e-06
3.79703e-05
-6.27512e-06
3.84557e-05
-6.54089e-06
3.89534e-05
-6.80426e-06
3.94626e-05
-7.06376e-06
3.99822e-05
-7.31788e-06
4.05111e-05
-7.5651e-06
4.10482e-05
-7.8039e-06
4.15922e-05
-8.03274e-06
4.21415e-05
-8.25012e-06
4.26949e-05
-8.45455e-06
4.32506e-05
-8.64458e-06
4.38071e-05
-8.81877e-06
4.43628e-05
-8.97576e-06
4.49159e-05
-9.11425e-06
4.54646e-05
-9.23296e-06
4.60073e-05
-9.33074e-06
4.65421e-05
-9.40647e-06
4.70673e-05
-9.45913e-06
4.75812e-05
-9.48778e-06
4.80819e-05
-9.49159e-06
4.85678e-05
-9.46981e-06
4.90374e-05
-9.42177e-06
4.9489e-05
-9.34694e-06
4.99213e-05
-9.24488e-06
5.03328e-05
-9.11522e-06
5.07223e-05
-8.95776e-06
5.10888e-05
-8.77237e-06
5.14313e-05
-8.55904e-06
5.17491e-05