/*--------------------------------*- C++ -*----------------------------------*\
  =========                 |
  \\      /  F ield         | OpenFOAM: The Open Source CFD Toolbox
   \\    /   O peration     | Website:  https://openfoam.org
    \\  /    A nd           | Version:  7
     \\/     M anipulation  |
\*---------------------------------------------------------------------------*/
FoamFile
{
    version     2.0;
    format      ascii;
    class       volScalarField;
    location    "0.9";
    object      p;
}
// * * * * * * * * * * * * * * * * * * * * * * * * * * * * * * * * * * * * * //

dimensions      [0 2 -2 0 0 0 0];

internalField   nonuniform List<scalar> 
2790
(
184.438
184.355
184.646
185.253
186.078
187.087
188.277
189.646
191.188
192.894
194.757
196.769
198.918
201.19
203.569
206.031
208.548
211.086
213.603
216.047
218.362
220.486
222.356
223.914
225.115
225.938
226.346
226.406
226.477
226.686
184.232
184.26
184.576
185.18
186
187.007
188.193
189.556
191.09
192.788
194.643
196.645
198.784
201.046
203.415
205.868
208.378
210.912
213.428
215.877
218.204
220.346
222.24
223.825
225.05
225.875
226.255
226.327
226.467
226.732
184.027
184.125
184.46
185.053
185.861
186.855
188.026
189.371
190.884
192.558
194.386
196.357
198.462
200.688
203.017
205.43
207.899
210.394
212.876
215.298
217.61
219.753
221.669
223.298
224.592
225.521
226.09
226.431
226.735
227.025
183.792
183.921
184.269
184.853
185.647
186.624
187.775
189.097
190.582
192.223
194.013
195.942
198
200.173
202.446
204.797
207.204
209.636
212.058
214.43
216.706
218.835
220.766
222.45
223.85
224.954
225.785
226.425
226.954
227.442
183.519
183.662
184.018
184.595
185.372
186.328
187.454
188.744
190.193
191.792
193.534
195.409
197.406
199.513
201.713
203.987
206.313
208.663
211.008
213.31
215.533
217.634
219.574
221.316
222.835
224.128
225.212
226.131
226.901
227.594
183.203
183.351
183.709
184.276
185.033
185.964
187.058
188.312
189.716
191.265
192.95
194.76
196.686
198.713
200.827
203.009
205.239
207.492
209.741
211.957
214.108
216.163
218.093
219.874
221.492
222.944
224.24
225.392
226.36
227.215
182.841
182.991
183.346
183.9
184.634
185.534
186.593
187.802
189.156
190.647
192.266
194.002
195.845
197.782
199.797
201.874
203.993
206.133
208.269
210.378
212.435
214.417
216.307
218.09
219.76
221.317
222.761
224.081
225.19
226.169
182.435
182.582
182.93
183.467
184.176
185.042
186.059
187.22
188.517
189.942
191.486
193.139
194.889
196.725
198.63
200.588
202.581
204.59
206.595
208.574
210.51
212.387
214.194
215.926
217.584
219.172
220.683
222.099
223.292
224.372
181.984
182.127
182.464
182.982
183.661
184.49
185.461
186.567
187.801
189.154
190.616
192.177
193.826
195.548
197.331
199.157
201.01
202.871
204.722
206.546
208.328
210.057
211.728
213.343
214.908
216.432
217.914
219.34
220.558
221.721
181.489
181.627
181.951
182.446
183.094
183.881
184.802
185.849
187.014
188.288
189.661
191.123
192.66
194.261
195.91
197.591
199.287
200.981
202.656
204.295
205.884
207.416
208.888
210.303
211.673
213.016
214.342
215.659
216.821
218.045
180.953
181.085
181.393
181.863
182.475
183.219
184.086
185.069
186.16
187.35
188.628
189.982
191.401
192.87
194.374
195.898
197.422
198.93
200.404
201.826
203.183
204.462
205.66
206.779
207.83
208.837
209.828
210.855
211.813
213.052
180.377
180.501
180.792
181.235
181.81
182.506
183.316
184.232
185.245
186.345
187.522
188.763
190.056
191.385
192.735
194.089
195.427
196.731
197.98
199.154
200.235
201.204
202.049
202.761
203.343
203.812
204.208
204.638
205.094
206.208
179.763
179.879
180.152
180.565
181.101
181.747
182.497
183.342
184.273
185.28
186.351
187.474
188.634
189.816
191.004
192.177
193.317
194.4
195.402
196.3
197.064
197.667
198.079
198.27
198.212
197.891
197.317
196.625
195.932
196.465
179.114
179.222
179.474
179.857
180.351
180.945
181.633
182.404
183.251
184.16
185.122
186.121
187.144
188.174
189.192
190.177
191.107
191.956
192.695
193.291
193.707
193.897
193.808
193.372
192.507
191.112
189.078
186.397
183.124
181.463
178.432
178.531
178.762
179.113
179.564
180.105
180.728
181.424
182.183
182.993
183.842
184.715
185.597
186.47
187.313
188.104
188.818
189.423
189.886
190.166
190.211
189.958
189.324
188.192
186.397
183.694
179.692
173.831
164.999
154.619
72.4651
71.728
70.3279
68.1616
65.2138
61.495
57.0417
51.9135
46.1895
39.9665
33.3571
26.4881
19.4999
12.545
5.78759
-0.599499
-6.43746
-11.546
-15.7461
-18.8637
-20.7493
-21.312
-20.4684
-18.2338
-14.7545
-10.196
-4.52071
2.18747
7.83346
6.08867
73.0556
72.1423
70.6155
68.3436
65.3054
61.5057
56.979
51.784
45.9995
39.7218
33.0631
26.1498
19.1215
12.1307
5.34089
-1.07556
-6.94039
-12.0746
-16.3044
-19.4691
-21.4272
-22.052
-21.282
-19.1429
-15.7843
-11.382
-5.91219
0.625573
6.36565
4.81552
73.3023
72.1938
70.4945
68.0512
64.8644
60.9417
56.3169
51.0457
45.2034
38.8826
32.1916
25.2533
18.2048
11.1964
4.38985
-2.04299
-7.92383
-13.0733
-17.3198
-20.5066
-22.4917
-23.1743
-22.4583
-20.3842
-17.1055
-12.81
-7.50541
-1.16811
4.5245
3.55199
72.9408
71.6639
69.813
67.2032
63.8661
59.8159
55.0879
49.7359
43.8313
37.4625
30.7335
23.7638
16.6874
9.65255
2.8196
-3.64036
-9.5489
-14.7259
-18.9996
-22.2184
-24.2547
-24.9735
-24.3063
-22.2852
-19.0578
-14.8124
-9.59109
-3.41292
2.22753
2.29691
71.814
70.4484
68.5114
65.7834
62.3327
58.1818
53.3712
47.9548
42.0022
35.5982
28.8434
21.8537
14.7603
7.70905
0.858695
-5.62076
-11.5512
-16.7519
-21.0498
-24.293
-26.3527
-27.1162
-26.4956
-24.5149
-21.3159
-17.0809
-11.888
-5.82604
-0.179695
1.10999
69.9807
68.6013
66.6423
63.8531
60.3368
56.1218
51.2547
45.7916
39.8016
33.3675
26.5873
19.5747
12.4587
5.38344
-1.49305
-8.00088
-13.9612
-19.1913
-23.514
-26.7722
-28.838
-29.6138
-29.0116
-27.036
-23.8216
-19.5432
-14.3135
-8.28997
-2.53667
0.0108602
67.6464
66.3043
64.3665
61.5607
58.0191
53.7709
48.8693
43.3736
37.3538
30.8927
24.0876
17.0509
9.91036
2.80937
-4.09461
-10.6317
-16.6227
-21.8829
-26.2298
-29.4976
-31.5569
-32.3268
-31.7205
-29.7202
-26.4542
-22.0897
-16.7686
-10.7028
-4.75246
-0.992605
65.0824
63.8057
61.9081
59.1095
55.564
51.2984
46.3722
40.8479
34.7981
28.3068
21.4715
14.4044
7.233
0.0999506
-6.83754
-13.4094
-19.4358
-24.7299
-29.103
-32.378
-34.4188
-35.1587
-34.5203
-32.4644
-29.1138
-24.6295
-19.1727
-12.992
-6.77804
-1.89673
62.5779
61.374
59.5138
56.7233
53.1731
48.8859
43.9281
38.3663
32.276
25.7432
18.8667
11.7591
4.5477
-2.6251
-9.60253
-16.2145
-22.2803
-27.6117
-32.0142
-35.2981
-37.3155
-38.0035
-37.3038
-35.1664
-31.7057
-27.0792
-21.4574
-15.1066
-8.58669
-2.6994
60.4123
59.2705
57.4257
54.6216
51.0432
46.7093
41.6959
36.0737
29.922
23.3293
16.3955
9.23378
1.97164
-5.24952
-12.2738
-18.9315
-25.0416
-30.4145
-34.8512
-38.151
-40.1479
-40.7608
-39.9674
-37.7307
-34.1426
-29.3631
-23.5643
-17.0103
-10.1635
-3.39905
58.8353
57.7301
55.8623
53.0015
49.349
44.9235
39.8141
34.0967
27.8541
21.1769
14.166
6.93482
-0.389794
-7.6681
-14.7463
-21.4554
-27.6148
-33.0336
-37.5104
-40.835
-42.8153
-43.3347
-42.4208
-40.0738
-36.3472
-31.4137
-25.4428
-18.6766
-11.5004
-3.99438
58.0483
56.9481
55.0033
52.0217
48.2274
43.6474
38.3888
32.5329
26.1646
19.3754
12.2666
4.95021
-2.44779
-9.79099
-16.9296
-23.6952
-29.9082
-35.3771
-39.898
-43.2521
-45.2156
-45.6454
-44.6073
-42.1311
-38.2583
-33.176
-27.0513
-20.0867
-12.5944
-4.48372
58.1827
57.0595
54.9682
51.782
47.7579
42.9508
37.4884
31.4438
24.9137
17.9861
10.7602
3.34547
-4.13307
-11.5458
-18.7495
-25.5752
-31.8452
-37.3677
-41.9357
-45.325
-47.2831
-47.6374
-46.4728
-43.8593
-39.8381
-34.6146
-28.3607
-21.2279
-13.447
-4.86424
59.3078
58.1316
55.8219
52.3195
47.9539
42.8358
37.1025
30.8327
24.1158
17.0376
9.69088
2.17986
-5.38402
-12.8767
-20.1485
-27.0342
-33.3621
-38.94
-43.5557
-46.9907
-48.9671
-49.2683
-47.9826
-45.2365
-41.0746
-35.7172
-29.3576
-22.095
-14.0665
-5.13397
61.4146
60.1769
57.5677
53.583
48.7448
43.239
37.1911
30.673
23.7595
16.5278
9.06118
1.45336
-6.19451
-13.7561
-21.0784
-28.0074
-34.3761
-39.9916
-44.6705
-48.1598
-50.174
-50.4649
-49.0995
-46.2329
-41.9602
-36.4828
-30.0473
-22.6976
-14.4764
-5.30176
177.706
177.796
178.005
178.322
178.728
179.213
179.769
180.387
181.055
181.762
182.494
183.237
183.973
184.684
185.347
185.937
186.426
186.78
186.958
186.909
186.572
185.862
184.666
182.819
180.067
175.993
169.822
159.944
141.256
90.6468
176.928
177.008
177.194
177.475
177.835
178.261
178.747
179.282
179.856
180.456
181.067
181.675
182.26
182.803
183.28
183.664
183.923
184.019
183.906
183.527
182.808
181.651
179.92
177.42
173.85
168.724
161.188
149.843
133.775
110.896
176.103
176.173
176.335
176.579
176.889
177.256
177.669
178.12
178.597
179.086
179.574
180.043
180.474
180.847
181.136
181.311
181.339
181.179
180.78
180.079
178.999
177.433
175.241
172.231
168.131
162.574
155.103
145.27
133.816
121.027
175.233
175.292
175.429
175.635
175.895
176.199
176.539
176.903
177.281
177.658
178.02
178.35
178.627
178.828
178.929
178.898
178.699
178.289
177.616
176.617
175.21
173.294
170.739
167.38
163.014
157.41
150.353
141.617
131.27
118.917
174.319
174.367
174.479
174.646
174.855
175.096
175.36
175.637
175.915
176.179
176.415
176.605
176.728
176.76
176.676
176.444
176.027
175.381
174.454
173.185
171.496
169.295
166.47
162.888
158.4
152.845
146.065
137.865
128.127
116.957
173.363
173.4
173.487
173.614
173.771
173.948
174.136
174.326
174.503
174.655
174.766
174.817
174.789
174.657
174.394
173.969
173.346
172.482
171.327
169.822
167.898
165.474
162.458
158.745
154.223
148.775
142.299
134.7
125.974
116.43
172.368
172.395
172.455
172.542
172.647
172.761
172.873
172.975
173.053
173.094
173.082
172.998
172.823
172.532
172.099
171.493
170.68
169.618
168.261
166.557
164.444
161.854
158.714
154.943
150.462
145.197
139.096
132.136
124.347
115.979
171.338
171.353
171.387
171.435
171.488
171.538
171.576
171.591
171.572
171.504
171.372
171.158
170.841
170.399
169.807
169.034
168.048
166.811
165.282
163.413
161.154
158.45
155.241
151.472
147.088
142.048
136.327
129.93
122.881
115.385
170.275
170.28
170.288
170.297
170.298
170.286
170.25
170.181
170.066
169.893
169.646
169.307
168.857
168.274
167.534
166.609
165.47
164.081
162.408
160.409
158.043
155.266
152.034
148.309
144.056
139.253
133.891
127.985
121.561
114.799
169.185
169.178
169.161
169.131
169.083
169.009
168.902
168.751
168.545
168.27
167.913
167.456
166.882
166.169
165.295
164.234
162.961
161.444
159.653
157.554
155.115
152.301
149.082
145.43
141.327
136.761
131.736
126.272
120.396
114.262
168.071
168.054
168.013
167.945
167.848
167.715
167.538
167.309
167.015
166.645
166.184
165.618
164.928
164.096
163.102
161.922
160.533
158.91
157.027
154.856
152.372
149.55
146.368
142.81
138.866
134.534
129.824
124.756
119.358
113.76
166.939
166.912
166.847
166.743
166.599
166.409
166.167
165.862
165.486
165.025
164.469
163.801
163.006
162.068
160.967
159.684
158.199
156.491
154.537
152.317
149.812
147.004
143.879
140.427
136.646
132.539
128.118
123.406
118.425
113.287
165.795
165.758
165.67
165.531
165.342
165.099
164.794
164.419
163.965
163.421
162.776
162.016
161.127
160.094
158.901
157.531
155.966
154.191
152.187
149.938
147.431
144.654
141.598
138.26
134.64
130.746
126.591
122.196
117.582
112.843
164.645
164.599
164.489
164.317
164.086
163.792
163.428
162.988
162.462
161.841
161.115
160.272
159.299
158.184
156.911
155.469
153.841
152.015
149.978
147.717
145.223
142.489
139.511
136.288
132.825
129.13
125.218
121.107
116.817
112.427
163.495
163.44
163.31
163.108
162.837
162.495
162.077
161.576
160.984
160.294
159.495
158.578
157.532
156.345
155.007
153.505
151.828
149.966
147.909
145.65
143.181
140.499
137.603
134.495
131.182
127.673
123.982
120.126
116.122
112.037
162.353
162.29
162.141
161.909
161.602
161.216
160.748
160.192
159.54
158.787
157.924
156.942
155.832
154.585
153.192
151.643
149.93
148.045
145.981
143.732
141.297
138.672
135.86
132.865
129.694
126.357
122.866
119.238
115.487
111.671
161.226
161.155
160.988
160.73
160.389
159.963
159.45
158.843
158.139
157.329
156.409
155.371
154.207
152.91
151.473
149.888
148.149
146.251
144.189
141.96
139.564
137
134.272
131.385
128.347
125.167
121.858
118.433
114.908
111.329
160.121
160.044
159.861
159.579
159.206
158.744
158.19
157.539
156.787
155.928
154.959
153.873
152.664
151.326
149.854
148.242
146.487
144.584
142.532
140.328
137.974
135.472
132.826
130.042
127.127
124.092
120.947
117.704
114.378
111.008
159.048
158.964
158.766
158.462
158.062
157.568
156.977
156.286
155.492
154.592
153.58
152.454
151.207
149.837
148.338
146.708
144.944
143.043
141.006
138.831
136.523
134.082
131.515
128.827
126.026
123.121
120.124
117.044
113.893
110.707
158.013
157.924
157.713
157.39
156.965
156.442
155.818
155.093
154.263
153.326
152.279
151.119
149.842
148.447
146.929
145.287
143.52
141.627
139.608
137.466
135.202
132.821
130.328
127.73
125.033
122.247
119.381
116.446
113.452
110.428
157.027
156.932
156.71
156.369
155.923
155.374
154.723
153.968
153.107
152.139
151.063
149.875
148.575
147.16
145.628
143.98
142.215
140.333
138.336
136.227
134.008
131.684
129.261
126.744
124.142
121.463
118.715
115.907
113.05
110.168
156.098
155.999
155.766
155.41
154.944
154.374
153.698
152.917
152.031
151.038
149.937
148.727
147.409
145.98
144.44
142.79
141.03
139.162
137.188
135.111
132.935
130.665
128.306
125.865
123.348
120.763
118.119
115.424
112.687
109.929
155.235
155.132
154.89
154.521
154.038
153.449
152.753
151.951
151.042
150.028
148.908
147.682
146.349
144.91
143.366
141.717
139.966
138.113
136.163
134.117
131.982
129.761
127.46
125.086
122.645
120.144
117.591
114.995
112.362
109.711
154.449
154.342
154.092
153.711
153.214
152.608
151.895
151.075
150.149
149.118
147.982
146.743
145.401
143.956
142.41
140.765
139.023
137.187
135.259
133.243
131.145
128.969
126.72
124.406
122.031
119.604
117.131
114.619
112.076
109.518
153.748
153.638
153.381
152.989
152.48
151.861
151.133
150.298
149.358
148.314
147.166
145.917
144.568
143.12
141.575
139.935
138.203
136.382
134.476
132.488
130.423
128.287
126.084
123.821
121.504
119.14
116.734
114.295
111.828
109.347
153.145
153.031
152.766
152.365
151.846
151.215
150.476
149.63
148.678
147.624
146.468
145.212
143.859
142.409
140.866
139.233
137.511
135.705
133.817
131.854
129.819
127.716
125.553
123.334
121.066
118.754
116.406
114.027
111.624
109.208
152.65
152.532
152.259
151.848
151.318
150.679
149.93
149.075
148.115
147.052
145.89
144.63
143.274
141.825
140.285
138.657
136.945
135.152
133.281
131.339
129.328
127.254
125.123
122.94
120.712
118.443
116.14
113.809
111.456
109.091
152.277
152.152
151.869
151.449
150.913
150.267
149.511
148.649
147.683
146.615
145.449
144.186
142.829
141.381
139.844
138.222
136.518
134.736
132.88
130.954
128.963
126.913
124.808
122.653
120.456
118.221
115.954
113.661
111.348
109.024
152.042
151.893
151.592
151.165
150.626
149.975
149.215
148.349
147.379
146.309
145.14
143.876
142.52
141.073
139.539
137.922
136.224
134.45
132.603
130.689
128.712
126.677
124.589
122.454
120.277
118.064
115.82
113.551
111.264
108.964
152.005
151.793
151.464
151.03
150.487
149.832
149.068
148.199
147.228
146.156
144.988
143.724
142.369
140.925
139.395
137.782
136.09
134.323
132.485
130.58
128.613
126.589
124.514
122.392
120.229
118.031
115.802
113.55
111.279
108.995
20.5589
38.3395
53.9681
96.4179
92.4463
85.457
108.633
100.407
92.8014
106.11
98.0872
91.8563
106.498
99.6797
93.9934
107.695
101.707
96.4268
108.246
102.864
98.065
108.445
103.607
99.2965
108.551
104.19
100.314
108.599
104.642
101.142
108.594
104.982
101.804
108.55
105.236
102.335
108.479
105.424
102.762
108.389
105.561
103.107
108.285
105.658
103.386
108.173
105.723
103.609
108.055
105.763
103.788
107.933
105.78
103.929
107.809
105.781
104.037
107.685
105.767
104.119
107.563
105.743
104.177
107.445
105.71
104.217
107.333
105.673
104.242
107.23
105.634
104.257
107.136
105.595
104.263
107.062
105.567
104.271
106.996
105.537
104.272
106.971
105.54
104.297
106.935
105.524
104.299
106.991
105.597
104.379
64.3081
63.0592
60.0392
55.3668
49.9465
44.0089
37.6323
30.8669
23.7674
16.3962
8.82564
1.1405
-6.56176
-14.1622
-21.5146
-28.469
-34.8629
-40.5134
-45.2341
-48.7576
-50.8074
-51.1271
-49.704
-46.7683
-42.4767
-36.932
-30.471
-23.0762
-14.7256
-5.41195
77.8177
69.5877
63.3248
57.3482
51.274
44.93
38.2715
31.3054
24.062
16.5888
8.9486
1.21966
-6.50409
-14.1102
-21.4623
-28.4134
-34.803
-40.4514
-45.1607
-48.6809
-50.7467
-51.1234
-49.731
-46.8228
-42.5736
-37.0969
-30.6322
-23.2375
-14.8317
-5.52199
82.1131
72.0611
65.3074
58.9369
52.4021
45.7399
38.9049
31.8387
24.5348
17.0278
9.3751
1.65131
-6.0524
-13.6273
-20.944
-27.858
-34.2101
-39.8215
-44.4912
-47.9844
-50.0533
-50.4885
-49.1899
-46.3742
-42.2381
-36.8922
-30.5174
-23.1934
-14.8611
-5.61132
82.8749
73.0905
66.0158
59.5662
53.0083
46.2997
39.4297
32.363
25.0892
17.6318
10.0404
2.38575
-5.24316
-12.7396
-19.9778
-26.8157
-33.0953
-38.6396
-43.2507
-46.7071
-48.7814
-49.2882
-48.1428
-45.4567
-41.4783
-36.3557
-30.1673
-22.9907
-14.7924
-5.63028
85.5834
75.8719
67.8336
60.6008
53.6764
46.8503
39.9685
32.9377
25.734
18.3748
10.9012
3.37459
-4.1225
-11.4878
-18.5995
-25.3187
-31.4896
-36.9386
-41.4743
-44.8893
-46.9778
-47.5764
-46.6133
-44.1285
-40.3731
-35.5213
-29.5978
-22.6397
-14.6285
-5.60434
88.755
79.462
70.7675
62.703
55.1591
47.9492
40.8757
33.7907
26.6201
19.3489
12.0003
4.62336
-2.70996
-9.90663
-16.8531
-23.4166
-29.4472
-34.7775
-39.2254
-42.599
-44.7136
-45.4245
-44.6643
-42.4534
-38.9748
-34.4191
-28.8198
-22.1395
-14.3636
-5.53061
91.3331
82.8175
74.0466
65.5643
57.561
49.9362
42.5429
35.2631
28.0164
20.7609
13.4923
6.23935
-0.941023
-7.96806
-14.7395
-21.1334
-27.0093
-32.2107
-36.568
-39.9063
-42.0606
-42.9023
-42.3674
-40.4713
-37.3072
-33.0721
-27.825
-21.4685
-13.9781
-5.39969
93.4164
85.7565
77.3043
68.8109
60.6428
52.7735
45.1146
37.6063
30.2044
22.8766
15.6102
8.41891
1.34364
-5.54964
-12.1722
-18.4149
-24.1503
-29.2356
-33.5168
-36.8369
-39.0495
-40.0399
-39.746
-38.1694
-35.36
-31.4767
-26.5836
-20.5864
-13.4413
-5.20508
95.1349
88.2773
80.3561
72.1455
64.0877
56.2052
48.4508
40.8111
33.2838
25.8645
18.5539
11.3673
4.33984
-2.4728
-8.9941
-15.128
-20.7612
-25.7656
-30.0039
-33.3367
-35.6349
-36.7958
-36.7587
-35.5135
-33.0928
-29.5663
-25.0219
-19.4304
-12.7148
-4.94518
96.5322
90.3864
83.0828
75.3357
67.5973
59.9145
52.2621
44.6541
37.1186
29.6777
22.3516
15.1676
8.16527
1.39867
-5.06194
-11.1302
-16.7046
-21.6713
-25.9082
-29.2924
-31.7098
-33.0678
-33.3068
-32.4062
-30.3779
-27.245
-23.0999
-17.9617
-11.7752
-4.62302
97.6626
92.132
85.4491
78.2467
70.9544
63.6255
56.2428
48.8306
41.433
34.0897
26.8367
19.7137
12.768
6.05731
-0.349229
-6.3702
-11.9124
-16.873
-21.1427
-24.6123
-27.1802
-28.7621
-29.2994
-28.7635
-27.1504
-24.4619
-20.7793
-16.1679
-10.624
-4.24281
98.5844
93.5806
87.4768
80.8298
74.0363
67.1475
60.1458
53.0554
45.9246
38.8008
31.7289
24.7564
17.9368
11.3314
5.01005
-0.94823
-6.45571
-11.4174
-15.7343
-19.3076
-22.0458
-23.8711
-24.7265
-24.5787
-23.4155
-21.2361
-18.0934
-14.0894
-9.29369
-3.80787
99.3429
94.7901
89.2067
83.0866
76.7934
70.3742
63.8079
57.1139
50.3378
43.5275
36.7302
29.9959
23.3803
16.946
10.7623
4.90588
-0.539943
-5.48669
-9.84315
-13.5193
-16.4314
-18.5075
-19.6927
-19.9522
-19.2715
-17.654
-15.1296
-11.8185
-7.8452
-3.32442
99.9711
95.8056
90.6822
85.0431
79.2229
73.2644
67.1437
60.8742
54.4959
48.0536
41.5922
35.16
28.8115
22.6072
16.6139
10.9045
5.55723
0.654461
-3.71984
-7.4832
-10.5588
-12.8801
-14.3952
-15.0701
-14.891
-13.8646
-12.0203
-9.4685
-6.34805
-2.80358
100.494
96.662
91.9423
86.7337
81.3459
75.8183
70.1252
64.2748
58.3012
52.2443
46.1451
40.048
34.0033
28.0674
22.3025
16.7761
11.5604
6.73103
2.36463
-1.46363
-4.68367
-7.23442
-9.06776
-10.152
-10.4748
-10.0461
-8.90245
-7.12793
-4.85882
-2.2602
100.929
97.3856
93.0194
88.1926
83.1927
78.057
72.759
67.3024
61.7164
56.0359
50.2971
44.5399
38.8095
33.1567
27.6378
22.3141
17.2508
12.516
8.17913
4.30773
0.965103
-1.79338
-3.92384
-5.39734
-6.20322
-6.35272
-5.88366
-4.86903
-3.42827
-1.71468
101.291
97.997
93.94
89.45
84.7947
80.0096
75.0683
69.9712
64.7428
59.4138
54.0158
48.584
43.1581
37.7835
32.51
27.3922
22.4881
17.8585
13.5648
9.66744
6.22279
3.28045
0.879916
-0.952734
-2.20819
-2.89747
-3.0562
-2.75015
-2.08092
-1.18256
101.591
98.5125
94.7255
90.5316
86.1804
81.7061
77.0826
72.3077
67.4021
62.3924
57.3063
52.1743
47.0315
41.9174
36.8761
31.9554
27.2064
22.6827
18.4383
14.5266
10.9973
7.89441
5.25319
3.09691
1.43391
0.254222
-0.47403
-0.808557
-0.836321
-0.675102
101.838
98.9453
95.3939
91.4595
87.3754
83.1747
78.8318
74.3425
69.724
64.9994
60.193
55.3311
50.4443
45.567
40.7377
35.9983
31.3936
26.9702
22.7757
18.8566
15.2567
12.0148
9.16196
6.71902
4.6935
3.07683
1.84124
0.936833
0.289168
-0.204291
102.039
99.3067
95.96
92.2524
88.4021
84.4408
80.344
76.1057
71.7401
67.2674
62.7084
58.0861
53.4268
48.7605
44.1208
39.5442
35.0697
30.738
26.5906
22.6681
19.009
15.6472
12.6102
9.91645
7.57278
5.57204
3.89037
2.48488
1.29183
0.222849
102.201
99.6062
96.4371
92.9267
89.2798
85.5271
81.6446
77.6253
73.4808
69.2285
64.8863
60.4742
56.0148
51.5342
47.0616
42.6288
38.2697
34.0198
29.9153
25.9919
22.2829
18.8184
15.6223
12.711
10.0909
7.75604
5.68596
3.84388
2.17518
0.604284
102.329
99.8526
96.8366
93.497
90.0261
86.4537
82.7569
78.9272
74.9744
70.9133
66.7595
62.5301
58.2446
53.9257
49.5988
45.2914
41.0333
36.8554
32.7894
28.8663
25.1156
21.5634
18.2309
15.1327
12.2745
9.65149
7.24609
5.02672
2.94633
0.940392
102.43
100.053
97.1686
93.9756
90.6558
87.2383
83.7006
80.0339
76.2457
72.3491
68.3573
64.2852
60.1495
55.97
51.7686
47.5696
43.3989
39.2836
35.2514
31.3295
27.5439
23.9175
20.4691
17.2115
14.1501
11.2807
8.58831
6.04559
3.61178
1.23164
102.509
100.217
97.4434
94.3751
91.1838
87.8977
84.4953
80.9669
77.3187
73.5617
69.7078
65.7694
61.7612
57.7004
53.6061
49.4995
45.4035
41.3418
37.3389
33.4188
29.6043
25.9158
22.3699
18.978
15.7449
12.6672
9.73182
6.91495
4.18087
1.4818
102.569
100.347
97.6668
94.7031
91.6194
88.4433
85.154
81.7414
78.2102
74.5702
70.8316
67.0052
63.1038
59.1423
55.1377
51.1087
47.0754
43.0589
39.0808
35.1625
31.3244
27.5844
23.9575
20.4538
17.0777
13.8263
10.6881
7.64198
4.65651
1.6902
102.621
100.456
97.8521
94.9744
91.979
88.8929
85.6963
82.3786
78.9433
75.3991
71.7549
68.0203
64.2063
60.3263
56.3952
52.4297
48.4478
44.4684
40.5109
36.5943
32.7371
28.9553
25.2624
21.6676
18.1747
14.7813
11.477
8.24307
5.05116
1.86426
102.658
100.537
97.9942
95.1847
92.2593
89.2446
86.1213
82.8785
79.5191
76.0506
72.481
68.8188
65.0739
61.2582
57.3851
53.4698
49.5285
45.5783
41.637
37.7218
33.8495
30.0347
26.2897
22.6229
19.0378
15.532
12.0963
8.71341
5.35793
1.99721
102.706
100.619
98.1221
95.3644
92.4917
89.5306
86.4625
83.276
79.9735
76.5618
73.048
69.4399
65.7465
61.9785
58.1485
54.2703
50.3588
46.43
42.5
38.5852
34.7008
30.8606
27.0758
23.3542
19.6991
16.1081
12.5726
9.07663
5.59648
2.10206
102.729
100.663
98.1967
95.4739
92.6365
89.7112
86.6797
83.5308
80.2661
76.8921
73.4154
69.8433
66.1841
62.448
58.6467
54.7932
50.9017
46.9872
43.0651
39.1508
35.2587
31.4018
27.5908
23.833
20.1314
16.4836
12.8811
9.3086
5.74357
2.15962
102.809
100.747
98.2974
95.5952
92.7775
89.8711
86.8588
83.7292
80.4837
77.1284
73.6697
70.1146
66.4711
62.7492
58.96
55.1163
51.2319
47.3215
43.3999
39.4822
35.5825
31.7136
27.8857
24.106
20.3774
16.6974
13.0573
9.4409
5.82331
2.16848
)
;

boundaryField
{
    inlet
    {
        type            zeroGradient;
    }
    outlet
    {
        type            fixedValue;
        value           uniform 0;
    }
    flap
    {
        type            zeroGradient;
    }
    upperWall
    {
        type            zeroGradient;
    }
    lowerWall
    {
        type            zeroGradient;
    }
    frontAndBack
    {
        type            empty;
    }
}


// ************************************************************************* //
