/*--------------------------------*- C++ -*----------------------------------*\
  =========                 |
  \\      /  F ield         | OpenFOAM: The Open Source CFD Toolbox
   \\    /   O peration     | Website:  https://openfoam.org
    \\  /    A nd           | Version:  7
     \\/     M anipulation  |
\*---------------------------------------------------------------------------*/
FoamFile
{
    version     2.0;
    format      ascii;
    class       volVectorField;
    location    "0.9";
    object      U;
}
// * * * * * * * * * * * * * * * * * * * * * * * * * * * * * * * * * * * * * //

dimensions      [0 1 -1 0 0 0 0];

internalField   nonuniform List<vector> 
2790
(
(9.94346 0.0208287 0)
(9.87347 0.030206 0)
(9.76996 0.0369128 0)
(9.64008 0.0437725 0)
(9.4897 0.0508828 0)
(9.31982 0.0581927 0)
(9.12973 0.0658301 0)
(8.91864 0.0739543 0)
(8.68584 0.0827003 0)
(8.43047 0.0921887 0)
(8.15148 0.10254 0)
(7.84763 0.113875 0)
(7.5176 0.126316 0)
(7.15995 0.139978 0)
(6.7733 0.154962 0)
(6.35635 0.17134 0)
(5.90803 0.189136 0)
(5.4277 0.208299 0)
(4.91538 0.228666 0)
(4.37206 0.249922 0)
(3.80002 0.271542 0)
(3.20322 0.292745 0)
(2.58768 0.312449 0)
(1.96166 0.329365 0)
(1.33469 0.342932 0)
(0.731846 0.357677 0)
(0.0846314 0.30642 0)
(-0.466917 -0.0924388 0)
(-0.439928 -0.27436 0)
(-0.219163 -0.397639 0)
(9.99798 0.0416461 0)
(9.9792 0.064249 0)
(9.93046 0.0818939 0)
(9.85474 0.100222 0)
(9.75646 0.119519 0)
(9.63673 0.139626 0)
(9.49501 0.160793 0)
(9.33056 0.183365 0)
(9.14269 0.207643 0)
(8.93056 0.233892 0)
(8.69312 0.262365 0)
(8.42914 0.293308 0)
(8.13724 0.326945 0)
(7.81596 0.363457 0)
(7.4638 0.402951 0)
(7.07934 0.445414 0)
(6.66131 0.490652 0)
(6.20884 0.538212 0)
(5.72161 0.587281 0)
(5.20023 0.636578 0)
(4.64658 0.684234 0)
(4.06425 0.727684 0)
(3.45911 0.763591 0)
(2.84009 0.787839 0)
(2.22024 0.795702 0)
(1.6252 0.781894 0)
(1.06033 0.714445 0)
(0.611382 0.511113 0)
(0.183232 0.172218 0)
(-0.0135415 -0.438896 0)
(9.99508 0.0448015 0)
(9.97334 0.0784035 0)
(9.92662 0.107956 0)
(9.85566 0.138393 0)
(9.7636 0.170418 0)
(9.65163 0.204006 0)
(9.51953 0.239496 0)
(9.36678 0.277378 0)
(9.19283 0.318121 0)
(8.997 0.362158 0)
(8.77844 0.409913 0)
(8.53609 0.461804 0)
(8.26876 0.518222 0)
(7.97511 0.579495 0)
(7.65376 0.645845 0)
(7.30327 0.717307 0)
(6.92228 0.793634 0)
(6.50962 0.874163 0)
(6.06451 0.957646 0)
(5.58681 1.04205 0)
(5.07735 1.12434 0)
(4.53846 1.20021 0)
(3.97451 1.26389 0)
(3.39284 1.30769 0)
(2.8046 1.3213 0)
(2.22826 1.28935 0)
(1.67498 1.17682 0)
(1.1677 0.928563 0)
(0.678248 0.5325 0)
(0.330463 -0.147557 0)
(9.99351 0.0517193 0)
(9.96959 0.0975632 0)
(9.9227 0.139977 0)
(9.85303 0.182566 0)
(9.76278 0.226633 0)
(9.65312 0.272579 0)
(9.52405 0.320921 0)
(9.37527 0.37231 0)
(9.20638 0.427388 0)
(9.01695 0.486767 0)
(8.80637 0.551045 0)
(8.5739 0.620813 0)
(8.31868 0.696634 0)
(8.03976 0.779005 0)
(7.73609 0.868301 0)
(7.4066 0.964684 0)
(7.05018 1.06798 0)
(6.66582 1.1775 0)
(6.25262 1.29183 0)
(5.81005 1.40852 0)
(5.33813 1.5238 0)
(4.83782 1.63212 0)
(4.31148 1.72578 0)
(3.76342 1.79428 0)
(3.20016 1.82328 0)
(2.63136 1.7929 0)
(2.06346 1.67137 0)
(1.50339 1.42115 0)
(0.925737 1.03211 0)
(0.474801 0.468733 0)
(9.9928 0.0600609 0)
(9.96773 0.116549 0)
(9.92076 0.170322 0)
(9.85225 0.224068 0)
(9.76384 0.279439 0)
(9.65647 0.337198 0)
(9.53025 0.398 0)
(9.38492 0.462581 0)
(9.22022 0.531686 0)
(9.03577 0.606032 0)
(8.83112 0.686321 0)
(8.60573 0.773243 0)
(8.35894 0.867462 0)
(8.09007 0.969577 0)
(7.79838 1.08006 0)
(7.4831 1.19917 0)
(7.14342 1.32682 0)
(6.77855 1.46237 0)
(6.38768 1.60437 0)
(5.97009 1.75027 0)
(5.52523 1.89593 0)
(5.0529 2.0352 0)
(4.55345 2.15931 0)
(4.0281 2.25624 0)
(3.4789 2.30997 0)
(2.90899 2.29986 0)
(2.3198 2.1987 0)
(1.71275 1.97701 0)
(1.05624 1.62347 0)
(0.509303 1.10156 0)
(9.99251 0.0690123 0)
(9.96702 0.135522 0)
(9.9204 0.200139 0)
(9.85333 0.26492 0)
(9.76714 0.331535 0)
(9.66255 0.40096 0)
(9.53966 0.473975 0)
(9.3983 0.551396 0)
(9.23824 0.634059 0)
(9.05916 0.72278 0)
(8.8607 0.818359 0)
(8.64237 0.921577 0)
(8.40366 1.03318 0)
(8.144 1.15386 0)
(7.8628 1.28416 0)
(7.55943 1.42442 0)
(7.23323 1.57464 0)
(6.8835 1.73427 0)
(6.50943 1.90196 0)
(6.11011 2.07523 0)
(5.68447 2.24998 0)
(5.2313 2.42 0)
(4.74926 2.57631 0)
(4.23699 2.70658 0)
(3.69303 2.79461 0)
(3.1161 2.82025 0)
(2.50377 2.75914 0)
(1.85615 2.58543 0)
(1.13758 2.28714 0)
(0.526537 1.81756 0)
(9.99246 0.0781736 0)
(9.96706 0.154362 0)
(9.92122 0.229315 0)
(9.8559 0.304728 0)
(9.77228 0.382198 0)
(9.67093 0.46285 0)
(9.55194 0.547603 0)
(9.41517 0.637368 0)
(9.26044 0.733068 0)
(9.08749 0.835611 0)
(8.89596 0.945878 0)
(8.68545 1.06473 0)
(8.45548 1.19299 0)
(8.20553 1.33141 0)
(7.93505 1.48061 0)
(7.64342 1.64101 0)
(7.32998 1.81271 0)
(6.99395 1.9953 0)
(6.63438 2.18763 0)
(6.25003 2.38748 0)
(5.83928 2.5911 0)
(5.4 2.79268 0)
(4.92941 2.98373 0)
(4.42407 3.15247 0)
(3.87988 3.2833 0)
(3.29245 3.35679 0)
(2.65662 3.34992 0)
(1.97323 3.23756 0)
(1.20326 3.00504 0)
(0.541187 2.58993 0)
(9.99255 0.0873101 0)
(9.96762 0.172879 0)
(9.92293 0.257686 0)
(9.85968 0.343276 0)
(9.779 0.431181 0)
(9.68134 0.522627 0)
(9.56677 0.618654 0)
(9.43521 0.720266 0)
(9.28651 0.828466 0)
(9.12044 0.94424 0)
(8.93669 1.06855 0)
(8.73488 1.20234 0)
(8.51458 1.3465 0)
(8.27526 1.50185 0)
(8.01636 1.66913 0)
(7.73722 1.84884 0)
(7.43708 2.04123 0)
(7.11497 2.24609 0)
(6.76968 2.46257 0)
(6.39956 2.68885 0)
(6.00237 2.92179 0)
(5.57507 3.15637 0)
(5.11361 3.38508 0)
(4.61277 3.59723 0)
(4.06626 3.77833 0)
(3.4672 3.9097 0)
(2.80806 3.96857 0)
(2.09061 3.92822 0)
(1.27212 3.76861 0)
(0.560106 3.40838 0)
(9.99275 0.096271 0)
(9.96854 0.190902 0)
(9.92534 0.285103 0)
(9.86448 0.380398 0)
(9.78708 0.47828 0)
(9.69353 0.580045 0)
(9.58389 0.686834 0)
(9.45811 0.799737 0)
(9.31608 0.919834 0)
(9.15762 1.04819 0)
(8.98245 1.18583 0)
(8.79024 1.3338 0)
(8.58056 1.49305 0)
(8.35291 1.66452 0)
(8.1067 1.84904 0)
(7.8412 2.04726 0)
(7.55552 2.25962 0)
(7.2485 2.48618 0)
(6.91859 2.7265 0)
(6.56372 2.97933 0)
(6.18102 3.24233 0)
(5.76658 3.51157 0)
(5.31511 3.7809 0)
(4.81979 4.04122 0)
(4.27218 4.27955 0)
(3.66285 4.4782 0)
(2.9813 4.61407 0)
(2.22904 4.65721 0)
(1.35843 4.57964 0)
(0.588732 4.27761 0)
(9.99302 0.104952 0)
(9.96974 0.208287 0)
(9.92831 0.311425 0)
(9.87014 0.415929 0)
(9.79635 0.52329 0)
(9.7073 0.634853 0)
(9.60304 0.751843 0)
(9.48357 0.875431 0)
(9.34881 1.00677 0)
(9.19863 1.14698 0)
(9.03281 1.2972 0)
(8.85103 1.45851 0)
(8.65293 1.63199 0)
(8.438 1.81867 0)
(8.20565 2.01951 0)
(7.9551 2.23534 0)
(7.68537 2.46686 0)
(7.39511 2.71447 0)
(7.08253 2.97822 0)
(6.74515 3.25758 0)
(6.37955 3.5512 0)
(5.98103 3.85651 0)
(5.54321 4.16912 0)
(5.05765 4.48199 0)
(4.51359 4.78432 0)
(3.8985 5.06 0)
(3.1974 5.28588 0)
(2.40892 5.42814 0)
(1.47762 5.44838 0)
(0.633942 5.2147 0)
(9.99334 0.113277 0)
(9.97115 0.224914 0)
(9.93174 0.336516 0)
(9.87654 0.449716 0)
(9.80666 0.566023 0)
(9.72246 0.686825 0)
(9.624 0.813415 0)
(9.51132 0.947037 0)
(9.38438 1.08891 0)
(9.2431 1.24022 0)
(9.0873 1.40217 0)
(8.91675 1.57594 0)
(8.7311 1.76269 0)
(8.5299 1.96356 0)
(8.31259 2.17967 0)
(8.07837 2.41207 0)
(7.82622 2.66172 0)
(7.55471 2.92945 0)
(7.26188 3.21587 0)
(6.94503 3.52129 0)
(6.60034 3.84553 0)
(6.22256 4.1876 0)
(5.80439 4.54527 0)
(5.33593 4.91423 0)
(4.80399 5.2868 0)
(4.19209 5.64986 0)
(3.47864 5.98184 0)
(2.65492 6.24619 0)
(1.65131 6.39237 0)
(0.707035 6.25067 0)
(9.99371 0.121186 0)
(9.97274 0.240686 0)
(9.93555 0.360259 0)
(9.88356 0.48162 0)
(9.81786 0.606311 0)
(9.73883 0.735757 0)
(9.64655 0.87131 0)
(9.54107 1.01427 0)
(9.42243 1.16592 0)
(9.2906 1.32752 0)
(9.14546 1.50032 0)
(8.98684 1.68557 0)
(8.81446 1.88454 0)
(8.62795 2.09848 0)
(8.42678 2.32867 0)
(8.21024 2.57637 0)
(7.97734 2.84287 0)
(7.72667 3.12941 0)
(7.45629 3.43725 0)
(7.16345 3.76757 0)
(6.84428 4.12147 0)
(6.49328 4.49978 0)
(6.10273 4.90278 0)
(5.66172 5.32961 0)
(5.15491 5.77709 0)
(4.56153 6.23748 0)
(3.85115 6.69459 0)
(3.00132 7.11411 0)
(1.91515 7.43607 0)
(0.829769 7.43967 0)
(9.99411 0.128633 0)
(9.97447 0.255518 0)
(9.93967 0.382548 0)
(9.89109 0.511516 0)
(9.82983 0.644003 0)
(9.75624 0.78147 0)
(9.67046 0.925315 0)
(9.57256 1.07689 0)
(9.46265 1.23753 0)
(9.34074 1.40854 0)
(9.2068 1.59124 0)
(9.06073 1.78693 0)
(8.90235 1.99698 0)
(8.73137 2.22275 0)
(8.54738 2.46567 0)
(8.34978 2.72721 0)
(8.13771 3.00895 0)
(7.90994 3.31258 0)
(7.66471 3.63996 0)
(7.39951 3.99316 0)
(7.11076 4.37457 0)
(6.7933 4.78689 0)
(6.4397 5.2332 0)
(6.03906 5.71668 0)
(5.57517 6.24014 0)
(5.02408 6.8045 0)
(4.3462 7.40553 0)
(3.49888 8.0235 0)
(2.33448 8.60714 0)
(1.04954 8.88376 0)
(9.99453 0.135581 0)
(9.97631 0.269344 0)
(9.94404 0.403293 0)
(9.89907 0.539298 0)
(9.84243 0.678974 0)
(9.77453 0.823816 0)
(9.69551 0.975261 0)
(9.60552 1.1347 0)
(9.50468 1.30351 0)
(9.3931 1.48303 0)
(9.27082 1.67463 0)
(9.13783 1.87968 0)
(8.99405 2.0996 0)
(8.83933 2.33586 0)
(8.67341 2.59 0)
(8.49586 2.8637 0)
(8.30604 3.1588 0)
(8.10302 3.47734 0)
(7.88542 3.82174 0)
(7.65126 4.19487 0)
(7.39766 4.60026 0)
(7.12046 5.04238 0)
(6.81353 5.52694 0)
(6.46764 6.0614 0)
(6.06837 6.6554 0)
(5.59275 7.32145 0)
(4.99767 8.07543 0)
(4.22252 8.93422 0)
(3.04 9.91296 0)
(1.48215 10.8057 0)
(9.99498 0.142 0)
(9.97824 0.282108 0)
(9.94862 0.422418 0)
(9.90739 0.56486 0)
(9.85556 0.711088 0)
(9.79354 0.862621 0)
(9.72151 1.02093 0)
(9.63967 1.18743 0)
(9.5482 1.36353 0)
(9.44727 1.5506 0)
(9.33701 1.75004 0)
(9.21752 1.96327 0)
(9.08884 2.19175 0)
(8.95097 2.43702 0)
(8.80382 2.70074 0)
(8.6472 2.98471 0)
(8.48079 3.29096 0)
(8.30403 3.62183 0)
(8.1161 3.98015 0)
(7.91579 4.36935 0)
(7.70133 4.79385 0)
(7.47016 5.25942 0)
(7.21855 5.77386 0)
(6.94093 6.34801 0)
(6.62855 6.99754 0)
(6.26742 7.74619 0)
(5.82817 8.63311 0)
(5.26861 9.73061 0)
(4.32267 11.2236 0)
(2.4566 13.7752 0)
(-0.200497 0.215451 0)
(-0.561047 0.323346 0)
(-1.14293 0.353614 0)
(-1.77868 0.364951 0)
(-2.46279 0.364183 0)
(-3.17554 0.355633 0)
(-3.90244 0.341623 0)
(-4.63182 0.323623 0)
(-5.35391 0.302627 0)
(-6.0602 0.279321 0)
(-6.74299 0.254181 0)
(-7.39504 0.227528 0)
(-8.0093 0.199569 0)
(-8.57869 0.170429 0)
(-9.09594 0.140168 0)
(-9.55345 0.108793 0)
(-9.94326 0.0762496 0)
(-10.257 0.0424431 0)
(-10.4859 0.00714162 0)
(-10.6201 -0.0302607 0)
(-10.6497 -0.0713632 0)
(-10.5608 -0.118863 0)
(-10.3333 -0.172757 0)
(-9.9526 -0.233579 0)
(-9.40616 -0.30289 0)
(-8.67508 -0.383079 0)
(-7.70731 -0.478792 0)
(-6.3911 -0.599216 0)
(-4.63967 -0.745742 0)
(-2.79924 -0.862986 0)
(-0.449313 0.640602 0)
(-1.01734 0.813501 0)
(-1.76522 0.893759 0)
(-2.52243 0.940242 0)
(-3.30112 0.960405 0)
(-4.08995 0.961064 0)
(-4.87952 0.94681 0)
(-5.66128 0.92093 0)
(-6.42756 0.88579 0)
(-7.17137 0.843078 0)
(-7.88616 0.793962 0)
(-8.56561 0.739204 0)
(-9.2034 0.679266 0)
(-9.79306 0.614387 0)
(-10.3278 0.544656 0)
(-10.8005 0.470062 0)
(-11.2037 0.390551 0)
(-11.5293 0.306071 0)
(-11.7691 0.216561 0)
(-11.9146 0.121552 0)
(-11.9568 0.0194886 0)
(-11.8878 -0.0910945 0)
(-11.6997 -0.209468 0)
(-11.3838 -0.334997 0)
(-10.9343 -0.468568 0)
(-10.3445 -0.611708 0)
(-9.58921 -0.76867 0)
(-8.6133 -0.95074 0)
(-7.43492 -1.16171 0)
(-6.50848 -1.34479 0)
(-0.550391 1.38326 0)
(-1.22591 1.54869 0)
(-2.06032 1.62574 0)
(-2.8702 1.66741 0)
(-3.68087 1.67591 0)
(-4.4859 1.65752 0)
(-5.28055 1.61744 0)
(-6.05977 1.55992 0)
(-6.81863 1.4882 0)
(-7.5523 1.40466 0)
(-8.25594 1.31101 0)
(-8.92464 1.20837 0)
(-9.55324 1.09745 0)
(-10.1362 0.978683 0)
(-10.6677 0.852305 0)
(-11.1412 0.718497 0)
(-11.5498 0.577452 0)
(-11.8863 0.429497 0)
(-12.143 0.27514 0)
(-12.3122 0.114916 0)
(-12.386 -0.0510998 0)
(-12.358 -0.224234 0)
(-12.2246 -0.406747 0)
(-11.9786 -0.597427 0)
(-11.6188 -0.795303 0)
(-11.1443 -0.998941 0)
(-10.542 -1.20794 0)
(-9.77721 -1.42897 0)
(-8.88369 -1.67384 0)
(-8.23789 -1.91416 0)
(-0.574158 2.21305 0)
(-1.28662 2.35018 0)
(-2.15159 2.39858 0)
(-2.9693 2.41462 0)
(-3.77599 2.39696 0)
(-4.56742 2.35104 0)
(-5.34246 2.28176 0)
(-6.09901 2.19341 0)
(-6.83449 2.08939 0)
(-7.54586 1.97222 0)
(-8.22966 1.84363 0)
(-8.88191 1.70471 0)
(-9.49812 1.55602 0)
(-10.0732 1.39777 0)
(-10.6016 1.2299 0)
(-11.0769 1.05224 0)
(-11.4926 0.864555 0)
(-11.8413 0.666703 0)
(-12.1156 0.458747 0)
(-12.3085 0.241037 0)
(-12.4132 0.0138749 0)
(-12.4217 -0.222765 0)
(-12.3356 -0.467788 0)
(-12.1503 -0.720252 0)
(-11.8663 -0.978031 0)
(-11.4859 -1.23773 0)
(-11.0025 -1.49533 0)
(-10.3946 -1.7535 0)
(-9.69985 -2.02767 0)
(-9.21898 -2.297 0)
(-0.556698 3.06067 0)
(-1.25815 3.15898 0)
(-2.10976 3.16731 0)
(-2.9014 3.14781 0)
(-3.67854 3.09692 0)
(-4.43665 3.01923 0)
(-5.17695 2.91868 0)
(-5.89914 2.79886 0)
(-6.60213 2.66262 0)
(-7.284 2.51199 0)
(-7.94203 2.34824 0)
(-8.57276 2.17208 0)
(-9.17198 1.98374 0)
(-9.73486 1.7832 0)
(-10.2559 1.5703 0)
(-10.7291 1.34488 0)
(-11.1478 1.10693 0)
(-11.505 0.856714 0)
(-11.7937 0.594895 0)
(-12.007 0.322706 0)
(-12.1389 0.0419728 0)
(-12.1827 -0.245178 0)
(-12.1404 -0.540142 0)
(-12.0104 -0.841613 0)
(-11.7942 -1.14572 0)
(-11.4958 -1.44714 0)
(-11.1128 -1.73921 0)
(-10.6332 -2.02163 0)
(-10.0949 -2.30876 0)
(-9.73158 -2.57758 0)
(-0.515033 3.87548 0)
(-1.172 3.93576 0)
(-1.97667 3.90274 0)
(-2.71579 3.8458 0)
(-3.44284 3.76067 0)
(-4.15144 3.65156 0)
(-4.84418 3.52142 0)
(-5.52165 3.37297 0)
(-6.18351 3.20826 0)
(-6.82843 3.02867 0)
(-7.45411 2.83493 0)
(-8.0574 2.6273 0)
(-8.63434 2.4057 0)
(-9.18025 2.16982 0)
(-9.68984 1.91928 0)
(-10.1572 1.65373 0)
(-10.576 1.37299 0)
(-10.9393 1.07718 0)
(-11.2402 0.766947 0)
(-11.4723 0.443901 0)
(-11.6298 0.110985 0)
(-11.7077 -0.228272 0)
(-11.7055 -0.572563 0)
(-11.6265 -0.920805 0)
(-11.4722 -1.26771 0)
(-11.2476 -1.60646 0)
(-10.9528 -1.92855 0)
(-10.583 -2.23106 0)
(-10.1734 -2.52428 0)
(-9.90139 -2.78236 0)
(-0.457803 4.62179 0)
(-1.04564 4.65054 0)
(-1.7778 4.58049 0)
(-2.44355 4.48943 0)
(-3.10348 4.37335 0)
(-3.7485 4.23648 0)
(-4.38216 4.0808 0)
(-5.00527 3.90808 0)
(-5.61776 3.71945 0)
(-6.21847 3.51544 0)
(-6.80527 3.29614 0)
(-7.3751 3.06123 0)
(-7.92412 2.81021 0)
(-8.44779 2.54244 0)
(-8.94098 2.25732 0)
(-9.39804 1.95439 0)
(-9.81286 1.63349 0)
(-10.179 1.29494 0)
(-10.4898 0.939726 0)
(-10.7388 0.570123 0)
(-10.9207 0.190286 0)
(-11.0314 -0.194709 0)
(-11.0669 -0.582379 0)
(-11.0362 -0.971227 0)
(-10.9403 -1.35473 0)
(-10.7844 -1.72492 0)
(-10.5701 -2.07206 0)
(-10.2974 -2.39052 0)
(-9.99787 -2.68498 0)
(-9.80097 -2.92863 0)
(-0.389983 5.2749 0)
(-0.889404 5.28105 0)
(-1.52921 5.18112 0)
(-2.10483 5.06245 0)
(-2.68341 4.92175 0)
(-3.25266 4.76328 0)
(-3.81701 4.58803 0)
(-4.37702 4.3968 0)
(-4.9325 4.18977 0)
(-5.48217 3.96668 0)
(-6.02376 3.72692 0)
(-6.55418 3.46972 0)
(-7.06962 3.19416 0)
(-7.56566 2.89941 0)
(-8.0374 2.58472 0)
(-8.47955 2.24956 0)
(-8.88645 1.8938 0)
(-9.25215 1.51784 0)
(-9.57026 1.12285 0)
(-9.8342 0.711365 0)
(-10.0384 0.288246 0)
(-10.1799 -0.139892 0)
(-10.2502 -0.56737 0)
(-10.2651 -0.992203 0)
(-10.225 -1.40741 0)
(-10.1349 -1.80451 0)
(-9.9967 -2.17319 0)
(-9.81282 -2.50512 0)
(-9.61054 -2.79866 0)
(-9.47897 -3.02718 0)
(-0.314679 5.81671 0)
(-0.709684 5.81051 0)
(-1.24131 5.68935 0)
(-1.71301 5.55169 0)
(-2.19838 5.39481 0)
(-2.68149 5.22282 0)
(-3.16781 5.03551 0)
(-3.65722 4.83273 0)
(-4.14908 4.61373 0)
(-4.64173 4.37752 0)
(-5.13261 4.12293 0)
(-5.61842 3.84874 0)
(-6.09527 3.55378 0)
(-6.55883 3.23707 0)
(-7.00446 2.89781 0)
(-7.42723 2.53545 0)
(-7.82199 2.14987 0)
(-8.18327 1.74157 0)
(-8.50498 1.31183 0)
(-8.78041 0.863351 0)
(-9.00378 0.401224 0)
(-9.17316 -0.0666794 0)
(-9.27386 -0.529905 0)
(-9.331 -0.985367 0)
(-9.34448 -1.42707 0)
(-9.31863 -1.84658 0)
(-9.2546 -2.23379 0)
(-9.15509 -2.57806 0)
(-9.04227 -2.87079 0)
(-8.97068 -3.08482 0)
(-0.233957 6.23297 0)
(-0.510407 6.22563 0)
(-0.920902 6.09281 0)
(-1.27698 5.94636 0)
(-1.65932 5.78342 0)
(-2.0478 5.60758 0)
(-2.44909 5.41704 0)
(-2.86192 5.21062 0)
(-3.28497 4.98678 0)
(-3.71592 4.74392 0)
(-4.15176 4.48043 0)
(-4.58886 4.19478 0)
(-5.02318 3.88569 0)
(-5.4504 3.55216 0)
(-5.86609 3.19347 0)
(-6.2657 2.8091 0)
(-6.64445 2.39897 0)
(-6.99724 1.96364 0)
(-7.31824 1.50446 0)
(-7.60054 1.024 0)
(-7.83795 0.527037 0)
(-8.02827 0.0227155 0)
(-8.15557 -0.472247 0)
(-8.24944 -0.952349 0)
(-8.31282 -1.41477 0)
(-8.34941 -1.85164 0)
(-8.35913 -2.25425 0)
(-8.34268 -2.61062 0)
(-8.31603 -2.90465 0)
(-8.30304 -3.10579 0)
(-0.149455 6.51177 0)
(-0.293966 6.51512 0)
(-0.572361 6.38098 0)
(-0.802386 6.23748 0)
(-1.07377 6.08028 0)
(-1.36097 5.91176 0)
(-1.6722 5.72792 0)
(-2.00431 5.52656 0)
(-2.35492 5.30551 0)
(-2.72089 5.06284 0)
(-3.09864 4.79664 0)
(-3.48414 4.50527 0)
(-3.87309 4.18741 0)
(-4.26114 3.84226 0)
(-4.64413 3.46932 0)
(-5.01788 3.0681 0)
(-5.37786 2.63849 0)
(-5.71905 2.18105 0)
(-6.03535 1.69712 0)
(-6.31897 1.18907 0)
(-6.56195 0.661461 0)
(-6.75971 0.125797 0)
(-6.91644 -0.396857 0)
(-7.03824 -0.896048 0)
(-7.14491 -1.37249 0)
(-7.23956 -1.82032 0)
(-7.32176 -2.23405 0)
(-7.38876 -2.60233 0)
(-7.4488 -2.90148 0)
(-7.49719 -3.09254 0)
(-0.0631674 6.64352 0)
(-0.0621031 6.66923 0)
(-0.198284 6.54516 0)
(-0.292176 6.41804 0)
(-0.446561 6.28029 0)
(-0.627863 6.13147 0)
(-0.846278 5.96485 0)
(-1.09557 5.77788 0)
(-1.37183 5.56768 0)
(-1.67092 5.33231 0)
(-1.98868 5.06975 0)
(-2.32064 4.77847 0)
(-2.66217 4.45724 0)
(-3.00873 4.10563 0)
(-3.35664 3.72376 0)
(-3.70237 3.31094 0)
(-4.04175 2.86688 0)
(-4.36984 2.39184 0)
(-4.68004 1.88692 0)
(-4.9632 1.35445 0)
(-5.20845 0.799489 0)
(-5.40976 0.23672 0)
(-5.58265 -0.308807 0)
(-5.72124 -0.821895 0)
(-5.8606 -1.30455 0)
(-6.00419 -1.75503 0)
(-6.15355 -2.17319 0)
(-6.30313 -2.55157 0)
(-6.45254 -2.86053 0)
(-6.56998 -3.0461 0)
(0.0247575 6.62015 0)
(0.181037 6.67483 0)
(0.201649 6.57615 0)
(0.249593 6.48166 0)
(0.217921 6.38056 0)
(0.145222 6.26637 0)
(0.0223931 6.13031 0)
(-0.144249 5.96628 0)
(-0.346866 5.77375 0)
(-0.578875 5.55173 0)
(-0.835928 5.29815 0)
(-1.11323 5.01176 0)
(-1.40582 4.69218 0)
(-1.70848 4.33993 0)
(-2.01816 3.95485 0)
(-2.33256 3.53603 0)
(-2.6482 3.08293 0)
(-2.9609 2.59511 0)
(-3.26437 2.07299 0)
(-3.54815 1.51951 0)
(-3.79678 0.940113 0)
(-3.9993 0.351116 0)
(-4.17924 -0.217041 0)
(-4.32493 -0.738315 0)
(-4.48594 -1.21861 0)
(-4.66516 -1.66188 0)
(-4.86971 -2.07451 0)
(-5.09532 -2.45718 0)
(-5.33496 -2.77921 0)
(-5.53477 -2.96614 0)
(0.119053 6.43334 0)
(0.438495 6.52053 0)
(0.631641 6.46412 0)
(0.823149 6.42284 0)
(0.915203 6.37722 0)
(0.9467 6.31175 0)
(0.915865 6.2174 0)
(0.832987 6.08866 0)
(0.705752 5.92395 0)
(0.542305 5.72336 0)
(0.348282 5.48636 0)
(0.129024 5.21267 0)
(-0.112503 4.89974 0)
(-0.372195 4.54663 0)
(-0.641414 4.16084 0)
(-0.92006 3.73967 0)
(-1.20576 3.2817 0)
(-1.49597 2.78521 0)
(-1.78627 2.25075 0)
(-2.06677 1.67906 0)
(-2.32005 1.07248 0)
(-2.52812 0.454748 0)
(-2.71852 -0.129983 0)
(-2.86962 -0.654048 0)
(-3.04815 -1.12423 0)
(-3.2511 -1.55091 0)
(-3.49347 -1.94525 0)
(-3.77927 -2.32059 0)
(-4.10118 -2.65407 0)
(-4.40158 -2.85094 0)
(0.215395 6.08417 0)
(0.71513 6.20458 0)
(1.09924 6.2102 0)
(1.43733 6.24785 0)
(1.64768 6.27713 0)
(1.77396 6.27395 0)
(1.82741 6.23085 0)
(1.82181 6.1442 0)
(1.76616 6.01317 0)
(1.669 5.8388 0)
(1.53706 5.62225 0)
(1.37624 5.36456 0)
(1.19086 5.06575 0)
(0.983689 4.72453 0)
(0.760684 4.34513 0)
(0.524729 3.9285 0)
(0.278117 3.4743 0)
(0.0239634 2.98139 0)
(-0.239862 2.44111 0)
(-0.507451 1.86036 0)
(-0.74804 1.24441 0)
(-0.953736 0.590042 0)
(-1.19816 -0.039807 0)
(-1.36291 -0.567703 0)
(-1.56423 -1.02364 0)
(-1.78935 -1.42887 0)
(-2.05538 -1.79505 0)
(-2.379 -2.14872 0)
(-2.75795 -2.48403 0)
(-3.17659 -2.69865 0)
(9.99545 0.147973 0)
(9.98027 0.293986 0)
(9.95345 0.440205 0)
(9.91616 0.588614 0)
(9.86939 0.740894 0)
(9.81356 0.898584 0)
(9.74889 1.06317 0)
(9.67563 1.2361 0)
(9.59404 1.41878 0)
(9.50436 1.61262 0)
(9.40682 1.81902 0)
(9.30162 2.03942 0)
(9.18895 2.27532 0)
(9.06898 2.52829 0)
(8.94183 2.80005 0)
(8.80759 3.09248 0)
(8.66631 3.40772 0)
(8.51791 3.74829 0)
(8.36226 4.11721 0)
(8.19911 4.51824 0)
(8.02807 4.95621 0)
(7.8487 5.4375 0)
(7.66053 5.97082 0)
(7.46333 6.5684 0)
(7.25771 7.24826 0)
(7.04773 8.03824 0)
(6.84489 8.98461 0)
(6.73192 10.1678 0)
(7.07164 11.7102 0)
(7.16173 14.1205 0)
(9.99594 0.153512 0)
(9.98242 0.304986 0)
(9.95854 0.456641 0)
(9.92538 0.610501 0)
(9.88389 0.768268 0)
(9.83449 0.931495 0)
(9.77746 1.10168 0)
(9.7131 1.28027 0)
(9.64173 1.46869 0)
(9.56368 1.66835 0)
(9.47927 1.88064 0)
(9.38884 2.10701 0)
(9.29272 2.34896 0)
(9.19126 2.60806 0)
(9.08483 2.88603 0)
(8.97382 3.18477 0)
(8.85866 3.50642 0)
(8.73981 3.85351 0)
(8.61785 4.22905 0)
(8.49354 4.63676 0)
(8.36796 5.08135 0)
(8.24276 5.56889 0)
(8.12074 6.10743 0)
(8.00683 6.70774 0)
(7.91018 7.38446 0)
(7.84956 8.15725 0)
(7.85818 9.05074 0)
(7.98368 10.0906 0)
(8.46893 11.2161 0)
(8.75822 12.1553 0)
(9.99646 0.158521 0)
(9.98466 0.314933 0)
(9.96384 0.471489 0)
(9.93498 0.63024 0)
(9.89896 0.792899 0)
(9.85623 0.961023 0)
(9.8071 1.13611 0)
(9.75191 1.3196 0)
(9.69106 1.5129 0)
(9.62496 1.71741 0)
(9.55402 1.9345 0)
(9.47871 2.16561 0)
(9.39953 2.41218 0)
(9.317 2.67576 0)
(9.23175 2.95802 0)
(9.14444 3.26078 0)
(9.05591 3.5861 0)
(8.96713 3.93634 0)
(8.87935 4.31429 0)
(8.79423 4.7233 0)
(8.71405 5.16743 0)
(8.64214 5.65168 0)
(8.58347 6.18215 0)
(8.54572 6.76608 0)
(8.54065 7.41147 0)
(8.58643 8.12523 0)
(8.70807 8.90748 0)
(8.90759 9.74618 0)
(9.30078 10.5898 0)
(9.72961 11.2425 0)
(9.99699 0.162945 0)
(9.98697 0.32371 0)
(9.96931 0.484566 0)
(9.94488 0.647577 0)
(9.9145 0.814457 0)
(9.87862 0.986755 0)
(9.83758 1.16595 0)
(9.79179 1.35348 0)
(9.74169 1.55072 0)
(9.68776 1.75903 0)
(9.63054 1.97975 0)
(9.5706 2.21425 0)
(9.50857 2.46392 0)
(9.44518 2.73023 0)
(9.38125 3.01473 0)
(9.31776 3.31911 0)
(9.25587 3.64523 0)
(9.19698 3.99517 0)
(9.1429 4.3713 0)
(9.09595 4.77635 0)
(9.05923 5.21342 0)
(9.03696 5.68602 0)
(9.03493 6.1979 0)
(9.06108 6.75266 0)
(9.12593 7.35283 0)
(9.24267 7.99816 0)
(9.42912 8.68234 0)
(9.68698 9.3931 0)
(10.0782 10.1231 0)
(10.6238 10.7708 0)
(9.99754 0.166732 0)
(9.98934 0.331214 0)
(9.97491 0.495722 0)
(9.95502 0.662314 0)
(9.93039 0.832697 0)
(9.90148 1.0084 0)
(9.86867 1.19088 0)
(9.83242 1.38154 0)
(9.79321 1.58171 0)
(9.7516 1.7927 0)
(9.70821 2.0158 0)
(9.66371 2.2523 0)
(9.61888 2.50348 0)
(9.57458 2.7707 0)
(9.53186 3.05536 0)
(9.49189 3.35893 0)
(9.45613 3.68299 0)
(9.42631 4.02927 0)
(9.40459 4.39959 0)
(9.3937 4.79594 0)
(9.39711 5.22038 0)
(9.41929 5.67493 0)
(9.46593 6.1613 0)
(9.54424 6.68051 0)
(9.66303 7.23213 0)
(9.83252 7.81351 0)
(10.0667 8.4187 0)
(10.3724 9.0368 0)
(10.773 9.66178 0)
(11.3221 10.2265 0)
(9.9981 0.169831 0)
(9.99175 0.33735 0)
(9.9806 0.504813 0)
(9.9653 0.674264 0)
(9.94649 0.847386 0)
(9.92464 1.02568 0)
(9.90014 1.21057 0)
(9.87348 1.4034 0)
(9.84522 1.60546 0)
(9.81594 1.81799 0)
(9.78636 2.0422 0)
(9.75722 2.27926 0)
(9.72941 2.53035 0)
(9.70394 2.79667 0)
(9.68198 3.07942 0)
(9.66488 3.37982 0)
(9.65428 3.69913 0)
(9.65212 4.03864 0)
(9.66075 4.39963 0)
(9.68303 4.78332 0)
(9.72247 5.19079 0)
(9.78338 5.62281 0)
(9.87092 6.07961 0)
(9.99128 6.56048 0)
(10.1517 7.06336 0)
(10.3599 7.5843 0)
(10.6253 8.11673 0)
(10.9536 8.64897 0)
(11.3475 9.16989 0)
(11.8636 9.64198 0)
(9.99866 0.172199 0)
(9.99418 0.342027 0)
(9.98633 0.511708 0)
(9.97566 0.683252 0)
(9.9627 0.858311 0)
(9.94791 1.03834 0)
(9.93173 1.22472 0)
(9.91465 1.41875 0)
(9.89726 1.62162 0)
(9.88022 1.83452 0)
(9.86427 2.05853 0)
(9.85025 2.29473 0)
(9.8391 2.54415 0)
(9.83194 2.80779 0)
(9.83001 3.08665 0)
(9.8348 3.38168 0)
(9.848 3.69378 0)
(9.87165 4.02381 0)
(9.90812 4.3725 0)
(9.96022 4.74039 0)
(10.0313 5.12773 0)
(10.1251 5.53434 0)
(10.2462 5.95934 0)
(10.3996 6.40094 0)
(10.5906 6.85605 0)
(10.8248 7.31991 0)
(11.1076 7.78574 0)
(11.4423 8.24336 0)
(11.8251 8.6826 0)
(12.3108 9.08526 0)
(9.99922 0.173794 0)
(9.9966 0.345165 0)
(9.99206 0.516287 0)
(9.986 0.689125 0)
(9.97888 0.865283 0)
(9.97111 1.04617 0)
(9.96317 1.2331 0)
(9.95556 1.4273 0)
(9.9489 1.62991 0)
(9.94387 1.84198 0)
(9.94125 2.06452 0)
(9.94192 2.29845 0)
(9.94688 2.54465 0)
(9.95727 2.80394 0)
(9.97441 3.07706 0)
(9.99979 3.36471 0)
(10.0351 3.66744 0)
(10.0824 3.98569 0)
(10.1439 4.31971 0)
(10.2223 4.66948 0)
(10.3204 5.03458 0)
(10.4416 5.41413 0)
(10.5895 5.80654 0)
(10.7679 6.20937 0)
(10.9807 6.61911 0)
(11.2313 7.03095 0)
(11.5226 7.43879 0)
(11.8566 7.83484 0)
(12.2277 8.2111 0)
(12.6862 8.55772 0)
(9.99977 0.174581 0)
(9.99901 0.346695 0)
(9.99775 0.518449 0)
(9.99625 0.691748 0)
(9.99488 0.868143 0)
(9.99405 1.04898 0)
(9.9942 1.23551 0)
(9.99588 1.42887 0)
(9.99968 1.63011 0)
(10.0063 1.8402 0)
(10.0166 2.05999 0)
(10.0314 2.29029 0)
(10.0517 2.53181 0)
(10.0787 2.78517 0)
(10.1137 3.0509 0)
(10.1582 3.3294 0)
(10.2138 3.62092 0)
(10.2823 3.92556 0)
(10.3659 4.24313 0)
(10.4669 4.57316 0)
(10.5878 4.91479 0)
(10.7312 5.26665 0)
(10.9 5.62676 0)
(11.0968 5.99242 0)
(11.3243 6.36011 0)
(11.5846 6.72545 0)
(11.8789 7.08326 0)
(12.2081 7.42752 0)
(12.5663 7.75191 0)
(12.9988 8.05035 0)
(10.0003 0.17453 0)
(10.0014 0.346557 0)
(10.0033 0.518108 0)
(10.0063 0.691016 0)
(10.0106 0.866766 0)
(10.0165 1.04663 0)
(10.0246 1.23179 0)
(10.0352 1.42329 0)
(10.0492 1.6221 0)
(10.067 1.82905 0)
(10.0896 2.04489 0)
(10.1178 2.27028 0)
(10.1526 2.50576 0)
(10.1951 2.75177 0)
(10.2467 3.00862 0)
(10.3085 3.27647 0)
(10.3823 3.55531 0)
(10.4697 3.8449 0)
(10.5724 4.14477 0)
(10.6925 4.45412 0)
(10.8321 4.77176 0)
(10.9931 5.09606 0)
(11.1776 5.4249 0)
(11.3875 5.75556 0)
(11.6244 6.08476 0)
(11.8894 6.40865 0)
(12.1827 6.72289 0)
(12.5043 7.02279 0)
(12.8487 7.30345 0)
(13.2571 7.56095 0)
(10.0009 0.173618 0)
(10.0037 0.344706 0)
(10.0088 0.515199 0)
(10.0161 0.686848 0)
(10.0259 0.861059 0)
(10.0384 1.03904 0)
(10.054 1.22186 0)
(10.0734 1.4105 0)
(10.0969 1.60582 0)
(10.1255 1.80853 0)
(10.1597 2.01928 0)
(10.2005 2.23856 0)
(10.2487 2.46677 0)
(10.3056 2.70417 0)
(10.3721 2.95088 0)
(10.4496 3.20685 0)
(10.5395 3.47184 0)
(10.6432 3.74539 0)
(10.7622 4.02678 0)
(10.8981 4.315 0)
(11.0526 4.60869 0)
(11.2271 4.90612 0)
(11.4231 5.20515 0)
(11.6418 5.50323 0)
(11.8839 5.79741 0)
(12.1499 6.08437 0)
(12.4394 6.36057 0)
(12.7518 6.62233 0)
(13.0821 6.86598 0)
(13.4682 7.08888 0)
(10.0014 0.171828 0)
(10.0059 0.341111 0)
(10.014 0.509679 0)
(10.0256 0.679189 0)
(10.0406 0.850968 0)
(10.0594 1.02613 0)
(10.0823 1.20568 0)
(10.1099 1.39049 0)
(10.1426 1.5813 0)
(10.1812 1.77874 0)
(10.2263 1.98332 0)
(10.2787 2.1954 0)
(10.3393 2.41525 0)
(10.4091 2.64296 0)
(10.4892 2.87848 0)
(10.5805 3.1216 0)
(10.6843 3.3719 0)
(10.8019 3.62875 0)
(10.9345 3.89128 0)
(11.0832 4.15836 0)
(11.2493 4.42856 0)
(11.4339 4.70015 0)
(11.6378 4.9711 0)
(11.8617 5.23909 0)
(12.1058 5.50152 0)
(12.3701 5.75563 0)
(12.6538 5.99855 0)
(12.9561 6.22742 0)
(13.2725 6.43947 0)
(13.638 6.6329 0)
(10.0019 0.169151 0)
(10.0081 0.335752 0)
(10.0191 0.501522 0)
(10.0347 0.668017 0)
(10.0547 0.836474 0)
(10.0795 1.00793 0)
(10.1093 1.18328 0)
(10.1446 1.36331 0)
(10.1859 1.54866 0)
(10.2338 1.73986 0)
(10.2889 1.93729 0)
(10.352 2.1412 0)
(10.4238 2.35173 0)
(10.5052 2.56883 0)
(10.5971 2.79234 0)
(10.7005 3.02188 0)
(10.8163 3.25693 0)
(10.9454 3.49675 0)
(11.089 3.74037 0)
(11.2478 3.98661 0)
(11.4227 4.23407 0)
(11.6143 4.48108 0)
(11.8232 4.72579 0)
(12.0495 4.96612 0)
(12.2931 5.19988 0)
(12.5537 5.42475 0)
(12.8304 5.63845 0)
(13.1221 5.83877 0)
(13.4248 6.0236 0)
(13.771 6.1917 0)
(10.0023 0.165584 0)
(10.0101 0.328626 0)
(10.0239 0.490728 0)
(10.0433 0.653336 0)
(10.0681 0.817597 0)
(10.0984 0.984452 0)
(10.1347 1.15472 0)
(10.1772 1.32907 0)
(10.2265 1.50807 0)
(10.2829 1.69213 0)
(10.3472 1.88154 0)
(10.4199 2.07643 0)
(10.5017 2.27683 0)
(10.5934 2.4826 0)
(10.6956 2.69345 0)
(10.8092 2.90893 0)
(10.935 3.12841 0)
(11.0736 3.3511 0)
(11.2258 3.57602 0)
(11.3922 3.80198 0)
(11.5734 4.02763 0)
(11.7696 4.25146 0)
(11.981 4.47178 0)
(12.2075 4.6868 0)
(12.4488 4.89467 0)
(12.7043 5.09349 0)
(12.973 5.28145 0)
(13.2538 5.45683 0)
(13.5434 5.61806 0)
(13.8716 5.76425 0)
(10.0028 0.16113 0)
(10.012 0.319742 0)
(10.0284 0.477312 0)
(10.0514 0.635178 0)
(10.0806 0.794388 0)
(10.1162 0.955797 0)
(10.1584 1.12013 0)
(10.2076 1.28797 0)
(10.2641 1.45979 0)
(10.3284 1.6359 0)
(10.4009 1.8165 0)
(10.4821 2.00165 0)
(10.5727 2.19126 0)
(10.6732 2.38512 0)
(10.7843 2.58286 0)
(10.9065 2.78397 0)
(11.0404 2.98779 0)
(11.1865 3.19348 0)
(11.3454 3.40009 0)
(11.5173 3.60648 0)
(11.7026 3.8114 0)
(11.9012 4.01347 0)
(12.1132 4.21122 0)
(12.3382 4.40313 0)
(12.5758 4.58764 0)
(12.8252 4.76322 0)
(13.0854 4.92842 0)
(13.3553 5.08192 0)
(13.632 5.22254 0)
(13.9435 5.34966 0)
(10.0032 0.1558 0)
(10.0138 0.309122 0)
(10.0326 0.461314 0)
(10.0589 0.6136 0)
(10.0922 0.766934 0)
(10.1327 0.922081 0)
(10.1804 1.07968 0)
(10.2356 1.24022 0)
(10.2987 1.4041 0)
(10.3699 1.57154 0)
(10.4497 1.74266 0)
(10.5385 1.91745 0)
(10.6367 2.09575 0)
(10.7448 2.27728 0)
(10.8633 2.46162 0)
(10.9925 2.64824 0)
(11.1329 2.83645 0)
(11.2847 3.02544 0)
(11.4484 3.21429 0)
(11.624 3.40193 0)
(11.8115 3.58725 0)
(12.0109 3.76901 0)
(12.222 3.94594 0)
(12.4442 4.11676 0)
(12.6769 4.28018 0)
(12.9195 4.43497 0)
(13.1709 4.57998 0)
(13.43 4.71421 0)
(13.6944 4.83676 0)
(13.9901 4.94722 0)
(10.0036 0.149611 0)
(10.0155 0.296799 0)
(10.0365 0.442786 0)
(10.0658 0.588683 0)
(10.1029 0.735349 0)
(10.1478 0.88346 0)
(10.2004 1.03357 0)
(10.2611 1.1861 0)
(10.3301 1.34135 0)
(10.4075 1.49949 0)
(10.4937 1.66056 0)
(10.589 1.82448 0)
(10.6937 1.99106 0)
(10.8081 2.15997 0)
(10.9326 2.33078 0)
(11.0674 2.50292 0)
(11.2128 2.67573 0)
(11.3689 2.84843 0)
(11.5358 3.02015 0)
(11.7135 3.18995 0)
(11.9018 3.35681 0)
(12.1006 3.51966 0)
(12.3095 3.67742 0)
(12.5278 3.82901 0)
(12.7551 3.97338 0)
(12.9904 4.10955 0)
(13.2328 4.23661 0)
(13.4814 4.3538 0)
(13.7338 4.46044 0)
(14.0148 4.55626 0)
(10.0039 0.142584 0)
(10.017 0.282818 0)
(10.04 0.4218 0)
(10.0721 0.560529 0)
(10.1127 0.699771 0)
(10.1615 0.840117 0)
(10.2186 0.982043 0)
(10.2842 1.1259 0)
(10.3583 1.27191 0)
(10.4411 1.42019 0)
(10.5328 1.57073 0)
(10.6337 1.7234 0)
(10.7438 1.87797 0)
(10.8634 2.03409 0)
(10.9927 2.19132 0)
(11.1318 2.34912 0)
(11.2809 2.50683 0)