/*--------------------------------*- C++ -*----------------------------------*\
  =========                 |
  \\      /  F ield         | OpenFOAM: The Open Source CFD Toolbox
   \\    /   O peration     | Website:  https://openfoam.org
    \\  /    A nd           | Version:  7
     \\/     M anipulation  |
\*---------------------------------------------------------------------------*/
FoamFile
{
    version     2.0;
    format      ascii;
    class       surfaceVectorField;
    location    "0.9";
    object      Uf;
}
// * * * * * * * * * * * * * * * * * * * * * * * * * * * * * * * * * * * * * //

dimensions      [0 1 -1 0 0 0 0];

internalField   nonuniform List<vector> 
5457
(
(9.91958 0.0255734 0)
(9.97072 0.0393841 0)
(9.82023 0.0335995 0)
(9.92634 0.0498315 0)
(9.70225 0.0403836 0)
(9.85021 0.0606065 0)
(9.5635 0.0473702 0)
(9.74741 0.0729949 0)
(9.404 0.0545814 0)
(9.62308 0.085948 0)
(9.22395 0.062057 0)
(9.47828 0.0993691 0)
(9.02314 0.0699408 0)
(9.31237 0.113501 0)
(8.80103 0.0783796 0)
(9.1246 0.128583 0)
(8.5568 0.0875012 0)
(8.91427 0.144808 0)
(8.28945 0.0974261 0)
(8.68052 0.162349 0)
(7.99782 0.108275 0)
(8.4223 0.181375 0)
(7.68062 0.12017 0)
(8.13839 0.202051 0)
(7.33647 0.133229 0)
(7.82742 0.224525 0)
(6.96394 0.14756 0)
(7.48796 0.248916 0)
(6.56166 0.163249 0)
(7.11855 0.275294 0)
(6.12844 0.180344 0)
(6.71784 0.303645 0)
(5.66339 0.198832 0)
(6.28467 0.333833 0)
(5.16619 0.218604 0)
(5.81827 0.365547 0)
(4.63733 0.239421 0)
(5.3185 0.398235 0)
(4.07843 0.260861 0)
(4.78615 0.43103 0)
(3.49266 0.28227 0)
(4.2233 0.462682 0)
(2.88511 0.302715 0)
(3.63374 0.491491 0)
(2.26315 0.321008 0)
(3.0234 0.515313 0)
(1.63651 0.33623 0)
(2.40088 0.53176 0)
(1.01582 0.350393 0)
(1.77747 0.539446 0)
(0.405304 0.331742 0)
(1.17852 0.543446 0)
(-0.157427 0.104607 0)
(0.57248 0.513023 0)
(-0.420335 -0.184486 0)
(0.0722328 0.245482 0)
(-0.385572 -0.336736 0)
(-0.128348 -0.033244 0)
(-0.116352 -0.377644 0)
(9.9951 0.0530826 0)
(9.99653 0.0417829 0)
(9.95497 0.0731769 0)
(9.97627 0.06996 0)
(9.89082 0.0911677 0)
(9.92854 0.0935614 0)
(9.80456 0.109986 0)
(9.8552 0.118379 0)
(9.69606 0.129693 0)
(9.76003 0.144411 0)
(9.56528 0.150336 0)
(9.64418 0.171544 0)
(9.41199 0.172214 0)
(9.50727 0.200148 0)
(9.23566 0.195649 0)
(9.34867 0.230666 0)
(9.0355 0.220924 0)
(9.16776 0.263484 0)
(8.81053 0.248298 0)
(8.96378 0.298959 0)
(8.55961 0.278021 0)
(8.73578 0.337437 0)
(8.28141 0.310327 0)
(8.48262 0.37926 0)
(7.97452 0.345419 0)
(8.203 0.424742 0)
(7.63744 0.38344 0)
(7.89553 0.474145 0)
(7.2687 0.424436 0)
(7.55878 0.527638 0)
(6.86694 0.468303 0)
(7.1913 0.585235 0)
(6.43108 0.514717 0)
(6.7918 0.646715 0)
(5.96051 0.56304 0)
(6.35923 0.711513 0)
(5.45539 0.612224 0)
(5.89306 0.778586 0)
(4.91698 0.66069 0)
(5.39352 0.846258 0)
(4.34807 0.706219 0)
(4.86197 0.912049 0)
(3.75347 0.745852 0)
(4.30135 0.972507 0)
(3.14066 0.77586 0)
(3.71681 1.02305 0)
(2.52072 0.791817 0)
(3.11646 1.05783 0)
(1.91117 0.788715 0)
(2.51242 1.06921 0)
(1.34796 0.747766 0)
(1.92673 1.04478 0)
(0.879238 0.611564 0)
(1.36766 0.940344 0)
(0.411615 0.339641 0)
(0.889541 0.682111 0)
(0.0565924 -0.13699 0)
(0.43074 0.306266 0)
(0.158461 -0.322215 0)
(9.98775 0.0618032 0)
(9.99429 0.0477837 0)
(9.95059 0.0933563 0)
(9.97147 0.0885959 0)
(9.89002 0.123356 0)
(9.92466 0.124678 0)
(9.8087 0.154596 0)
(9.85435 0.161162 0)
(9.70705 0.187412 0)
(9.76319 0.199184 0)
(9.58501 0.221963 0)
(9.65237 0.238895 0)
(9.44242 0.258663 0)
(9.52179 0.280747 0)
(9.2789 0.297993 0)
(9.37102 0.325328 0)
(9.09386 0.340402 0)
(9.19961 0.373196 0)
(8.8865 0.386321 0)
(9.00698 0.424877 0)
(8.65585 0.436169 0)
(8.79241 0.480888 0)
(8.40078 0.49035 0)
(8.555 0.541738 0)
(8.12002 0.549225 0)
(8.29372 0.607909 0)
(7.8122 0.613067 0)
(8.00743 0.679822 0)
(7.4759 0.682003 0)
(7.69492 0.75778 0)
(7.10972 0.755927 0)
(7.35493 0.841888 0)
(6.71239 0.83438 0)
(6.98623 0.931941 0)
(6.28292 0.916403 0)
(6.58772 1.02726 0)
(5.82086 1.00035 0)
(6.15857 1.12652 0)
(5.32658 1.08368 0)
(5.69843 1.22745 0)
(4.80171 1.16273 0)
(5.20774 1.32663 0)
(4.24968 1.23243 0)
(4.68814 1.41909 0)
(3.67645 1.28605 0)
(4.143 1.498 0)
(3.09173 1.31458 0)
(3.57813 1.55401 0)
(2.51075 1.30513 0)
(3.00238 1.57414 0)
(1.9552 1.23241 0)
(2.42981 1.53929 0)
(1.43419 1.05121 0)
(1.86922 1.41534 0)
(0.923279 0.728165 0)
(1.33554 1.15915 0)
(0.455041 0.188408 0)
(0.801992 0.754046 0)
(0.402632 0.123469 0)
(9.98387 0.0749152 0)
(9.99315 0.0556819 0)
(9.94665 0.119024 0)
(9.96866 0.107266 0)
(9.8871 0.161526 0)
(9.92173 0.155267 0)
(9.80708 0.204863 0)
(9.85264 0.203263 0)
(9.70735 0.249881 0)
(9.76331 0.252922 0)
(9.58799 0.297039 0)
(9.6548 0.304769 0)
(9.44892 0.346922 0)
(9.52715 0.359355 0)
(9.28993 0.400178 0)
(9.3801 0.41737 0)
(9.11063 0.457432 0)
(9.2133 0.479507 0)
(8.91046 0.51929 0)
(9.02636 0.546427 0)
(8.68876 0.586346 0)
(8.81875 0.618777 0)
(8.4447 0.659177 0)
(8.58981 0.697199 0)
(8.17738 0.738312 0)
(8.33881 0.782306 0)
(7.88581 0.824186 0)
(8.06491 0.874647 0)
(7.5689 0.917068 0)
(7.76723 0.974649 0)
(7.22558 1.01695 0)
(7.44485 1.08252 0)
(6.85477 1.1234 0)
(7.0968 1.19812 0)
(6.45553 1.23535 0)
(6.72218 1.3208 0)
(6.02713 1.35088 0)
(6.32015 1.44909 0)
(5.56937 1.46685 0)
(5.89007 1.58049 0)
(5.08276 1.57861 0)
(5.43168 1.71098 0)
(4.56905 1.67951 0)
(4.94536 1.83467 0)
(4.03173 1.76044 0)
(4.43247 1.94319 0)
(3.47663 1.80895 0)
(3.89576 2.02506 0)
(2.91203 1.80791 0)
(3.33953 2.06484 0)
(2.34708 1.73141 0)
(2.77017 2.04217 0)
(1.78437 1.54477 0)
(2.19163 1.92834 0)
(1.21669 1.22431 0)
(1.60807 1.68921 0)
(0.63676 0.747058 0)
(0.990989 1.30863 0)
(0.492052 0.747137 0)
(9.98209 0.0886424 0)
(9.99265 0.0644524 0)
(9.94447 0.143757 0)
(9.96737 0.126133 0)
(9.88589 0.197516 0)
(9.92058 0.185362 0)
(9.80733 0.252084 0)
(9.85279 0.244596 0)
(9.70956 0.308664 0)
(9.76549 0.305606 0)
(9.59275 0.367962 0)
(9.65951 0.369234 0)
(9.45685 0.430676 0)
(9.53495 0.436173 0)
(9.30168 0.497546 0)
(9.39161 0.507198 0)
(9.12696 0.569303 0)
(9.22923 0.583103 0)
(8.93226 0.646656 0)
(9.04747 0.664658 0)
(8.71706 0.730301 0)
(8.84591 0.752615 0)
(8.48077 0.820915 0)
(8.62405 0.847712 0)
(8.22272 0.91913 0)
(8.3813 0.950657 0)
(7.9422 1.02548 0)
(8.11703 1.06209 0)
(7.63843 1.14033 0)
(7.83059 1.18253 0)
(7.31064 1.26376 0)
(7.52126 1.31226 0)
(6.95803 1.3954 0)
(7.18833 1.45125 0)
(6.5798 1.53422 0)
(6.83102 1.59888 0)
(6.17519 1.67819 0)
(6.44856 1.75376 0)
(5.74359 1.82397 0)
(6.0401 1.91334 0)
(5.28466 1.9664 0)
(5.60485 2.07347 0)
(4.79856 2.098 0)
(5.1421 2.22792 0)
(4.28616 2.20835 0)
(4.65136 2.36773 0)
(3.74928 2.28343 0)
(4.13254 2.48065 0)
(3.19042 2.30486 0)
(3.58597 2.55055 0)
(2.61192 2.24868 0)
(3.01254 2.55712 0)
(2.01253 2.08653 0)
(2.41178 2.47479 0)
(1.38454 1.79813 0)
(1.78445 2.27558 0)
(0.71654 1.3594 0)
(1.09691 1.94745 0)
(0.51792 1.44894 0)
(9.98136 0.102664 0)
(9.99248 0.0735796 0)
(9.94371 0.168216 0)
(9.96704 0.145018 0)
(9.8863 0.232916 0)
(9.92081 0.214855 0)
(9.80961 0.298626 0)
(9.85461 0.284944 0)
(9.71426 0.366663 0)
(9.76971 0.356982 0)
(9.60048 0.437904 0)
(9.66674 0.432029 0)
(9.46824 0.513148 0)
(9.5458 0.510923 0)
(9.31738 0.593221 0)
(9.40674 0.594528 0)
(9.14767 0.678949 0)
(9.24934 0.683726 0)
(8.95875 0.771141 0)
(9.07333 0.779379 0)
(8.75019 0.870585 0)
(8.87833 0.882329 0)
(8.52149 0.978048 0)
(8.66391 0.993393 0)
(8.2721 1.09424 0)
(8.42957 1.11336 0)
(8.00144 1.21979 0)
(8.17477 1.24294 0)
(7.70891 1.35513 0)
(7.89892 1.38272 0)
(7.39387 1.50043 0)
(7.60142 1.53307 0)
(7.05564 1.65541 0)
(7.2816 1.69405 0)
(6.69346 1.81912 0)
(6.93872 1.86516 0)
(6.30649 1.98963 0)
(6.5719 2.04515 0)
(5.89375 2.16365 0)
(6.18007 2.23165 0)
(5.45413 2.33601 0)
(5.76187 2.42071 0)
(4.9864 2.49909 0)
(5.31565 2.6063 0)
(4.48923 2.64222 0)
(4.83934 2.77965 0)
(3.96124 2.75112 0)
(4.33053 2.9287 0)
(3.40089 2.80758 0)
(3.78646 3.03756 0)
(2.8062 2.78933 0)
(3.20428 3.08647 0)
(2.17321 2.67125 0)
(2.5802 3.05186 0)
(1.49552 2.4345 0)
(1.91469 2.90835 0)
(0.768193 2.04954 0)
(1.17042 2.64299 0)
(0.533862 2.20134 0)
(9.98123 0.116723 0)
(9.9925 0.0827724 0)
(9.94398 0.192286 0)
(9.96734 0.163698 0)
(9.88799 0.267472 0)
(9.92207 0.243619 0)
(9.81352 0.343926 0)
(9.85779 0.324125 0)
(9.72105 0.423006 0)
(9.77564 0.40681 0)
(9.61081 0.505733 0)
(9.67614 0.492868 0)
(9.48281 0.593021 0)
(9.55935 0.583273 0)
(9.33693 0.68579 0)
(9.42519 0.67898 0)
(9.17295 0.784952 0)
(9.27348 0.780951 0)
(8.99057 0.891403 0)
(9.10396 0.890133 0)
(8.78939 1.00601 0)
(8.91633 1.00745 0)
(8.56898 1.12963 0)
(8.71017 1.13379 0)
(8.32883 1.26302 0)
(8.48503 1.27003 0)
(8.06841 1.4069 0)
(8.2404 1.41694 0)
(7.78714 1.56176 0)
(7.9757 1.5752 0)
(7.48439 1.72788 0)
(7.69032 1.74527 0)
(7.15943 1.90509 0)
(7.38353 1.92732 0)
(6.81142 2.09262 0)
(7.05446 2.12103 0)
(6.43925 2.28875 0)
(6.70203 2.32539 0)
(6.04153 2.49051 0)
(6.32479 2.53837 0)
(5.61639 2.69309 0)
(5.92083 2.75652 0)
(5.16136 2.88935 0)
(5.48754 2.9744 0)
(4.67333 3.06911 0)
(5.02151 3.18401 0)
(4.14848 3.21867 0)
(4.51842 3.37408 0)
(3.58234 3.32049 0)
(3.97307 3.5296 0)
(2.97003 3.35332 0)
(3.37983 3.63151 0)
(2.30627 3.29307 0)
(2.73234 3.65699 0)
(1.58673 3.11991 0)
(2.03192 3.58021 0)
(0.811889 2.79501 0)
(1.23769 3.38397 0)
(0.550646 2.99654 0)
(9.98146 0.130606 0)
(9.99265 0.0918505 0)
(9.94502 0.215789 0)
(9.96808 0.181976 0)
(9.89072 0.300992 0)
(9.92414 0.271511 0)
(9.8188 0.387754 0)
(9.86208 0.361963 0)
(9.72963 0.477451 0)
(9.78304 0.454861 0)
(9.62343 0.571214 0)
(9.68743 0.551477 0)
(9.50025 0.670067 0)
(9.57533 0.6529 0)
(9.35999 0.775013 0)
(9.44666 0.760177 0)
(9.20247 0.887045 0)
(9.30129 0.874346 0)
(9.02742 1.00714 0)
(9.13903 0.996432 0)
(8.8345 1.13624 0)
(8.95957 1.12744 0)
(8.62328 1.27528 0)
(8.76256 1.26834 0)
(8.39329 1.4251 0)
(8.54757 1.42007 0)
(8.144 1.58649 0)
(8.31409 1.58351 0)
(7.8748 1.76006 0)
(8.06153 1.75943 0)
(7.58497 1.94619 0)
(7.78921 1.94841 0)
(7.27366 2.14488 0)
(7.4963 2.15079 0)
(6.9398 2.35562 0)
(7.18174 2.36649 0)
(6.58194 2.57706 0)
(6.84414 2.59485 0)
(6.19816 2.80671 0)
(6.48164 2.83435 0)
(5.78583 3.04048 0)
(6.0917 3.08221 0)
(5.34137 3.27209 0)
(5.67083 3.33396 0)
(4.86011 3.49242 0)
(5.21436 3.58274 0)
(4.33622 3.68886 0)
(4.71628 3.81865 0)
(3.76286 3.8448 0)
(4.16922 4.02791 0)
(3.13284 3.93949 0)
(3.56503 4.19231 0)
(2.43972 3.94816 0)
(2.89468 4.28888 0)
(1.6803 3.84746 0)
(2.15982 4.28929 0)
(0.858752 3.58634 0)
(1.31527 4.16962 0)
(0.574419 3.83763 0)
(9.98194 0.144152 0)
(9.99289 0.100693 0)
(9.94663 0.238565 0)
(9.96914 0.19969 0)
(9.89432 0.33332 0)
(9.92683 0.298382 0)
(9.82527 0.429924 0)
(9.86731 0.398293 0)
(9.73978 0.529771 0)
(9.79171 0.500923 0)
(9.6381 0.634078 0)
(9.70041 0.607597 0)
(9.52027 0.74396 0)
(9.59347 0.719502 0)
(9.38624 0.860503 0)
(9.47084 0.837766 0)
(9.23587 0.984777 0)
(9.33245 0.963503 0)
(9.06892 1.11783 0)
(9.17813 1.09781 0)
(8.88509 1.2607 0)
(9.00763 1.24177 0)
(8.68399 1.41438 0)
(8.82064 1.39643 0)
(8.46517 1.57981 0)
(8.61674 1.56283 0)
(8.22808 1.75788 0)
(8.39546 1.74193 0)
(7.97206 1.94933 0)
(8.15618 1.93463 0)
(7.6963 2.15471 0)
(7.89815 2.14169 0)
(7.39979 2.37425 0)
(7.62045 2.36364 0)
(7.08118 2.60778 0)
(7.3218 2.60074 0)
(6.73868 2.85443 0)
(7.00056 2.85276 0)
(6.3698 3.1124 0)
(6.65444 3.11883 0)
(5.97115 3.37856 0)
(6.28029 3.39709 0)
(5.53813 3.64784 0)
(5.87381 3.68426 0)
(5.06462 3.91261 0)
(5.42916 3.97506 0)
(4.5429 4.16181 0)
(4.93872 4.26137 0)
(3.96379 4.38006 0)
(4.39288 4.53123 0)
(3.3175 4.54694 0)
(3.78068 4.76759 0)
(2.59541 4.63589 0)
(3.08935 4.94719 0)
(1.79355 4.61796 0)
(2.31898 5.038 0)
(0.918023 4.42682 0)
(1.41802 5.0069 0)
(0.611337 4.73678 0)
(9.9826 0.157237 0)
(9.99318 0.109211 0)
(9.94868 0.260472 0)
(9.97044 0.216706 0)
(9.89863 0.364301 0)
(9.93003 0.324092 0)
(9.83275 0.470251 0)
(9.87334 0.432956 0)
(9.75132 0.579738 0)
(9.8015 0.5448 0)
(9.65457 0.694047 0)
(9.71488 0.660993 0)
(9.54259 0.814376 0)
(9.61352 0.782799 0)
(9.41535 0.941884 0)
(9.49744 0.911422 0)
(9.27277 1.07771 0)
(9.3666 1.04804 0)
(9.11464 1.22299 0)
(9.22086 1.19383 0)
(8.9407 1.37882 0)
(9.06006 1.34995 0)
(8.75062 1.54629 0)
(8.88389 1.51751 0)
(8.54395 1.72645 0)
(8.69201 1.69766 0)
(8.32016 1.92029 0)
(8.48395 1.89147 0)
(8.07856 2.12871 0)
(8.25912 2.09997 0)
(7.81827 2.35248 0)
(8.01674 2.32412 0)
(7.53814 2.59214 0)
(7.75579 2.56474 0)
(7.23659 2.84792 0)
(7.47491 2.82244 0)
(6.9115 3.11957 0)
(7.17221 3.09755 0)
(6.55992 3.40614 0)
(6.84509 3.38997 0)
(6.17779 3.70568 0)
(6.48995 3.69892 0)
(5.75956 4.01468 0)
(6.1018 4.0226 0)
(5.29776 4.32742 0)
(5.6738 4.35768 0)
(4.78275 4.63496 0)
(5.19679 4.69841 0)
(4.20263 4.92381 0)
(4.65879 5.03542 0)
(3.54402 5.17429 0)
(4.0453 5.35384 0)
(2.79401 5.35786 0)
(3.33802 5.63095 0)
(1.94464 5.43838 0)
(2.53192 5.83107 0)
(1.00074 5.33014 0)
(1.56447 5.90955 0)
(0.670489 5.71694 0)
(9.9834 0.169763 0)
(9.99353 0.11734 0)
(9.95109 0.281382 0)
(9.97195 0.232914 0)
(9.90355 0.393793 0)
(9.93365 0.348513 0)
(9.84111 0.508565 0)
(9.88005 0.465805 0)
(9.76407 0.627146 0)
(9.81226 0.586315 0)
(9.67264 0.750876 0)
(9.73064 0.71145 0)
(9.56695 0.881024 0)
(9.63528 0.842537 0)
(9.44703 1.01882 0)
(9.52619 0.980848 0)
(9.3128 1.16547 0)
(9.40341 1.12763 0)
(9.16415 1.32217 0)
(9.26685 1.28411 0)
(9.00084 1.4901 0)
(9.11638 1.45151 0)
(8.82261 1.67043 0)
(8.95179 1.63105 0)
(8.62905 1.86432 0)
(8.77278 1.82394 0)
(8.41965 2.07291 0)
(8.57892 2.03138 0)
(8.19374 2.29726 0)
(8.36968 2.25457 0)
(7.95042 2.53838 0)
(8.14431 2.49466 0)
(7.68845 2.79718 0)
(7.90178 2.75279 0)
(7.40615 3.07437 0)
(7.64069 3.02998 0)
(7.1012 3.37041 0)
(7.35909 3.32719 0)
(6.77032 3.68535 0)
(7.05424 3.64515 0)
(6.409 4.01861 0)
(6.72231 3.98432 0)
(6.01095 4.36858 0)
(6.35792 4.34462 0)
(5.56754 4.73196 0)
(5.95356 4.72505 0)
(5.06724 5.10274 0)
(5.49882 5.12296 0)
(4.49501 5.4705 0)
(4.97945 5.53275 0)
(3.83244 5.81784 0)
(4.37681 5.94362 0)
(3.05913 6.1156 0)
(3.66489 6.33595 0)
(2.15742 6.32015 0)
(2.82812 6.67302 0)
(1.1237 6.32067 0)
(1.78323 6.8981 0)
(0.768402 6.81754 0)
(9.9843 0.18165 0)
(9.99391 0.125028 0)
(9.95378 0.301187 0)
(9.9736 0.248223 0)
(9.90897 0.421665 0)
(9.93761 0.371533 0)
(9.85023 0.544711 0)
(9.88732 0.496709 0)
(9.77787 0.671807 0)
(9.82384 0.625308 0)
(9.69211 0.804344 0)
(9.74753 0.758776 0)
(9.59312 0.943647 0)
(9.6585 0.898491 0)
(9.48096 1.09101 0)
(9.55682 1.04578 0)
(9.35561 1.24769 0)
(9.44254 1.20195 0)
(9.21701 1.41495 0)
(9.31567 1.36827 0)
(9.06501 1.59405 0)
(9.17613 1.54605 0)
(8.89938 1.78624 0)
(9.02379 1.73655 0)
(8.7198 1.99279 0)
(8.8584 1.94109 0)
(8.52583 2.21495 0)
(8.67966 2.16099 0)
(8.31684 2.454 0)
(8.48708 2.39759 0)
(8.09198 2.71121 0)
(8.28001 2.65227 0)
(7.85006 2.98785 0)
(8.05753 2.92645 0)
(7.5894 3.28517 0)
(7.81831 3.22163 0)
(7.30765 3.60438 0)
(7.5605 3.53934 0)
(7.0015 3.94664 0)
(7.28148 3.88125 0)
(6.66628 4.31289 0)
(6.97752 4.2491 0)
(6.29537 4.70369 0)
(6.64329 4.64467 0)
(5.87947 5.11875 0)
(6.27122 5.06964 0)
(5.40551 5.55602 0)
(5.85039 5.52515 0)
(4.85537 6.01003 0)
(5.36504 6.01088 0)
(4.20446 6.46877 0)
(4.7928 6.52302 0)
(3.42098 6.90686 0)
(4.09867 7.05022 0)
(2.46821 7.27701 0)
(3.2501 7.56264 0)
(1.31728 7.43789 0)
(2.12481 7.99874 0)
(0.939655 8.10774 0)
(9.98529 0.192833 0)
(9.99432 0.132233 0)
(9.95671 0.319792 0)
(9.97539 0.262558 0)
(9.91481 0.447803 0)
(9.94186 0.393054 0)
(9.86 0.578551 0)
(9.89508 0.525549 0)
(9.79257 0.713558 0)
(9.83613 0.66164 0)
(9.71279 0.854252 0)
(9.76539 0.802805 0)
(9.62084 1.00201 0)
(9.68298 0.950464 0)
(9.51683 1.15817 0)
(9.58904 1.10599 0)
(9.40082 1.32406 0)
(9.48367 1.27073 0)
(9.27279 1.50098 0)
(9.36692 1.44602 0)
(9.13267 1.69025 0)
(9.23881 1.63319 0)
(8.98032 1.89321 0)
(9.09928 1.8336 0)
(8.81552 2.11122 0)
(8.9482 2.04861 0)
(8.6379 2.34566 0)
(8.78535 2.27967 0)
(8.44697 2.598 0)
(8.61039 2.52825 0)
(8.242 2.86977 0)
(8.42282 2.79593 0)
(8.02193 3.16258 0)
(8.22188 3.08443 0)
(7.78527 3.47823 0)
(8.00648 3.39562 0)
(7.52988 3.81867 0)
(7.77507 3.73165 0)
(7.2527 4.18614 0)
(7.52538 4.09501 0)
(6.94936 4.58319 0)
(7.25421 4.48869 0)
(6.61358 5.01271 0)
(6.95688 4.91631 0)
(6.23619 5.47783 0)
(6.62662 5.38232 0)
(5.80376 5.98154 0)
(6.25335 5.89211 0)
(5.29624 6.52569 0)
(5.82177 6.45197 0)
(4.68348 7.10861 0)
(5.30841 7.06846 0)
(3.91976 7.71821 0)
(4.67193 7.74647 0)
(2.93702 8.31881 0)
(3.8607 8.48025 0)
(1.64472 8.7471 0)
(2.68724 9.23458 0)
(1.26585 9.71864 0)
(9.98634 0.203262 0)
(9.99475 0.138923 0)
(9.95982 0.337119 0)
(9.97727 0.275858 0)
(9.92101 0.472108 0)
(9.94633 0.412994 0)
(9.8703 0.60997 0)
(9.90323 0.552228 0)
(9.80803 0.75226 0)
(9.849 0.695193 0)
(9.73448 0.900443 0)
(9.78404 0.843396 0)
(9.64987 1.05593 0)
(9.70851 0.99829 0)
(9.55435 1.22011 0)
(9.62259 1.16128 0)
(9.44805 1.39434 0)
(9.52644 1.33376 0)
(9.33102 1.57998 0)
(9.42019 1.51709 0)
(9.20327 1.77838 0)
(9.30392 1.71264 0)
(9.06477 1.99096 0)
(9.17768 1.92182 0)
(8.91541 2.21914 0)
(9.04145 2.14606 0)
(8.75496 2.46445 0)
(8.89515 2.38688 0)
(8.58308 2.72849 0)
(8.73861 2.64587 0)
(8.39925 3.01301 0)
(8.57153 2.92478 0)
(8.20267 3.31997 0)
(8.39341 3.22554 0)
(7.99217 3.6516 0)
(8.20352 3.55038 0)
(7.76606 4.01054 0)
(8.00076 3.90191 0)
(7.5219 4.39999 0)
(7.78352 4.28331 0)
(7.25615 4.82396 0)
(7.54949 4.6986 0)
(6.96362 5.28756 0)
(7.29531 5.15296 0)
(6.63661 5.79736 0)
(7.01604 5.65326 0)
(6.26335 6.36195 0)
(6.70429 6.20886 0)
(5.82513 6.9924 0)
(6.34846 6.83283 0)
(5.29087 7.70295 0)
(5.93008 7.54402 0)
(4.60572 8.50996 0)
(5.41292 8.37111 0)
(3.66522 9.42944 0)
(4.74556 9.35841 0)
(2.25627 10.3647 0)
(3.68133 10.582 0)
(1.96938 11.9285 0)
(9.98744 0.212891 0)
(9.99521 0.145072 0)
(9.96309 0.353101 0)
(9.97924 0.288074 0)
(9.92748 0.49449 0)
(9.95099 0.431286 0)
(9.88104 0.638848 0)
(9.91169 0.576662 0)
(9.82411 0.78776 0)
(9.86235 0.725868 0)
(9.757 0.942719 0)
(9.80336 0.880433 0)
(9.67997 1.10517 0)
(9.73494 1.04183 0)
(9.59322 1.27653 0)
(9.65731 1.21151 0)
(9.49693 1.45818 0)
(9.57069 1.39085 0)
(9.39124 1.65151 0)
(9.47528 1.58127 0)
(9.27626 1.85793 0)
(9.37126 1.78415 0)
(9.15207 2.07887 0)
(9.25878 2.00093 0)
(9.01867 2.31585 0)
(9.13796 2.23308 0)
(8.87604 2.57046 0)
(9.00886 2.48218 0)
(8.72402 2.84442 0)
(8.87153 2.7499 0)
(8.56235 3.13966 0)
(8.72589 3.03809 0)
(8.39058 3.45837 0)
(8.5718 3.34885 0)
(8.20802 3.80313 0)
(8.40896 3.6846 0)
(8.01363 4.17707 0)
(8.23687 4.04829 0)
(7.80588 4.58414 0)
(8.05479 4.44353 0)
(7.58255 5.02942 0)
(7.86163 4.875 0)
(7.34043 5.51971 0)
(7.65587 5.34883 0)
(7.07472 6.06436 0)
(7.43538 5.87342 0)
(6.77804 6.67665 0)
(7.19722 6.46062 0)
(6.43842 7.37634 0)
(6.93722 7.128 0)
(6.03477 8.19495 0)
(6.65024 7.90332 0)
(5.52547 9.18842 0)
(6.32698 8.83542 0)
(4.81098 10.486 0)
(5.98652 10.0255 0)
(3.56598 12.5146 0)
(5.67133 11.7726 0)
(4.76496 15.4212 0)
(-0.335481 0.268754 0)
(-0.324905 0.328583 0)
(-0.843969 0.338299 0)
(-0.789191 0.48627 0)
(-1.44434 0.359215 0)
(-1.45407 0.560579 0)
(-2.10586 0.364571 0)
(-2.15056 0.603085 0)
(-2.80546 0.359959 0)
(-2.88196 0.622737 0)
(-3.52637 0.348712 0)
(-3.63274 0.626549 0)
(-4.2555 0.332731 0)
(-4.39098 0.618727 0)
(-4.98213 0.31325 0)
(-5.14655 0.602044 0)
(-5.69712 0.291113 0)
(-5.89074 0.578411 0)
(-6.39238 0.266902 0)
(-6.61578 0.549166 0)
(-7.06047 0.241014 0)
(-7.31457 0.515233 0)
(-7.69424 0.213715 0)
(-7.98032 0.477233 0)
(-8.28668 0.185173 0)
(-8.60635 0.435565 0)
(-8.83062 0.155479 0)
(-9.18587 0.390468 0)
(-9.31867 0.124668 0)
(-9.71187 0.342072 0)
(-9.74307 0.0927157 0)
(-10.177 0.290434 0)
(-10.0956 0.0595484 0)
(-10.5735 0.235573 0)
(-10.3678 0.0250033 0)
(-10.8932 0.177538 0)
(-10.5506 -0.0113361 0)
(-11.1275 0.116459 0)
(-10.6343 -0.0505663 0)
(-11.2673 0.0520702 0)
(-10.6057 -0.0948291 0)
(-11.3032 -0.0173753 0)
(-10.4505 -0.145488 0)
(-11.2243 -0.0920421 0)
(-10.1501 -0.202804 0)
(-11.0165 -0.173877 0)
(-9.6879 -0.26782 0)
(-10.6682 -0.261256 0)
(-9.0451 -0.342505 0)
(-10.1702 -0.354755 0)
(-8.20015 -0.430364 0)
(-9.50977 -0.455301 0)
(-7.12389 -0.538284 0)
(-8.64826 -0.566245 0)
(-5.75729 -0.671603 0)
(-7.5022 -0.702021 0)
(-4.00615 -0.803663 0)
(-6.0373 -0.878311 0)
(-4.65386 -0.95292 0)
(-0.674137 0.726018 0)
(-0.499852 0.988859 0)
(-1.38836 0.85315 0)
(-1.12162 1.16929 0)
(-2.13203 0.916723 0)
(-1.91277 1.25496 0)
(-2.90052 0.950203 0)
(-2.69632 1.30369 0)
(-3.68452 0.960731 0)
(-3.491 1.3206 0)
(-4.47418 0.954022 0)
(-4.28792 1.31286 0)
(-5.2604 0.934025 0)
(-5.08003 1.28589 0)
(-6.03497 0.90357 0)
(-5.86053 1.24381 0)
(-6.79056 0.864689 0)
(-6.6231 1.18966 0)
(-7.52039 0.818813 0)
(-7.36183 1.12563 0)
(-8.21802 0.76691 0)
(-8.07105 1.05325 0)
(-8.87714 0.709593 0)
(-8.74513 0.97355 0)
(-9.49137 0.647214 0)
(-9.37832 0.887158 0)
(-10.0541 0.579938 0)
(-9.96464 0.794435 0)
(-10.5585 0.507804 0)
(-10.4977 0.695557 0)
(-10.9971 0.430781 0)
(-10.9708 0.59059 0)
(-11.3622 0.348816 0)
(-11.3767 0.479565 0)
(-11.6458 0.261851 0)
(-11.7078 0.362574 0)
(-11.8395 0.169624 0)
(-11.956 0.23979 0)
(-11.9344 0.07113 0)
(-12.1134 0.111121 0)
(-11.9232 -0.0351422 0)
(-12.1714 -0.0241719 0)
(-11.7971 -0.149574 0)
(-12.1229 -0.166809 0)
(-11.5482 -0.271483 0)
(-11.9621 -0.317984 0)
(-11.1666 -0.400985 0)
(-11.6812 -0.476942 0)
(-10.6436 -0.539283 0)
(-11.2765 -0.643414 0)
(-9.97234 -0.689251 0)
(-10.7444 -0.81699 0)
(-9.14996 -0.858617 0)
(-10.0656 -0.998918 0)
(-8.18475 -1.05496 0)
(-9.19526 -1.19785 0)
(-7.10628 -1.25216 0)
(-8.15931 -1.41923 0)
(-7.37319 -1.62841 0)
(-0.825642 1.46498 0)
(-0.562274 1.79753 0)
(-1.6418 1.58675 0)
(-1.25627 1.94978 0)
(-2.45423 1.64633 0)
(-2.10595 2.01354 0)
(-3.26577 1.67161 0)
(-2.91975 2.04354 0)
(-4.07378 1.66682 0)
(-3.72843 2.03984 0)
(-4.87393 1.63772 0)
(-4.52666 2.00827 0)
(-5.66122 1.58903 0)
(-5.3115 1.95398 0)
(-6.43065 1.52449 0)
(-6.07939 1.88132 0)
(-7.17731 1.44693 0)
(-6.82656 1.79369 0)
(-7.89635 1.3584 0)
(-7.54908 1.69358 0)
(-8.58292 1.26031 0)
(-8.2428 1.58274 0)
(-9.23196 1.15358 0)
(-8.90328 1.46228 0)
(-9.83817 1.03878 0)
(-9.52568 1.33285 0)
(-10.3958 0.916249 0)
(-10.1047 1.19475 0)
(-10.8988 0.786201 0)
(-10.6346 1.04809 0)
(-11.3405 0.648817 0)
(-11.1091 0.892849 0)
(-11.7138 0.504359 0)
(-11.5212 0.729005 0)
(-12.0113 0.353241 0)
(-11.8638 0.556637 0)
(-12.2251 0.195985 0)
(-12.1293 0.376001 0)
(-12.348 0.0328998 0)
(-12.3104 0.187552 0)
(-12.3723 -0.136632 0)
(-12.3996 -0.00942218 0)
(-12.2947 -0.3144 0)
(-12.3899 -0.21283 0)
(-12.1076 -0.500948 0)
(-12.2801 -0.426297 0)
(-11.8057 -0.695183 0)
(-12.0645 -0.64754 0)
(-11.3857 -0.895905 0)
(-11.7425 -0.875213 0)
(-10.8473 -1.10219 0)
(-11.3151 -1.1071 0)
(-10.1971 -1.31713 0)
(-10.7723 -1.341 0)
(-9.45289 -1.54994 0)
(-10.0859 -1.58017 0)
(-8.6203 -1.79256 0)
(-9.29177 -1.83683 0)
(-8.72844 -2.09942 0)
(-0.869476 2.28079 0)
(-0.565428 2.64912 0)
(-1.71924 2.37409 0)
(-1.27238 2.76242 0)
(-2.54932 2.4065 0)
(-2.13068 2.7886 0)
(-3.3637 2.4059 0)
(-2.93535 2.78599 0)
(-4.16298 2.37428 0)
(-3.72726 2.75131 0)
(-4.9465 2.31682 0)
(-4.50204 2.68924 0)
(-5.71257 2.23811 0)
(-5.2597 2.60406 0)
(-6.45886 2.14202 0)
(-5.99908 2.49965 0)
(-7.18257 2.03151 0)
(-6.71831 2.37914 0)
(-7.88044 1.9087 0)
(-7.41493 2.2448 0)
(-8.54875 1.775 0)
(-8.08585 2.09815 0)
(-9.18329 1.63125 0)
(-8.72734 1.94009 0)
(-9.77928 1.47784 0)
(-9.33505 1.77103 0)
(-10.3314 1.31484 0)
(-9.90404 1.59108 0)
(-10.8337 1.14214 0)
(-10.4287 1.40015 0)
(-11.2797 0.959521 0)
(-10.903 1.1981 0)
(-11.6626 0.766811 0)
(-11.3202 0.984843 0)
(-11.9751 0.563967 0)
(-11.6731 0.760473 0)
(-12.2096 0.351193 0)
(-11.9547 0.52541 0)
(-12.359 0.128813 0)
(-12.1578 0.280441 0)
(-12.418 -0.103031 0)
(-12.276 0.0264471 0)
(-12.3818 -0.343812 0)
(-12.3022 -0.234334 0)
(-12.2485 -0.592512 0)
(-12.238 -0.503452 0)
(-12.0148 -0.847601 0)
(-12.0804 -0.779608 0)
(-11.6804 -1.10633 0)
(-11.8302 -1.05979 0)
(-11.2485 -1.36499 0)
(-11.4909 -1.33981 0)
(-10.7292 -1.62287 0)
(-11.0577 -1.61426 0)
(-10.139 -1.88894 0)
(-10.5139 -1.88335 0)
(-9.48963 -2.16073 0)
(-9.89735 -2.16252 0)
(-9.47528 -2.43584 0)
(-0.852446 3.10924 0)
(-0.535865 3.48404 0)
(-1.68531 3.1631 0)
(-1.21507 3.55889 0)
(-2.49411 3.15768 0)
(-2.04322 3.54379 0)
(-3.28159 3.12267 0)
(-2.8086 3.50391 0)
(-4.04945 3.05854 0)
(-3.56069 3.43481 0)
(-4.79899 2.96955 0)
(-4.29405 3.34067 0)
(-5.53047 2.85948 0)
(-5.01057 3.22478 0)
(-6.24327 2.73156 0)
(-5.71039 3.09024 0)
(-6.9359 2.5882 0)
(-6.39282 2.93946 0)
(-7.60605 2.43109 0)
(-7.05621 2.77413 0)
(-8.25064 2.26121 0)
(-7.69807 2.59526 0)
(-8.86584 2.07904 0)
(-8.31508 2.40333 0)
(-9.44716 1.88467 0)
(-8.90316 2.19842 0)
(-9.98943 1.67802 0)
(-9.45756 1.98034 0)
(-10.4869 1.45893 0)
(-9.97287 1.74882 0)
(-10.9333 1.22733 0)
(-10.4431 1.50359 0)
(-11.3219 0.983319 0)
(-10.8619 1.24451 0)
(-11.6458 0.727369 0)
(-11.2221 0.971743 0)
(-11.8977 0.460427 0)
(-11.5169 0.685875 0)
(-12.0711 0.184017 0)
(-11.7397 0.388306 0)
(-12.1608 -0.0998868 0)
(-11.8843 0.0809405 0)
(-12.1645 -0.390898 0)
(-11.9452 -0.232173 0)
(-12.0807 -0.689076 0)
(-11.923 -0.55196 0)
(-11.9084 -0.991848 0)
(-11.8184 -0.876981 0)
(-11.6495 -1.29463 0)
(-11.6332 -1.20271 0)
(-11.3092 -1.59143 0)
(-11.3717 -1.52315 0)
(-10.8981 -1.87873 0)
(-11.0328 -1.83057 0)
(-10.4317 -2.16348 0)
(-10.6081 -2.12295 0)
(-9.93115 -2.44156 0)
(-10.1342 -2.41355 0)
(-9.81648 -2.67962 0)
(-0.796268 3.90526 0)
(-0.486418 4.26394 0)
(-1.57671 3.91944 0)
(-1.10882 4.30523 0)
(-2.33457 3.87461 0)
(-1.87724 4.25142 0)
(-3.07151 3.80375 0)
(-2.57967 4.17575 0)
(-3.78945 3.70677 0)
(-3.27316 4.07388 0)
(-4.49049 3.58726 0)
(-3.94997 3.94994 0)
(-5.17581 3.44808 0)
(-4.61317 3.80634 0)
(-5.84564 3.2916 0)
(-5.26346 3.64522 0)
(-6.49917 3.11954 0)
(-5.90063 3.46815 0)
(-7.1346 2.93296 0)
(-6.52345 3.27604 0)
(-7.74923 2.73236 0)
(-7.12969 3.06927 0)
(-8.3395 2.51783 0)
(-7.71625 2.84781 0)
(-8.90111 2.28917 0)
(-8.27923 2.61133 0)
(-9.4291 2.04605 0)
(-8.81402 2.35936 0)
(-9.91788 1.78809 0)
(-9.31541 2.0914 0)
(-10.3613 1.51504 0)
(-9.77762 1.80706 0)
(-10.7529 1.22685 0)
(-10.1944 1.50617 0)
(-11.0859 0.923916 0)
(-10.5591 1.18897 0)
(-11.3534 0.607354 0)
(-10.865 0.856283 0)
(-11.5491 0.279432 0)
(-11.1056 0.510009 0)
(-11.6687 -0.0566163 0)
(-11.2753 0.153575 0)
(-11.7092 -0.39836 0)
(-11.3695 -0.208196 0)
(-11.6711 -0.744603 0)
(-11.3862 -0.573989 0)
(-11.5552 -1.09219 0)
(-11.3313 -0.942518 0)
(-11.3646 -1.43507 0)
(-11.2063 -1.30786 0)
(-11.1057 -1.76558 0)
(-11.016 -1.66265 0)
(-10.7882 -2.078 0)
(-10.7615 -1.99763 0)
(-10.4272 -2.37592 0)
(-10.4402 -2.30842 0)
(-10.0493 -2.65178 0)
(-10.0857 -2.60308 0)
(-9.85118 -2.85545 0)
(-0.712394 4.636 0)
(-0.423893 4.96168 0)
(-1.41483 4.61593 0)
(-0.967521 4.97697 0)
(-2.0991 4.5355 0)
(-1.65351 4.89035 0)
(-2.76639 4.43208 0)
(-2.27419 4.78409 0)
(-3.41872 4.30574 0)
(-2.89344 4.65454 0)
(-4.05843 4.15957 0)
(-3.50058 4.50593 0)
(-4.68701 3.99548 0)
(-4.09958 4.33973 0)
(-5.30493 3.81489 0)
(-4.69115 4.1572 0)
(-5.91162 3.61866 0)
(-5.27513 3.95895 0)
(-6.50546 3.4071 0)
(-5.85032 3.74509 0)
(-7.08385 3.18009 0)
(-6.41451 3.51533 0)
(-7.64337 2.93722 0)
(-6.96464 3.26912 0)
(-8.17984 2.67792 0)
(-7.49687 3.00575 0)
(-8.68845 2.40158 0)
(-8.00672 2.72446 0)
(-9.1638 2.10766 0)
(-8.48919 2.42458 0)
(-9.60005 1.79586 0)
(-8.93879 2.1056 0)
(-9.99097 1.46624 0)
(-9.34966 1.76738 0)
(-10.3302 1.11945 0)
(-9.71557 1.41027 0)
(-10.6112 0.757133 0)
(-10.03 1.0353 0)
(-10.828 0.382474 0)
(-10.2865 0.644816 0)
(-10.9757 8.89547e-05 0)
(-10.4795 0.243279 0)
(-11.0514 -0.386228 0)
(-10.6056 -0.163299 0)
(-11.0567 -0.77448 0)
(-10.6586 -0.570928 0)
(-10.9939 -1.16069 0)
(-10.6506 -0.978015 0)
(-10.8673 -1.53761 0)
(-10.5827 -1.37771 0)
(-10.6833 -1.89642 0)
(-10.4597 -1.76181 0)
(-10.4502 -2.22939 0)
(-10.2834 -2.12028 0)
(-10.1822 -2.53599 0)
(-10.0551 -2.4461 0)
(-9.90732 -2.80535 0)
(-9.8042 -2.74094 0)
(-9.63997 -2.97793 0)
(-0.607815 5.27794 0)
(-0.352331 5.557 0)
(-1.21287 5.23168 0)
(-0.799544 5.55558 0)
(-1.80576 5.12249 0)
(-1.38526 5.44394 0)
(-2.38778 4.99294 0)
(-1.90892 5.3147 0)
(-2.96117 4.84346 0)
(-2.44089 5.16493 0)
(-3.52834 4.6767 0)
(-2.96708 4.99887 0)
(-4.09067 4.49355 0)
(-3.49241 4.81691 0)
(-4.6485 4.29452 0)
(-4.01712 4.61939 0)
(-5.20111 4.07955 0)
(-4.54079 4.406 0)
(-5.74677 3.84823 0)
(-5.06195 4.17608 0)
(-6.2828 3.59986 0)
(-5.57819 3.92873 0)
(-6.80577 3.33359 0)
(-6.0863 3.66292 0)
(-7.31157 3.04855 0)
(-6.58244 3.37762 0)
(-7.79557 2.74394 0)
(-7.06224 3.0719 0)
(-8.25268 2.41914 0)
(-7.52093 2.74496 0)
(-8.67742 2.0738 0)
(-7.95339 2.39627 0)
(-9.06402 1.70807 0)
(-8.35422 2.0257 0)
(-9.4065 1.32271 0)
(-8.71771 1.6337 0)
(-9.69875 0.919565 0)
(-9.03762 1.22146 0)
(-9.93467 0.502334 0)
(-9.30731 0.791543 0)
(-10.1086 0.0767351 0)
(-9.52109 0.348908 0)
(-10.2171 -0.351077 0)
(-9.67655 -0.0989788 0)
(-10.263 -0.777248 0)
(-9.76202 -0.544367 0)
(-10.2507 -1.19733 0)
(-9.79803 -0.984954 0)
(-10.1852 -1.60359 0)
(-9.78476 -1.41385 0)
(-10.0722 -1.98664 0)
(-9.72679 -1.82269 0)
(-9.9182 -2.33717 0)
(-9.62565 -2.20132 0)
(-9.73492 -2.65014 0)
(-9.48396 -2.54025 0)
(-9.54909 -2.91155 0)
(-9.3264 -2.83414 0)
(-9.22483 -3.05602 0)
(-0.486965 5.81365 0)
(-0.274318 6.03395 0)
(-0.979275 5.75065 0)
(-0.610046 6.02638 0)
(-1.46632 5.62134 0)
(-1.08111 5.89871 0)
(-1.95018 5.47418 0)
(-1.495 5.75582 0)
(-2.43345 5.30984 0)
(-1.92885 5.5951 0)
(-2.91855 5.13028 0)
(-2.36465 5.42047 0)
(-3.40649 4.93533 0)
(-2.80845 5.23097 0)
(-3.89717 4.72454 0)
(-3.25957 5.02594 0)
(-4.38943 4.49704 0)
(-3.71703 4.80422 0)
(-4.88117 4.25175 0)
(-4.17883 4.56449 0)
(-5.36949 3.98747 0)
(-4.64218 4.30532 0)
(-5.8508 3.70302 0)
(-5.10364 4.02535 0)
(-6.32101 3.39732 0)
(-5.55922 3.72333 0)
(-6.77564 3.06947 0)
(-6.00461 3.39825 0)
(-7.20993 2.71879 0)
(-6.43528 3.04935 0)
(-7.61882 2.34496 0)
(-6.84647 2.67608 0)
(-7.99696 1.94816 0)
(-7.23322 2.27837 0)
(-8.33882 1.52927 0)
(-7.59025 1.85673 0)
(-8.63866 1.09027 0)
(-7.91161 1.41246 0)
(-8.89048 0.635049 0)
(-8.19048 0.94816 0)
(-9.08789 0.170068 0)
(-8.42087 0.468784 0)
(-9.22565 -0.295525 0)
(-8.60071 -0.0172989 0)
(-9.30823 -0.754915 0)
(-8.71472 -0.496559 0)
(-9.34361 -1.20358 0)
(-8.79022 -0.964953 0)
(-9.33698 -1.63432 0)
(-8.82865 -1.41751 0)
(-9.29324 -2.03787 0)
(-8.83402 -1.84625 0)
(-9.21607 -2.40387 0)
(-8.80687 -2.24193 0)