/*--------------------------------*- C++ -*----------------------------------*\
  =========                 |
  \\      /  F ield         | OpenFOAM: The Open Source CFD Toolbox
   \\    /   O peration     | Website:  https://openfoam.org
    \\  /    A nd           | Version:  7
     \\/     M anipulation  |
\*---------------------------------------------------------------------------*/
FoamFile
{
    version     2.0;
    format      ascii;
    class       volScalarField;
    location    "2.02";
    object      T;
}
// * * * * * * * * * * * * * * * * * * * * * * * * * * * * * * * * * * * * * //

dimensions      [0 0 0 1 0 0 0];

internalField   nonuniform List<scalar> 
12013
(
300.025
300.077
300.131
300.187
300.246
300.307
300.371
300.439
300.509
300.583
300.661
300.743
300.828
300.918
301.012
301.111
301.215
301.324
301.438
301.559
301.685
301.817
301.956
302.101
302.254
302.414
302.583
302.759
302.945
303.14
303.345
303.56
303.787
304.025
304.276
304.54
304.819
305.113
305.423
305.751
306.097
306.463
306.851
307.262
307.697
308.159
308.65
309.171
309.726
310.316
310.944
311.614
312.327
313.089
313.902
314.771
315.7
316.693
317.757
318.895
320.115
321.423
322.827
324.333
325.952
327.693
329.567
331.586
333.763
336.115
338.661
341.421
344.421
347.691
351.272
355.212
359.577
364.462
370.009
376.457
384.263
300.025
300.077
300.131
300.187
300.246
300.307
300.371
300.439
300.509
300.583
300.661
300.743
300.828
300.918
301.012
301.111
301.215
301.324
301.438
301.559
301.685
301.817
301.956
302.101
302.254
302.414
302.583
302.76
302.945
303.14
303.345
303.561
303.787
304.025
304.276
304.541
304.819
305.113
305.423
305.751
306.097
306.464
306.851
307.262
307.697
308.159
308.65
309.171
309.726
310.315
310.943
311.613
312.326
313.088
313.9
314.769
315.697
316.689
317.751
318.889
320.107
321.414
322.815
324.319
325.935
327.672
329.541
331.554
333.724
336.067
338.601
341.346
344.326
347.571
351.116
355.005
359.295
364.059
369.394
375.419
382.241
300.025
300.077
300.131
300.187
300.246
300.307
300.371
300.439
300.509
300.583
300.661
300.743
300.828
300.918
301.012
301.111
301.215
301.324
301.439
301.559
301.685
301.817
301.956
302.102
302.254
302.415
302.583
302.76
302.946
303.141
303.346
303.561
303.788
304.026
304.277
304.541
304.82
305.114
305.424
305.752
306.098
306.464
306.852
307.262
307.698
308.16
308.65
309.171
309.725
310.314
310.942
311.611
312.323
313.084
313.895
314.762
315.689
316.68
317.74
318.874
320.09
321.392
322.788
324.287
325.896
327.624
329.483
331.483
333.638
335.961
338.47
341.183
344.122
347.311
350.782
354.567
358.708
363.248
368.231
373.68
379.553
300.025
300.077
300.131
300.187
300.246
300.307
300.371
300.439
300.509
300.583
300.661
300.743
300.828
300.918
301.012
301.111
301.215
301.324
301.439
301.559
301.685
301.817
301.956
302.102
302.255
302.415
302.584
302.761
302.946
303.141
303.346
303.562
303.789
304.027
304.278
304.542
304.821
305.115
305.425
305.753
306.099
306.465
306.853
307.263
307.698
308.16
308.65
309.17
309.724
310.313
310.939
311.607
312.319
313.077
313.887
314.752
315.676
316.664
317.72
318.85
320.06
321.356
322.745
324.234
325.831
327.546
329.388
331.367
333.496
335.788
338.256
340.919
343.792
346.897
350.256
353.89
357.823
362.073
366.645
371.517
376.613
300.025
300.077
300.131
300.187
300.246
300.307
300.371
300.439
300.509
300.583
300.661
300.743
300.828
300.918
301.012
301.111
301.215
301.325
301.439
301.559
301.685
301.818
301.957
302.103
302.256
302.416
302.585
302.762
302.947
303.143
303.348
303.563
303.79
304.028
304.28
304.544
304.823
305.117
305.427
305.754
306.1
306.467
306.854
307.264
307.699
308.16
308.65
309.17
309.722
310.31
310.935
311.601
312.311
313.068
313.875
314.737
315.657
316.64
317.691
318.814
320.017
321.303
322.681
324.156
325.737
327.432
329.249
331.199
333.292
335.538
337.951
340.544
343.329
346.322
349.535
352.982
356.669
360.598
364.753
369.097
373.563
300.025
300.077
300.131
300.187
300.246
300.307
300.371
300.439
300.509
300.583
300.661
300.743
300.828
300.918
301.013
301.112
301.216
301.325
301.439
301.56
301.686
301.818
301.957
302.103
302.256
302.417
302.586
302.763
302.949
303.144
303.349
303.565
303.792
304.03
304.282
304.546
304.825
305.119
305.429
305.756
306.103
306.468
306.856
307.265
307.7
308.16
308.649
309.168
309.72
310.306
310.93
311.594
312.301
313.055
313.858
314.715
315.63
316.607
317.65
318.765
319.956
321.23
322.592
324.049
325.608
327.276
329.061
330.972
333.017
335.206
337.548
340.052
342.728
345.585
348.629
351.863
355.286
358.887
362.645
366.522
370.464
300.025
300.077
300.131
300.187
300.246
300.307
300.371
300.439
300.509
300.583
300.661
300.743
300.828
300.918
301.013
301.112
301.216
301.325
301.44
301.56
301.687
301.819
301.958
302.104
302.258
302.418
302.587
302.765
302.951
303.146
303.351
303.567
303.794
304.033
304.284
304.549
304.828
305.122
305.432
305.759
306.105
306.471
306.857
307.267
307.701
308.161
308.648
309.166
309.716
310.3
310.922
311.583
312.287
313.036
313.835
314.687
315.595
316.563
317.597
318.7
319.877
321.134
322.476
323.91
325.44
327.075
328.819
330.681
332.667
334.785
337.041
339.441
341.991
344.694
347.552
350.561
353.715
356.998
360.388
363.853
367.351
300.025
300.077
300.131
300.187
300.246
300.307
300.371
300.439
300.509
300.583
300.661
300.743
300.829
300.919
301.013
301.112
301.216
301.326
301.441
301.561
301.688
301.82
301.96
302.106
302.259
302.42
302.589
302.767
302.953
303.149
303.354
303.57
303.797
304.036
304.288
304.552
304.831
305.125
305.435
305.763
306.108
306.473
306.86
307.269
307.702
308.16
308.647
309.163
309.711
310.293
310.911
311.569
312.268
313.013
313.805
314.649
315.548
316.507
317.528
318.616
319.776
321.012
322.33
323.734
325.23
326.823
328.518
330.322
332.239
334.274
336.431
338.714
341.124
343.662
346.325
349.106
351.996
354.979
358.033
361.133
364.249
300.025
300.077
300.131
300.187
300.245
300.307
300.371
300.439
300.509
300.584
300.661
300.743
300.829
300.919
301.013
301.113
301.217
301.326
301.441
301.562
301.689
301.822
301.961
302.107
302.261
302.422
302.592
302.769
302.956
303.152
303.357
303.574
303.801
304.04
304.292
304.556
304.835
305.129
305.439
305.766
306.112
306.477
306.862
307.27
307.702
308.16
308.644
309.158
309.704
310.282
310.897
311.55
312.244
312.982
313.767
314.602
315.49
316.435
317.441
318.511
319.65
320.861
322.149
323.518
324.973
326.517
328.156
329.892
331.73
333.672
335.721
337.877
340.139
342.505
344.971
347.528
350.165
352.867
355.618
358.395
361.176
300.025
300.077
300.131
300.187
300.245
300.307
300.371
300.439
300.509
300.584
300.661
300.743
300.829
300.919
301.014
301.113
301.218
301.327
301.442
301.563
301.69
301.823
301.963
302.109
302.263
302.425
302.594
302.772
302.959
303.155
303.361
303.578
303.805
304.045
304.296
304.561
304.84
305.134
305.444
305.771
306.116
306.48
306.865
307.272
307.703
308.158
308.641
309.152
309.694
310.269
310.879
311.526
312.214
312.944
313.719
314.543
315.418
316.347
317.334
318.383
319.496
320.678
321.931
323.26
324.667
326.157
327.731
329.392
331.143
332.984
334.917
336.939
339.049
341.243
343.514
345.854
348.253
350.698
353.174
355.664
358.15
300.025
300.077
300.131
300.187
300.245
300.307
300.371
300.439
300.509
300.584
300.661
300.743
300.829
300.919
301.014
301.114
301.218
301.328
301.443
301.564
301.692
301.825
301.965
302.112
302.266
302.428
302.598
302.776
302.963
303.16
303.366
303.583
303.811
304.05
304.302
304.567
304.846
305.14
305.45
305.776
306.121
306.484
306.868
307.273
307.702
308.156
308.636
309.144
309.682
310.252
310.856
311.497
312.176
312.896
313.66
314.47
315.33
316.241
317.207
318.23
319.314
320.461
321.675
322.958
324.312
325.74
327.243
328.823
330.481
332.216
334.028
335.914
337.871
339.895
341.978
344.113
346.29
348.499
350.727
352.96
355.186
300.025
300.077
300.13
300.187
300.245
300.307
300.371
300.439
300.509
300.584
300.662
300.743
300.829
300.92
301.015
301.114
301.219
301.329
301.445
301.566
301.693
301.827
301.967
302.115
302.269
302.431
302.602
302.78
302.968
303.165
303.371
303.588
303.817
304.056
304.308
304.574
304.853
305.146
305.456
305.782
306.125
306.488
306.871
307.274
307.701
308.152
308.629
309.133
309.666
310.23
310.828
311.46
312.13
312.839
313.589
314.384
315.225
316.114
317.056
318.05
319.101
320.21
321.38
322.612
323.907
325.269
326.696
328.19
329.751
331.377
333.066
334.816
336.623
338.481
340.386
342.328
344.301
346.294
348.298
350.303
352.297
300.025
300.077
300.13
300.186
300.245
300.307
300.371
300.438
300.509
300.584
300.662
300.744
300.83
300.92
301.015
301.115
301.22
301.33
301.446
301.568
301.695
301.829
301.97
302.118
302.273
302.435
302.606
302.785
302.973
303.17
303.377
303.595
303.823
304.064
304.316
304.581
304.86
305.153
305.462
305.788
306.131
306.492
306.873
307.275
307.699
308.146
308.619
309.118
309.646
310.204
310.793
311.416
312.074
312.77
313.505
314.281
315.101
315.967
316.88
317.843
318.857
319.924
321.045
322.222
323.455
324.746
326.094
327.499
328.961
330.476
332.044
333.66
335.321
337.023
338.758
340.522
342.307
344.104
345.908
347.707
349.496
300.025
300.077
300.13
300.186
300.245
300.306
300.371
300.438
300.509
300.583
300.662
300.744
300.83
300.921
301.016
301.116
301.221
301.332
301.448
301.57
301.698
301.832
301.973
302.121
302.277
302.44
302.611
302.791
302.979
303.177
303.384
303.602
303.831
304.071
304.324
304.589
304.868
305.161
305.47
305.794
306.136
306.496
306.875
307.274
307.695
308.139
308.607
309.1
309.621
310.171
310.751
311.363
312.008
312.689
313.406
314.162
314.959
315.798
316.68
317.608
318.581
319.603
320.672
321.791
322.959
324.177
325.444
326.758
328.12
329.526
330.974
332.462
333.984
335.537
337.116
338.714
340.327
341.948
343.57
345.188
346.793
300.025
300.077
300.13
300.186
300.245
300.306
300.371
300.438
300.509
300.583
300.662
300.744
300.83
300.921
301.016
301.117
301.222
301.333
301.45
301.572
301.7
301.835
301.977
302.125
302.281
302.445
302.617
302.797
302.986
303.184
303.392
303.611
303.84
304.08
304.333
304.598
304.877
305.169
305.477
305.801
306.141
306.499
306.875
307.272
307.689
308.128
308.591
309.078
309.591
310.132
310.701
311.3
311.931
312.594
313.293
314.026
314.797
315.607
316.456
317.345
318.276
319.249
320.265
321.323
322.424
323.567
324.752
325.976
327.24
328.539
329.872
331.236
332.628
334.042
335.476
336.923
338.38
339.841
341.301
342.755
344.197
300.025
300.076
300.13
300.186
300.245
300.306
300.37
300.438
300.509
300.583
300.661
300.744
300.83
300.921
301.017
301.118
301.223
301.335
301.451
301.574
301.703
301.839
301.981
302.13
302.286
302.451
302.623
302.804
302.993
303.192
303.401
303.619
303.849
304.09
304.342
304.607
304.886
305.178
305.485
305.807
306.145
306.501
306.875
307.268
307.681
308.115
308.571
309.051
309.555
310.085
310.642
311.228
311.842
312.487
313.164
313.873
314.616
315.394
316.207
317.057
317.943
318.866
319.826
320.822
321.855
322.924
324.027
325.163
326.331
327.528
328.752
330
331.268
332.555
333.855
335.164
336.48
337.797
339.111
340.419
341.716
300.025
300.076
300.13
300.186
300.244
300.306
300.37
300.437
300.508
300.583
300.661
300.744
300.83
300.922
301.018
301.119
301.225
301.336
301.454
301.577
301.706
301.842
301.985
302.135
302.292
302.457
302.63
302.811
303.001
303.201
303.41
303.629
303.859
304.1
304.352
304.617
304.895
305.187
305.492
305.813
306.149
306.502
306.873
307.262
307.67
308.098
308.547
309.018
309.513
310.031
310.575
311.145
311.741
312.366
313.02
313.703
314.417
315.161
315.937
316.745
317.585
318.456
319.36
320.295
321.26
322.255
323.279
324.33
325.406
326.506
327.626
328.765
329.92
331.088
332.266
333.451
334.638
335.826
337.01
338.188
339.355
300.025
300.076
300.13
300.185
300.244
300.305
300.369
300.437
300.508
300.582
300.661
300.744
300.83
300.922
301.018
301.119
301.226
301.338
301.456
301.579
301.709
301.846
301.989
302.14
302.298
302.463
302.637
302.819
303.01
303.21
303.419
303.639
303.869
304.11
304.363
304.627
304.905
305.195
305.499
305.818
306.152
306.502
306.869
307.253
307.655
308.077
308.518
308.98
309.464
309.969
310.499
311.052
311.629
312.232
312.861
313.517
314.2
314.91
315.647
316.413
317.205
318.026
318.873
319.747
320.646
321.57
322.517
323.486
324.475
325.483
326.507
327.546
328.596
329.656
330.723
331.794
332.867
333.939
335.006
336.067
337.119
300.025
300.076
300.129
300.185
300.243
300.305
300.369
300.436
300.507
300.582
300.66
300.743
300.83
300.922
301.019
301.12
301.227
301.339
301.458
301.582
301.713
301.85
301.994
302.145
302.304
302.47
302.644
302.827
303.019
303.219
303.429
303.649
303.88
304.121
304.373
304.637
304.914
305.203
305.506
305.822
306.153
306.5
306.862
307.241
307.637
308.051
308.484
308.935
309.407
309.899
310.413
310.948
311.506
312.086
312.69
313.317
313.967
314.642
315.341
316.063
316.81
317.579
318.371
319.185
320.02
320.876
321.75
322.642
323.549
324.472
325.407
326.353
327.308
328.269
329.235
330.204
331.174
332.141
333.105
334.062
335.011
300.025
300.076
300.129
300.185
300.243
300.304
300.368
300.435
300.506
300.581
300.66
300.743
300.83
300.922
301.019
301.121
301.228
301.341
301.46
301.585
301.716
301.854
301.998
302.15
302.31
302.477
302.652
302.835
303.028
303.229
303.439
303.66
303.89
304.131
304.383
304.647
304.922
305.21
305.511
305.825
306.153
306.495
306.853
307.226
307.615
308.021
308.444
308.885
309.344
309.821
310.318
310.835
311.372
311.928
312.506
313.104
313.722
314.362
315.022
315.702
316.402
317.122
317.86
318.617
319.391
320.181
320.987
321.806
322.638
323.481
324.335
325.196
326.063
326.936
327.811
328.688
329.565
330.439
331.31
332.174
333.032
300.025
300.076
300.128
300.184
300.242
300.303
300.367
300.434
300.505
300.58
300.659
300.742
300.829
300.921
301.019
301.121
301.229
301.342
301.461
301.587
301.719
301.857
302.003
302.156
302.316
302.483
302.659
302.844
303.036
303.238
303.449
303.67
303.9
304.141
304.393
304.655
304.929
305.215
305.514
305.825
306.149
306.488
306.84
307.206
307.588
307.985
308.398
308.827
309.273
309.736
310.215
310.713
311.228
311.761
312.311
312.88
313.467
314.071
314.693
315.332
315.987
316.659
317.346
318.048
318.765
319.494
320.235
320.987
321.75
322.52
323.299
324.083
324.871
325.663
326.457
327.252
328.045
328.836
329.623
330.405
331.181
300.025
300.075
300.128
300.183
300.241
300.302
300.366
300.433
300.504
300.579
300.658
300.741
300.828
300.921
301.018
301.121
301.229
301.343
301.463
301.589
301.721
301.861
302.007
302.16
302.321
302.49
302.666
302.851
303.044
303.247
303.458
303.679
303.909
304.15
304.401
304.662
304.935
305.219
305.515
305.823
306.143
306.476
306.823
307.183
307.556
307.944
308.346
308.763
309.195
309.642
310.104
310.582
311.076
311.584
312.109
312.649
313.204
313.774
314.358
314.957
315.57
316.196
316.835
317.486
318.148
318.82
319.502
320.193
320.891
321.595
322.305
323.02
323.737
324.457
325.177
325.897
326.616
327.333
328.046
328.754
329.457
300.025
300.075
300.127
300.182
300.24
300.301
300.364
300.431
300.502
300.577
300.656
300.739
300.827
300.919
301.017
301.12
301.228
301.343
301.463
301.59
301.723
301.863
302.01
302.164
302.326
302.495
302.672
302.858
303.052
303.254
303.466
303.686
303.917
304.157
304.407
304.667
304.938
305.22
305.513
305.817
306.133
306.461
306.801
307.154
307.519
307.897
308.288
308.693
309.11
309.542
309.986
310.444
310.916
311.401
311.9
312.411
312.935
313.472
314.022
314.583
315.155
315.738
316.331
316.934
317.546
318.166
318.793
319.427
320.067
320.711
321.36
322.011
322.664
323.319
323.974
324.628
325.28
325.93
326.577
327.22
327.857
300.024
300.074
300.127
300.181
300.239
300.299
300.362
300.429
300.5
300.575
300.653
300.737
300.824
300.917
301.015
301.118
301.227
301.342
301.463
301.59
301.724
301.865
302.012
302.167
302.329
302.499
302.677
302.863
303.057
303.26
303.471
303.692
303.922
304.161
304.41
304.669
304.937
305.217
305.506
305.807
306.118
306.44
306.774
307.119
307.476
307.844
308.224
308.615
309.019
309.434
309.861
310.3
310.75
311.212
311.686
312.17
312.665
313.17
313.686
314.211
314.745
315.288
315.839
316.398
316.963
317.535
318.113
318.695
319.282
319.872
320.464
321.059
321.655
322.251
322.847
323.442
324.035
324.625
325.213
325.797
326.376
300.024
300.074
300.126
300.18
300.237
300.297
300.36
300.427
300.497
300.572
300.65
300.733
300.821
300.914
301.012
301.116
301.225
301.34
301.461
301.589
301.723
301.864
302.013
302.168
302.331
302.501
302.679
302.865
303.06
303.263
303.474
303.694
303.924
304.162
304.409
304.666
304.933
305.209
305.495
305.791
306.098
306.414
306.741
307.078
307.425
307.783
308.152
308.531
308.92
309.32
309.729
310.149
310.579
311.019
311.468
311.926
312.393
312.869
313.352
313.844
314.343
314.849
315.361
315.879
316.402
316.93
317.462
317.998
318.537
319.078
319.62
320.164
320.708
321.252
321.796
322.338
322.878
323.415
323.95
324.481
325.007
300.024
300.073
300.124
300.178
300.235
300.294
300.357
300.424
300.494
300.568
300.646
300.729
300.817
300.91
301.008
301.112
301.221
301.336
301.458
301.586
301.721
301.862
302.011
302.167
302.33
302.5
302.679
302.865
303.06
303.262
303.473
303.693
303.921
304.158
304.404
304.659
304.922
305.195
305.478
305.769
306.07
306.381
306.7
307.029
307.368
307.715
308.072
308.439
308.814
309.198
309.591
309.993
310.403
310.821
311.247
311.68
312.121
312.569
313.023
313.483
313.95
314.421
314.898
315.379
315.863
316.351
316.843
317.336
317.832
318.329
318.826
319.324
319.822
320.32
320.816
321.311
321.803
322.293
322.78
323.264
323.744
300.024
300.072
300.123
300.176
300.232
300.291
300.354
300.42
300.489
300.563
300.641
300.724
300.812
300.904
301.002
301.106
301.215
301.331
301.453
301.581
301.716
301.857
302.006
302.162
302.325
302.496
302.675
302.861
303.055
303.257
303.467
303.686
303.913
304.148
304.392
304.644
304.905
305.175
305.453
305.739
306.035
306.338
306.651
306.972
307.301
307.638
307.984
308.338
308.699
309.068
309.445
309.829
310.22
310.618
311.022
311.432
311.849
312.27
312.697
313.129
313.565
314.005
314.449
314.896
315.346
315.798
316.252
316.708
317.164
317.622
318.079
318.536
318.993
319.449
319.903
320.355
320.805
321.253
321.698
322.139
322.577
300.023
300.071
300.121
300.174
300.229
300.288
300.35
300.415
300.484
300.557
300.635
300.717
300.805
300.897
300.995
301.098
301.208
301.323
301.445
301.573
301.708
301.849
301.998
302.154
302.317
302.488
302.666
302.851
303.045
303.246
303.455
303.673
303.898
304.131
304.372
304.622
304.879
305.145
305.418
305.7
305.989
306.286
306.591
306.903
307.223
307.55
307.885
308.226
308.574
308.929
309.29
309.657
310.03
310.408
310.792
311.181
311.574
311.972
312.373
312.779
313.187
313.599
314.013
314.429
314.847
315.266
315.687
316.108
316.53
316.952
317.373
317.794
318.213
318.631
319.048
319.462
319.875
320.284
320.691
321.094
321.495
300.023
300.07
300.12
300.171
300.226
300.284
300.345
300.409
300.478
300.55
300.627
300.709
300.796
300.888
300.985
301.088
301.197
301.312
301.434
301.561
301.696
301.837
301.986
302.141
302.304
302.473
302.651
302.836
303.028
303.228
303.436
303.651
303.874
304.105
304.343
304.589
304.843
305.104
305.372
305.648
305.931
306.221
306.518
306.822
307.132
307.449
307.772
308.102
308.437
308.777
309.123
309.474
309.83
310.19
310.554
310.923
311.294
311.67
312.048
312.429
312.812
313.197
313.584
313.972
314.361
314.751
315.142
315.532
315.922
316.312
316.701
317.088
317.474
317.859
318.242
318.622
319
319.375
319.748
320.117
320.483
300.023
300.069
300.117
300.168
300.222
300.279
300.339
300.402
300.47
300.542
300.618
300.699
300.785
300.876
300.973
301.075
301.184
301.298
301.419
301.546
301.68
301.82
301.968
302.122
302.284
302.453
302.629
302.812
303.003
303.201
303.407
303.62
303.84
304.067
304.302
304.544
304.793
305.049
305.312
305.582
305.858
306.141
306.43
306.725
307.026
307.332
307.644
307.961
308.283
308.61
308.941
309.276
309.616
309.958
310.304
310.653
311.005
311.359
311.716
312.074
312.434
312.795
313.156
313.519
313.882
314.245
314.607
314.97
315.331
315.692
316.051
316.409
316.765
317.119
317.471
317.821
318.168
318.513
318.854
319.193
319.528
300.022
300.067
300.115
300.165
300.217
300.273
300.332
300.395
300.461
300.532
300.607
300.687
300.772
300.862
300.958
301.059
301.167
301.28
301.4
301.526
301.658
301.798
301.944
302.097
302.257
302.424
302.599
302.78
302.968
303.164
303.367
303.577
303.793
304.017
304.248
304.485
304.729
304.98
305.236
305.499
305.768
306.043
306.323
306.609
306.9
307.196
307.496
307.801
308.11
308.423
308.74
309.06
309.383
309.709
310.037
310.368
310.7
311.035
311.37
311.707
312.045
312.383
312.722
313.061
313.399
313.737
314.075
314.411
314.746
315.08
315.413
315.743
316.072
316.398
316.722
317.044
317.363
317.679
317.993
318.303
318.61
300.022
300.066
300.112
300.16
300.212
300.266
300.324
300.385
300.451
300.52
300.594
300.673
300.756
300.845
300.94
301.04
301.146
301.258
301.376
301.5
301.631
301.769
301.913
302.064
302.222
302.387
302.559
302.738
302.923
303.115
303.315
303.521
303.733
303.952
304.178
304.41
304.648
304.892
305.141
305.397
305.658
305.924
306.195
306.471
306.751
307.035
307.324
307.617
307.912
308.212
308.514
308.818
309.125
309.435
309.746
310.059
310.373
310.688
311.004
311.32
311.637
311.954
312.271
312.587
312.903
313.217
313.531
313.843
314.154
314.463
314.77
315.076
315.379
315.68
315.978
316.274
316.567
316.857
317.145
317.429
317.71
300.021
300.064
300.108
300.156
300.206
300.259
300.315
300.375
300.439
300.507
300.579
300.656
300.738
300.826
300.918
301.017
301.121
301.231
301.347
301.469
301.598
301.734
301.875
302.024
302.179
302.341
302.509
302.684
302.866
303.054
303.249
303.45
303.657
303.871
304.09
304.316
304.547
304.783
305.025
305.272
305.524
305.781
306.042
306.307
306.576
306.848
307.125
307.404
307.686
307.971
308.258
308.547
308.838
309.131
309.425
309.719
310.015
310.311
310.608
310.904
311.201
311.497
311.792
312.087
312.38
312.673
312.964
313.253
313.541
313.826
314.11
314.391
314.671
314.947
315.222
315.493
315.762
316.028
316.291
316.551
316.808
300.02
300.061
300.105
300.151
300.199
300.25
300.305
300.363
300.425
300.492
300.562
300.637
300.718
300.803
300.894
300.99
301.092
301.199
301.313
301.433
301.559
301.691
301.83
301.975
302.127
302.284
302.449
302.619
302.796
302.98
303.169
303.364
303.565
303.772
303.985
304.202
304.426
304.654
304.886
305.124
305.366
305.612
305.861
306.115
306.372
306.631
306.894
307.159
307.427
307.697
307.968
308.241
308.515
308.791
309.067
309.344
309.621
309.898
310.175
310.451
310.727
311.003
311.277
311.55
311.822
312.092
312.361
312.628
312.893
313.156
313.417
313.675
313.932
314.185
314.436
314.684
314.93
315.173
315.413
315.65
315.884
300.019
300.059
300.101
300.145
300.192
300.241
300.294
300.351
300.411
300.475
300.544
300.617
300.695
300.778
300.866
300.96
301.059
301.164
301.274
301.391
301.514
301.643
301.777
301.918
302.066
302.219
302.378
302.544
302.715
302.892
303.075
303.263
303.457
303.657
303.861
304.07
304.284
304.502
304.725
304.952
305.182
305.416
305.654
305.894
306.138
306.384
306.632
306.882
307.134
307.388
307.642
307.898
308.155
308.412
308.67
308.928
309.186
309.443
309.7
309.956
310.211
310.466
310.719
310.97
311.22
311.469
311.715
311.96
312.203
312.443
312.681
312.917
313.15
313.381
313.61
313.835
314.058
314.278
314.496
314.71
314.922
300.019
300.057
300.097
300.139
300.184
300.232
300.283
300.337
300.395
300.457
300.524
300.595
300.67
300.751
300.836
300.927
301.023
301.125
301.232
301.345
301.464
301.589
301.719
301.855
301.998
302.145
302.299
302.458
302.623
302.794
302.969
303.15
303.336
303.526
303.721
303.921
304.124
304.332
304.543
304.758
304.977
305.198
305.422
305.648
305.877
306.108
306.341
306.575
306.81
307.046
307.283
307.521
307.759
307.997
308.235
308.473
308.711
308.947
309.183
309.418
309.652
309.885
310.116
310.346
310.574
310.8
311.024
311.246
311.466
311.684
311.9
312.113
312.324
312.532
312.738
312.941
313.142
313.34
313.535
313.728
313.918
300.018
300.054
300.093
300.133
300.176
300.222
300.271
300.324
300.38
300.44
300.504
300.572
300.645
300.723
300.805
300.893
300.986
301.084
301.188
301.297
301.411
301.531
301.657
301.788
301.925
302.067
302.215
302.367
302.525
302.688
302.856
303.028
303.205
303.386
303.571
303.76
303.953
304.149
304.348
304.551
304.755
304.963
305.172
305.384
305.597
305.811
306.027
306.244
306.461
306.679
306.898
307.116
307.335
307.553
307.771
307.988
308.205
308.42
308.635
308.848
309.06
309.271
309.48
309.687
309.892
310.096
310.297
310.497
310.694
310.89
311.082
311.273
311.461
311.647
311.831
312.012
312.19
312.366
312.54
312.711
312.879
300.017
300.052
300.089
300.128
300.169
300.213
300.26
300.311
300.364
300.422
300.484
300.55
300.62
300.695
300.775
300.86
300.949
301.044
301.144
301.249
301.359
301.475
301.596
301.722
301.853
301.989
302.13
302.276
302.427
302.582
302.742
302.905
303.073
303.245
303.42
303.598
303.779
303.963
304.15
304.339
304.53
304.723
304.917
305.113
305.31
305.508
305.707
305.906
306.106
306.305
306.505
306.704
306.903
307.101
307.299
307.496
307.691
307.886
308.079
308.271
308.461
308.649
308.836
309.021
309.204
309.386
309.565
309.742
309.917
310.09
310.26
310.428
310.594
310.758
310.92
311.079
311.235
311.39
311.541
311.691
311.838
300.016
300.05
300.085
300.123
300.162
300.205
300.25
300.299
300.351
300.407
300.466
300.53
300.598
300.671
300.748
300.83
300.916
301.008
301.104
301.205
301.312
301.423
301.54
301.661
301.787
301.918
302.053
302.193
302.337
302.485
302.637
302.792
302.951
303.114
303.279
303.447
303.617
303.79
303.964
304.141
304.319
304.498
304.679
304.86
305.042
305.224
305.407
305.59
305.773
305.955
306.137
306.318
306.499
306.679
306.857
307.035
307.211
307.385
307.559
307.73
307.9
308.068
308.234
308.398
308.561
308.721
308.879
309.035
309.189
309.341
309.491
309.638
309.783
309.926
310.067
310.205
310.341
310.475
310.607
310.736
310.864
300.016
300.048
300.082
300.119
300.157
300.199
300.243
300.29
300.34
300.395
300.453
300.515
300.581
300.651
300.726
300.806
300.89
300.979
301.073
301.171
301.275
301.383
301.496
301.613
301.735
301.862
301.992
302.127
302.266
302.408
302.554
302.703
302.854
303.009
303.166
303.326
303.487
303.651
303.815
303.982
304.149
304.318
304.487
304.656
304.826
304.996
305.165
305.335
305.504
305.672
305.84
306.006
306.172
306.336
306.499
306.661
306.821
306.979
307.136
307.291
307.444
307.596
307.745
307.892
308.037
308.181
308.322
308.461
308.597
308.732
308.864
308.994
309.122
309.248
309.372
309.493
309.612
309.729
309.844
309.956
310.067
300.016
300.047
300.081
300.116
300.154
300.195
300.238
300.285
300.334
300.388
300.445
300.506
300.571
300.641
300.714
300.793
300.876
300.963
301.055
301.152
301.254
301.36
301.471
301.586
301.706
301.83
301.958
302.09
302.226
302.364
302.506
302.652
302.799
302.95
303.102
303.257
303.413
303.571
303.731
303.891
304.052
304.214
304.377
304.539
304.702
304.864
305.027
305.188
305.349
305.509
305.668
305.826
305.983
306.138
306.292
306.444
306.595
306.744
306.891
307.036
307.179
307.321
307.46
307.597
307.732
307.865
307.996
308.124
308.25
308.375
308.497
308.616
308.734
308.849
308.962
309.073
309.182
309.289
309.394
309.496
309.597
394.596
402.67
409.452
415.349
420.565
425.208
429.34
432.994
436.186
438.914
441.167
442.922
444.145
444.786
444.779
444.036
442.427
439.76
435.708
429.617
419.848
413.095
407.816
403.405
399.574
396.159
393.058
390.203
387.545
385.046
382.679
380.424
378.263
376.182
374.17
372.218
370.319
368.466
366.654
364.879
363.136
361.422
359.734
358.069
356.426
354.802
353.197
351.61
350.039
348.486
346.951
345.434
343.936
342.459
341.003
339.571
338.163
336.782
335.429
334.107
332.815
331.556
330.332
329.142
327.989
326.873
325.795
324.754
323.752
322.787
321.861
320.972
320.12
319.304
318.524
317.778
317.065
316.384
315.735
315.114
314.523
313.958
313.419
312.904
312.412
311.942
311.492
311.062
310.649
310.254
309.874
309.509
309.158
308.82
308.495
308.181
307.877
307.584
307.301
307.026
306.76
306.502
306.252
306.009
305.773
305.544
305.322
305.105
304.895
304.691
304.492
304.299
304.111
303.929
303.752
303.581
303.414
303.252
303.096
302.944
302.797
302.654
302.517
302.384
302.256
302.132
302.013
301.899
301.788
301.682
301.581
301.483
301.39
301.301
301.216
301.135
301.058
300.984
300.914
300.848
300.786
300.726
300.671
300.618
300.568
300.522
300.478
300.437
300.399
300.364
300.331
300.3
300.271
300.245
300.221
300.198
300.178
300.159
300.142
300.126
300.112
389.838
396.876
403.194
408.851
413.929
418.488
422.567
426.188
429.36
432.081
434.335
436.1
437.341
438.012
438.05
437.374
435.872
433.391
429.718
424.591
417.97
412.184
407.281
403.051
399.321
395.97
392.912
390.087
387.45
384.968
382.615
380.369
378.216
376.142
374.135
372.188
370.292
368.442
366.633
364.86
363.119
361.407
359.72
358.057
356.414
354.792
353.187
351.6
350.03
348.477
346.942
345.425
343.927
342.449
340.994
339.561
338.154
336.773
335.42
334.097
332.805
331.547
330.322
329.133
327.98
326.864
325.786
324.745
323.743
322.779
321.853
320.964
320.113
319.297
318.517
317.772
317.059
316.379
315.73
315.11
314.519
313.954
313.415
312.901
312.409
311.939
311.49
311.059
310.647
310.252
309.872
309.508
309.157
308.819
308.494
308.18
307.877
307.584
307.3
307.026
306.76
306.502
306.252
306.009
305.773
305.544
305.322
305.105
304.895
304.691
304.492
304.299
304.112
303.929
303.752
303.581
303.414
303.252
303.096
302.944
302.797
302.655
302.517
302.384
302.256
302.132
302.013
301.899
301.788
301.682
301.581
301.483
301.39
301.301
301.216
301.135
301.058
300.984
300.914
300.848
300.786
300.727
300.671
300.618
300.568
300.522
300.478
300.437
300.399
300.364
300.331
300.3
300.271
300.245
300.221
300.198
300.178
300.159
300.142
300.126
300.112
385.721
391.767
397.458
402.719
407.538
411.924
415.885
419.428
422.551
425.245
427.493
429.271
430.545
431.272
431.397
430.852
429.552
427.397
424.286
420.18
415.3
410.548
406.212
402.307
398.778
395.558
392.591
389.832
387.244
384.799
382.474
380.251
378.116
376.055
374.061
372.123
370.236
368.393
366.589
364.821
363.084
361.375
359.691
358.03
356.39
354.769
353.165
351.579
350.01
348.458
346.923
345.406
343.908
342.43
340.974
339.541
338.134
336.753
335.4
334.077
332.785
331.527
330.302
329.113
327.961
326.845
325.768
324.728
323.726
322.763
321.838
320.95
320.099