/*--------------------------------*- C++ -*----------------------------------*\
  =========                 |
  \\      /  F ield         | OpenFOAM: The Open Source CFD Toolbox
   \\    /   O peration     | Website:  https://openfoam.org
    \\  /    A nd           | Version:  7
     \\/     M anipulation  |
\*---------------------------------------------------------------------------*/
FoamFile
{
    version     2.0;
    format      ascii;
    class       volScalarField;
    location    "6.38";
    object      T;
}
// * * * * * * * * * * * * * * * * * * * * * * * * * * * * * * * * * * * * * //

dimensions      [0 0 0 1 0 0 0];

internalField   nonuniform List<scalar> 
12013
(
300.105
300.318
300.537
300.759
300.983
301.207
301.431
301.652
301.87
302.085
302.294
302.499
302.699
302.893
303.08
303.262
303.438
303.607
303.771
303.929
304.081
304.228
304.37
304.508
304.64
304.769
304.894
305.015
305.134
305.25
305.363
305.475
305.587
305.697
305.808
305.92
306.033
306.149
306.268
306.392
306.522
306.659
306.804
306.959
307.126
307.307
307.504
307.719
307.954
308.213
308.499
308.815
309.164
309.55
309.978
310.452
310.978
311.561
312.206
312.921
313.712
314.587
315.554
316.622
317.802
319.105
320.542
322.127
323.877
325.807
327.937
330.292
332.898
335.788
339.003
342.594
346.631
351.209
356.474
362.669
370.255
300.105
300.319
300.537
300.76
300.983
301.208
301.431
301.653
301.871
302.086
302.296
302.501
302.7
302.894
303.082
303.264
303.439
303.609
303.773
303.931
304.083
304.231
304.373
304.51
304.643
304.771
304.896
305.018
305.136
305.252
305.366
305.478
305.589
305.699
305.81
305.922
306.035
306.151
306.27
306.394
306.524
306.66
306.806
306.961
307.128
307.308
307.505
307.72
307.955
308.214
308.499
308.814
309.163
309.549
309.976
310.45
310.975
311.557
312.201
312.914
313.704
314.577
315.542
316.608
317.785
319.083
320.516
322.096
323.838
325.759
327.879
330.219
332.806
335.671
338.851
342.393
346.355
350.813
355.868
361.643
368.248
300.105
300.319
300.538
300.76
300.985
301.209
301.433
301.654
301.873
302.088
302.298
302.504
302.703
302.897
303.085
303.267
303.443
303.613
303.777
303.935
304.088
304.235
304.377
304.515
304.647
304.776
304.901
305.023
305.141
305.257
305.371
305.483
305.594
305.704
305.815
305.926
306.04
306.155
306.275
306.398
306.528
306.664
306.809
306.964
307.131
307.311
307.508
307.722
307.957
308.215
308.5
308.814
309.162
309.546
309.973
310.445
310.968
311.548
312.19
312.9
313.686
314.555
315.516
316.576
317.746
319.036
320.459
322.026
323.753
325.655
327.75
330.059
332.606
335.417
338.524
341.964
345.78
350.017
354.724
359.927
365.587
300.105
300.32
300.539
300.762
300.986
301.211
301.435
301.658
301.877
302.092
302.303
302.508
302.708
302.903
303.091
303.274
303.45
303.62
303.784
303.942
304.095
304.243
304.385
304.522
304.655
304.784
304.909
305.031
305.149
305.265
305.379
305.491
305.602
305.712
305.823
305.934
306.047
306.163
306.282
306.406
306.535
306.671
306.816
306.97
307.136
307.316
307.512
307.725
307.959
308.217
308.5
308.813
309.159
309.542
309.966
310.436
310.956
311.533
312.171
312.877
313.657
314.52
315.472
316.523
317.682
318.959
320.365
321.912
323.614
325.485
327.541
329.801
332.285
335.013
338.011
341.303
344.914
348.866
353.166
357.795
362.681
300.106
300.32
300.54
300.764
300.989
301.215
301.439
301.662
301.882
302.098
302.309
302.515
302.716
302.911
303.1
303.283
303.459
303.63
303.794
303.953
304.106
304.254
304.396
304.534
304.667
304.796
304.921
305.043
305.161
305.277
305.391
305.503
305.614
305.724
305.835
305.946
306.059
306.174
306.293
306.416
306.545
306.681
306.825
306.979
307.144
307.323
307.518
307.73
307.963
308.219
308.501
308.812
309.156
309.536
309.957
310.424
310.94
311.511
312.143
312.842
313.615
314.468
315.409
316.447
317.589
318.847
320.229
321.747
323.414
325.241
327.244
329.436
331.834
334.453
337.309
340.417
343.787
347.422
351.309
355.415
359.673
300.106
300.322
300.542
300.767
300.993
301.219
301.445
301.668
301.889
302.106
302.318
302.525
302.726
302.922
303.112
303.295
303.472
303.643
303.808
303.968
304.121
304.269
304.412
304.55
304.684
304.813
304.938
305.06
305.178
305.294
305.408
305.52
305.631
305.741
305.851
305.962
306.075
306.19
306.308
306.431
306.559
306.695
306.838
306.991
307.156
307.333
307.527
307.738
307.969
308.223
308.502
308.811
309.151
309.528
309.945
310.406
310.917
311.482
312.106
312.796
313.558
314.398
315.324
316.343
317.464
318.695
320.046
321.527
323.147
324.918
326.852
328.959
331.25
333.737
336.428
339.328
342.439
345.751
349.245
352.886
356.622
300.107
300.323
300.545
300.77
300.997
301.225
301.452
301.677
301.898
302.116
302.329
302.538
302.74
302.937
303.127
303.312
303.49
303.661
303.827
303.987
304.141
304.29
304.433
304.571
304.705
304.835
304.96
305.082
305.201
305.317
305.431
305.543
305.653
305.763
305.873
305.984
306.096
306.211
306.329
306.451
306.579
306.713
306.855
307.007
307.171
307.347
307.539
307.748
307.976
308.228
308.504
308.809
309.146
309.518
309.93
310.385
310.888
311.444
312.058
312.736
313.483
314.307
315.213
316.209
317.303
318.501
319.813
321.246
322.809
324.512
326.362
328.368
330.537
332.875
335.384
338.064
340.91
343.909
347.039
350.27
353.563
300.107
300.325
300.548
300.775
301.004
301.233
301.461
301.687
301.911
302.13
302.345
302.554
302.758
302.956
303.148
303.333
303.512
303.685
303.851
304.012
304.167
304.316
304.46
304.599
304.733
304.863
304.989
305.111
305.23
305.346
305.46
305.572
305.682
305.792
305.902
306.012
306.124
306.238
306.355
306.477
306.603
306.737
306.878
307.028
307.19
307.365
307.554
307.761
307.987
308.235
308.507
308.808
309.14
309.506
309.91
310.357
310.851
311.396
311.998
312.661
313.391
314.194
315.076
316.044
317.103
318.262
319.526
320.903
322.399
324.022
325.777
327.67
329.703
331.88
334.199
336.656
339.242
341.944
344.743
347.612
350.522
300.108
300.328
300.553
300.781
301.012
301.243
301.473
301.701
301.926
302.147
302.364
302.575
302.78
302.98
303.173
303.36
303.54
303.714
303.882
304.044
304.2
304.35
304.494
304.634
304.769
304.899
305.025
305.148
305.267
305.383
305.497
305.609
305.719
305.829
305.938
306.048
306.159
306.273
306.389
306.509
306.635
306.767
306.907
307.055
307.215
307.388
307.574
307.778
308
308.244
308.512
308.807
309.133
309.492
309.888
310.325
310.807
311.339
311.925
312.57
313.279
314.057
314.911
315.844
316.864
317.976
319.185
320.497
321.918
323.451
325.101
326.871
328.761
330.771
332.897
335.135
337.473
339.899
342.396
344.944
347.52
300.109
300.331
300.558
300.789
301.022
301.255
301.487
301.718
301.945
302.169
302.388
302.601
302.809
303.01
303.205
303.394
303.576
303.751
303.92
304.083
304.24
304.392
304.537
304.678
304.813
304.944
305.071
305.194
305.313
305.429
305.543
305.655
305.765
305.874
305.983
306.093
306.203
306.316
306.431
306.551
306.675
306.805
306.943
307.09
307.247
307.417
307.6
307.8
308.018
308.257
308.52
308.808
309.126
309.476
309.862
310.288
310.756
311.272
311.84
312.464
313.148
313.897
314.717
315.611
316.585
317.644
318.791
320.032
321.369
322.806
324.344
325.985
327.727
329.569
331.506
333.531
335.636
337.807
340.032
342.294
344.575
300.11
300.335
300.564
300.798
301.034
301.27
301.505
301.739
301.969
302.195
302.417
302.633
302.843
303.047
303.244
303.435
303.619
303.797
303.968
304.132
304.291
304.443
304.59
304.731
304.868
304.999
305.127
305.25
305.37
305.486
305.6
305.712
305.822
305.931
306.04
306.148
306.258
306.37
306.484
306.602
306.724
306.853
306.988
307.133
307.287
307.453
307.633
307.829
308.042
308.275
308.531
308.811
309.12
309.46
309.834
310.246
310.699
311.197
311.743
312.342
312.998
313.714
314.496
315.346
316.27
317.27
318.349
319.512
320.76
322.095
323.517
325.027
326.621
328.298
330.051
331.876
333.762
335.7
337.679
339.685
341.705
300.112
300.339
300.572
300.809
301.048
301.288
301.527
301.764
301.998
302.228
302.453
302.672
302.885
303.092
303.292
303.486
303.672
303.852
304.025
304.192
304.352
304.506
304.654
304.797
304.935
305.067
305.195
305.319
305.439
305.556
305.67
305.782
305.892
306
306.108
306.216
306.325
306.435
306.548
306.664
306.785
306.911
307.045
307.186
307.337
307.499
307.675
307.865
308.072
308.299
308.547
308.819
309.117
309.445
309.806
310.202
310.636
311.113
311.636
312.207
312.831
313.511
314.25
315.053
315.921
316.857
317.865
318.946
320.102
321.332
322.637
324.015
325.464
326.98
328.56
330.195
331.88
333.605
335.362
337.14
338.928
300.114
300.345
300.582
300.823
301.066
301.31
301.554
301.795
302.033
302.267
302.496
302.719
302.936
303.146
303.35
303.547
303.736
303.919
304.095
304.264
304.426
304.582
304.732
304.877
305.016
305.149
305.278
305.403
305.524
305.641
305.755
305.867
305.976
306.084
306.192
306.299
306.407
306.516
306.627
306.741
306.86
306.984
307.114
307.252
307.399
307.557
307.727
307.912
308.112
308.331
308.57
308.832
309.119
309.433
309.778
310.157
310.571
311.025
311.521
312.062
312.651
313.291
313.985
314.735
315.545
316.415
317.348
318.345
319.406
320.531
321.719
322.969
324.277
325.641
327.056
328.517
330.016
331.548
333.105
334.678
336.259
300.116
300.352
300.593
300.839
301.088
301.337
301.585
301.832
302.075
302.314
302.547
302.775
302.997
303.212
303.419
303.62
303.813
303.999
304.178
304.35
304.515
304.674
304.826
304.972
305.113
305.248
305.378
305.504
305.625
305.743
305.858
305.969
306.078
306.186
306.293
306.399
306.505
306.613
306.722
306.835
306.951
307.072
307.198
307.333
307.475
307.628
307.793
307.971
308.164
308.374
308.603
308.853
309.127
309.427
309.755
310.114
310.507
310.935
311.402
311.91
312.462
313.059
313.705
314.402
315.15
315.952
316.809
317.72
318.687
319.708
320.783
321.909
323.084
324.304
325.566
326.865
328.195
329.552
330.928
332.318
333.715
300.119
300.36
300.607
300.859
301.113
301.369
301.623
301.876
302.125
302.37
302.609
302.843
303.07
303.29
303.502
303.708
303.905
304.096
304.278
304.454
304.622
304.784
304.939
305.087
305.23
305.367
305.498
305.625
305.747
305.866
305.98
306.092
306.201
306.308
306.414
306.519
306.624
306.73
306.838
306.947
307.061
307.178
307.302
307.431
307.569
307.717
307.875
308.045
308.23
308.431
308.649
308.887
309.147
309.43
309.74
310.078
310.447
310.848
311.284
311.757
312.27
312.824
313.42
314.061
314.747
315.48
316.261
317.088
317.962
318.883
319.848
320.857
321.906
322.992
324.112
325.263
326.44
327.638
328.852
330.078
331.31
300.122
300.369
300.624
300.882
301.144
301.406
301.668
301.928
302.184
302.436
302.682
302.923
303.156
303.382
303.601
303.812
304.015
304.21
304.397
304.577
304.749
304.914
305.072
305.224
305.369
305.508
305.641
305.769
305.893
306.012
306.127
306.238
306.347
306.454
306.559
306.663
306.767
306.871
306.976
307.083
307.193
307.307
307.426
307.552
307.684
307.825
307.977
308.139
308.315
308.505
308.712
308.936
309.181
309.447
309.738
310.053
310.397
310.77
311.174
311.611
312.084
312.592
313.138
313.723
314.348
315.013
315.718
316.463
317.249
318.073
318.935
319.833
320.764
321.727
322.718
323.733
324.771
325.826
326.895
327.973
329.058
300.126
300.381
300.643
300.91
301.18
301.451
301.721
301.989
302.254
302.515
302.769
303.017
303.258
303.492
303.718
303.935
304.144
304.345
304.538
304.723
304.9
305.069
305.231
305.386
305.533
305.675
305.81
305.94
306.065
306.185
306.3
306.412
306.521
306.627
306.731
306.834
306.936
307.038
307.141
307.245
307.352
307.462
307.577
307.697
307.824
307.959
308.102
308.256
308.422
308.602
308.796
309.006
309.235
309.483
309.753
310.046
310.364
310.707
311.079
311.48
311.911
312.375
312.871
313.4
313.964
314.562
315.195
315.862
316.563
317.297
318.062
318.857
319.68
320.529
321.402
322.295
323.207
324.133
325.072
326.019
326.972
300.13
300.394
300.666
300.943
301.222
301.503
301.784
302.062
302.337
302.607
302.871
303.129
303.379
303.621
303.855
304.081
304.297
304.505
304.705
304.895
305.078
305.252
305.418
305.576
305.728
305.872
306.01
306.142
306.268
306.389
306.505
306.617
306.726
306.832
306.935
307.036
307.137
307.236
307.337
307.438
307.541
307.648
307.758
307.872
307.993
308.121
308.256
308.402
308.557
308.725
308.906
309.102
309.314
309.544
309.793
310.062
310.354
310.668
311.007
311.372
311.763
312.182
312.629
313.105
313.61
314.145
314.709
315.302
315.923
316.572
317.247
317.948
318.672
319.418
320.183
320.966
321.765
322.576
323.398
324.228
325.064
300.135
300.41
300.693
300.981
301.272
301.565
301.857
302.148
302.434
302.716
302.992
303.26
303.521
303.773
304.017
304.252
304.477
304.693
304.9
305.098
305.287
305.466
305.638
305.801
305.956
306.104
306.244
306.378
306.506
306.629
306.746
306.858
306.967
307.072
307.174
307.274
307.373
307.471
307.568
307.666
307.766
307.868
307.973
308.082
308.196
308.316
308.444
308.58
308.725
308.881
309.049
309.23
309.425
309.636
309.864
310.11
310.375
310.661
310.967
311.296
311.648
312.024
312.424
312.849
313.298
313.773
314.272
314.796
315.344
315.915
316.508
317.123
317.757
318.409
319.079
319.763
320.46
321.169
321.887
322.612
323.343
300.141
300.429
300.725
301.026
301.331
301.638
301.944
302.248
302.549
302.844
303.133
303.414
303.687
303.952
304.207
304.452
304.688
304.914
305.129
305.335
305.531
305.717
305.894
306.063
306.222
306.374
306.518
306.655
306.785
306.909
307.027
307.14
307.248
307.353
307.455
307.553
307.65
307.745
307.84
307.935
308.03
308.128
308.228
308.331
308.438
308.551
308.67
308.797
308.931
309.075
309.23
309.396
309.575
309.767
309.974
310.197
310.436
310.693
310.969
311.263
311.578
311.913
312.268
312.645
313.042
313.461
313.901
314.361
314.842
315.342
315.86
316.397
316.95
317.518
318.101
318.697
319.304
319.921
320.547
321.179
321.817
300.149
300.451
300.762
301.079
301.4
301.722
302.045
302.366
302.682
302.993
303.298
303.594
303.882
304.16
304.429
304.687
304.934
305.17
305.396
305.611
305.815
306.009
306.193
306.367
306.532
306.688
306.836
306.976
307.108
307.234
307.353
307.467
307.576
307.68
307.78
307.878
307.972
308.065
308.157
308.248
308.34
308.433
308.527
308.625
308.725
308.831
308.941
309.058
309.182
309.314
309.456
309.607
309.769
309.943
310.13
310.33
310.545
310.775
311.021
311.283
311.562
311.859
312.172
312.504
312.854
313.221
313.606
314.009
314.428
314.864
315.316
315.782
316.263
316.757
317.263
317.78
318.307
318.843
319.386
319.936
320.491
300.157
300.476
300.805
301.14
301.48
301.822
302.163
302.503
302.838
303.167
303.49
303.804
304.109
304.403
304.687
304.959
305.22
305.469
305.706
305.931
306.145
306.347
306.539
306.72
306.89
307.051
307.203
307.346
307.481
307.609
307.73
307.845
307.953
308.057
308.157
308.253
308.346
308.436
308.525
308.613
308.7
308.788
308.877
308.969
309.063
309.16
309.263
309.37
309.484
309.604
309.732
309.869
310.015
310.172
310.34
310.519
310.71
310.915
311.133
311.364
311.611
311.871
312.147
312.438
312.744
313.065
313.4
313.751
314.115
314.494
314.886
315.29
315.706
316.134
316.572
317.02
317.476
317.94
318.411
318.888
319.37
300.167
300.506
300.855
301.212
301.573
301.937
302.301
302.662
303.019
303.37
303.714
304.048
304.372
304.685
304.986
305.275
305.551
305.814
306.064
306.301
306.525
306.737
306.937
307.125
307.302
307.469
307.625
307.772
307.91
308.04
308.163
308.278
308.387
308.491
308.59
308.684
308.775
308.863
308.949
309.033
309.116
309.199
309.283
309.369
309.456
309.546
309.64
309.738
309.842
309.951
310.067
310.19
310.321
310.461
310.61
310.769
310.939
311.12
311.312
311.516
311.732
311.961
312.202
312.455
312.722
313.001
313.292
313.596
313.912
314.24
314.578
314.928
315.288
315.657
316.035
316.422
316.816
317.217
317.625
318.037
318.454
300.178
300.541
300.914
301.296
301.682
302.072
302.461
302.848
303.231
303.606
303.974
304.331
304.677
305.011
305.332
305.639
305.932
306.211
306.476
306.726
306.962
307.184
307.393
307.59
307.774
307.946
308.107
308.259
308.4
308.532
308.656
308.773
308.882
308.985
309.083
309.176
309.265
309.35
309.433
309.514
309.593
309.672
309.75
309.83
309.911
309.994
310.079
310.169
310.262
310.361
310.465
310.575
310.692
310.816
310.948
311.089
311.239
311.398
311.567
311.745
311.934
312.133
312.343
312.564
312.795
313.037
313.29
313.553
313.825
314.108
314.401
314.702
315.012
315.331
315.657
315.99
316.33
316.676
317.027
317.384
317.744
300.192
300.582
300.983
301.393
301.809
302.228
302.647
303.064
303.476
303.88
304.275
304.658
305.03
305.388
305.731
306.059
306.371
306.667
306.947
307.212
307.461
307.694
307.914
308.118
308.31
308.489
308.655
308.811
308.955
309.09
309.216
309.333
309.443
309.546
309.643
309.734
309.821
309.904
309.984
310.061
310.136
310.21
310.283
310.357
310.431
310.507
310.586
310.666
310.751
310.839
310.932
311.03
311.134
311.244
311.361
311.485
311.616
311.755
311.903
312.059
312.224
312.397
312.579
312.771
312.971
313.18
313.398
313.625
313.861
314.104
314.356
314.616
314.883
315.157
315.438
315.725
316.017
316.316
316.618
316.926
317.237
300.207
300.629
301.063
301.507
301.957
302.41
302.864
303.314
303.759
304.196
304.622
305.036
305.436
305.82
306.188
306.539
306.872
307.187
307.485
307.765
308.028
308.273
308.503
308.717
308.916
309.101
309.273
309.433
309.581
309.718
309.846
309.964
310.074
310.176
310.272
310.362
310.447
310.527
310.604
310.677
310.748
310.818
310.886
310.955
311.023
311.092
311.163
311.236
311.312
311.391
311.474
311.561
311.652
311.749
311.852
311.961
312.076
312.198
312.327
312.462
312.606
312.756
312.914
313.08
313.253
313.434
313.622
313.818
314.021
314.231
314.448
314.672
314.901
315.137
315.379
315.626
315.878
316.134
316.395
316.66
316.929
300.225
300.684
301.156
301.638
302.128
302.621
303.114
303.604
304.087
304.561
305.023
305.47
305.902
306.315
306.711
307.087
307.443
307.779
308.095
308.391
308.668
308.926
309.167
309.39
309.597
309.789
309.966
310.13
310.281
310.421
310.55
310.669
310.779
310.881
310.975
311.064
311.146
311.224
311.297
311.367
311.435
311.5
311.563
311.626
311.689
311.752
311.816
311.882
311.95
312.02
312.094
312.171
312.252
312.337
312.427
312.523
312.623
312.73
312.842
312.96
313.085
313.215
313.352
313.496
313.646
313.802
313.965
314.134
314.309
314.49
314.677
314.87
315.067
315.271
315.479
315.691
315.908
316.129
316.354
316.583
316.814
300.246
300.748
301.264
301.791
302.327
302.865
303.404
303.939
304.465
304.981
305.482
305.967
306.434
306.88
307.306
307.708
308.089
308.447
308.782
309.095
309.387
309.659
309.91
310.143
310.358
310.556
310.738
310.906
311.06
311.201
311.331
311.45
311.56
311.661
311.755
311.841
311.921
311.996
312.067
312.133
312.197
312.258
312.317
312.375
312.433
312.49
312.548
312.607
312.668
312.731
312.796
312.864
312.935
313.011
313.09
313.174
313.262
313.355
313.453
313.556
313.664
313.778
313.897
314.021
314.151
314.287
314.428
314.574
314.725
314.882
315.043
315.209
315.38
315.556
315.735
315.918
316.106
316.296
316.491
316.688
316.887
300.271
300.822
301.389
301.969
302.557
303.148
303.739
304.324
304.9
305.463
306.009
306.535
307.04
307.522
307.979
308.411
308.817
309.198
309.553
309.884
310.19
310.474
310.736
310.978
311.2
311.403
311.59
311.761
311.917
312.06
312.191
312.31
312.419
312.519
312.611
312.696
312.773
312.846
312.913
312.976
313.036
313.094
313.149
313.202
313.255
313.307
313.36
313.413
313.468
313.524
313.582
313.643
313.706
313.773
313.842
313.916
313.994
314.075
314.161
314.251
314.346
314.445
314.549
314.658
314.771
314.889
315.012
315.139
315.27
315.406
315.546
315.69
315.838
315.99
316.145
316.304
316.466
316.631
316.799
316.969
317.142
300.299
300.908
301.534
302.174
302.823
303.475
304.125
304.768
305.399
306.014
306.609
307.182
307.728
308.248
308.739
309.2
309.633
310.036
310.412
310.759
311.08
311.376
311.648
311.897
312.125
312.334
312.524
312.697
312.855
312.998
313.129
313.248
313.356
313.454
313.544
313.627
313.702
313.772
313.837
313.897
313.954
314.007
314.059
314.109
314.157
314.206
314.254
314.302
314.352
314.402
314.454
314.509
314.565
314.625
314.687
314.752
314.821
314.893
314.969
315.049
315.132
315.22
315.311
315.407
315.506
315.61
315.717
315.828
315.943
316.061
316.184
316.309
316.438
316.571
316.706
316.844
316.985
317.128
317.274
317.423
317.573
300.332
301.007
301.702
302.412
303.13
303.851
304.569
305.277
305.97
306.643
307.292
307.913
308.504
309.063
309.589
310.082
310.541
310.967
311.361
311.724
312.058
312.364
312.644
312.9
313.133
313.344
313.537
313.712
313.87
314.013
314.143
314.261
314.367
314.464
314.552
314.632
314.706
314.773
314.835
314.893
314.947
314.998
315.046
315.093
315.139
315.184
315.228
315.273
315.319
315.365
315.413
315.463
315.514
315.568
315.624
315.683
315.745
315.81
315.878
315.949
316.024
316.102
316.184
316.268
316.357
316.448
316.543
316.641
316.743
316.847
316.955
317.066
317.179
317.295
317.414
317.535
317.658
317.784
317.911
318.041
318.172
300.37
301.123
301.897
302.687
303.485
304.285
305.079
305.86
306.621
307.358
308.065
308.738
309.375
309.975
310.536
311.058
311.542
311.989
312.4
312.777
313.122
313.436
313.722
313.982
314.218
314.431
314.625
314.799
314.957
315.099
315.228
315.344
315.448
315.543
315.629
315.708
315.779
315.844
315.905
315.96
316.013
316.062
316.109
316.154
316.197
316.24
316.283
316.325
316.369
316.412
316.457
316.504
316.552
316.602
316.654
316.709
316.766
316.825
316.888
316.953
317.021
317.092
317.166
317.242
317.322
317.404
317.49
317.578
317.668
317.762
317.858
317.956
318.057
318.16
318.265
318.372
318.481
318.591
318.704
318.818
318.933
300.414
301.256
302.122
303.004
303.894
304.783
305.662
306.524
307.361
308.165
308.933
309.661
310.345
310.985
311.579
312.129
312.636
313.101
313.526
313.913
314.265
314.585
314.874
315.136
315.372
315.586
315.778
315.951
316.107
316.247
316.374
316.488
316.591
316.684
316.769
316.845
316.916
316.98
317.039
317.094
317.146
317.195
317.241
317.285
317.329
317.371
317.413
317.455
317.498
317.541
317.585
317.63
317.677
317.725
317.775
317.827
317.881
317.938
317.996
318.058
318.121
318.187
318.255
318.326
318.4
318.475
318.553
318.633
318.716
318.8
318.887
318.976
319.066
319.158
319.252
319.348
319.445
319.544
319.643
319.744
319.846
300.465
301.411
302.381
303.369
304.363
305.352
306.327
307.278
308.195
309.072
309.903
310.685
311.415
312.092
312.717
313.291
313.815
314.293
314.727
315.121
315.477
315.798
316.088
316.348
316.583
316.794
316.984
317.154
317.307
317.446
317.57
317.682
317.784
317.876
317.959
318.036
318.106
318.17
318.23
318.286
318.338
318.388
318.436
318.482
318.527
318.571
318.614
318.658
318.701
318.746
318.791
318.836
318.884
318.932
318.982
319.034
319.087
319.142
319.2
319.259
319.32
319.383
319.448
319.515
319.583
319.654
319.727
319.801
319.877
319.955
320.035
320.116
320.198
320.282
320.367
320.454
320.541
320.629
320.719
320.809
320.9
300.524
301.588
302.68
303.788
304.899
306.001
307.081
308.127
309.129
310.08
310.974
311.808
312.579
313.289
313.938
314.529
315.066
315.551
315.988
316.383
316.737
317.056
317.343
317.6
317.83
318.037
318.223
318.39
318.541
318.676
318.799
318.91
319.011
319.103
319.187
319.264
319.336
319.402
319.465
319.523
319.579
319.632
319.683
319.732
319.78
319.828
319.875
319.922
319.969
320.017
320.065
320.114
320.163
320.214
320.266
320.319
320.373
320.429
320.486
320.545
320.605
320.667
320.73
320.795
320.861
320.929
320.997
321.068
321.139
321.212
321.286
321.361
321.437
321.514
321.591
321.67
321.749
321.829
321.91
321.991
322.072
300.592
301.792
303.022
304.266
305.509
306.735
307.929
309.076
310.165
311.189
312.142
313.02
313.825
314.559
315.225
315.825
316.364
316.848
317.283
317.672
318.02
318.332
318.611
318.862
319.087
319.289
319.471
319.635
319.783
319.917
320.039
320.15
320.252
320.346
320.433
320.513
320.589
320.659
320.726
320.789
320.85
320.909
320.965
321.02
321.074
321.128
321.18
321.233
321.285
321.338
321.391
321.444
321.498
321.552
321.607
321.663
321.72
321.778
321.836
321.896
321.956
322.018
322.081
322.144
322.209
322.274
322.34
322.407
322.475
322.544
322.613
322.683
322.754
322.825
322.896
322.968
323.041
323.113
323.186
323.259
323.332
300.669
302.025
303.411
304.81
306.199
307.56
308.874
310.123
311.297
312.388
313.391
314.302
315.126
315.868
316.534
317.131
317.665
318.142
318.567
318.947
319.286
319.59
319.861
320.105
320.324
320.521
320.699
320.861
321.008
321.142
321.265
321.379
321.484
321.582
321.673
321.758
321.839
321.916
321.99
322.06
322.128
322.193
322.257
322.32
322.381
322.442
322.502
322.561
322.62
322.679
322.737
322.796
322.855
322.914
322.973
323.033
323.092
323.153
323.213
323.274
323.336
323.398
323.46
323.523
323.586
323.65
323.714
323.779
323.843
323.908
323.974
324.039
324.105
324.17
324.236
324.302
324.368
324.434
324.499
324.565
324.63
300.756
302.289
303.853
305.422
306.972
308.476
309.913
311.261
312.503
313.636
314.663
315.588
316.417
317.157
317.817
318.404
318.926
319.39
319.802
320.17
320.497
320.79
321.053
321.289
321.503
321.696
321.872
322.032
322.179
322.315
322.441
322.558
322.668
322.771
322.869
322.961
323.049
323.134
323.215
323.294
323.37
323.444
323.516
323.587
323.656
323.724
323.792
323.858
323.924
323.989
324.054
324.118
324.182
324.246
324.309
324.372
324.434
324.497
324.559
324.622
324.684
324.746
324.809
324.871
324.933
324.995
325.056
325.118
325.18
325.241
325.302
325.363
325.424
325.485
325.545
325.605
325.665
325.724
325.783
325.841
325.899
300.854
302.585
304.346
306.104
307.826
309.47
311.003
312.414
313.698
314.857
315.895
316.821
317.643
318.372
319.016
319.586
320.089
320.536
320.931
321.284
321.598
321.88
322.133
322.362
322.57
322.759
322.933
323.094
323.242
323.381
323.51
323.632
323.747
323.857
323.961
324.061
324.156
324.249
324.338
324.425
324.509
324.591
324.671
324.749
324.826
324.902
324.976
325.049
325.12
325.191
325.261
325.33
325.398
325.465
325.531
325.597
325.662
325.726
325.79
325.853
325.915
325.977
326.038
326.099
326.16
326.22
326.279
326.338
326.396
326.454
326.511
326.567
326.623
326.679
326.734
326.788
326.841
326.894
326.947
326.999
327.05
300.957
302.901
304.876
306.834
308.698
310.439
312.04
313.494
314.8
315.965
316.997
317.909
318.712
319.418
320.038
320.584
321.065
321.491
321.868
322.203
322.504
322.774
323.018
323.239
323.442
323.628
323.8
323.96
324.11
324.251
324.384
324.509
324.629
324.744
324.854
324.96
325.062
325.16
325.256
325.349
325.44
325.528
325.614
325.698
325.781
325.861
325.941
326.018
326.094
326.169
326.242
326.314
326.385
326.454
326.522
326.589
326.655
326.72
326.784
326.847
326.91
326.971
327.031
327.09
327.149
327.207
327.263
327.319
327.374
327.428
327.482
327.534
327.586
327.637
327.687
327.736
327.785
327.833
327.879
327.926
327.971
301.049
303.188
305.361
307.45
309.408
311.211
312.846
314.312
315.616
316.767
317.78
318.668
319.445
320.125
320.72
321.242
321.702
322.108
322.468
322.79
323.078
323.338
323.574
323.789
323.987
324.17
324.34
324.499
324.649
324.79
324.924
325.052
325.174
325.291
325.404
325.513
325.619
325.721
325.82
325.916
326.01
326.102
326.191
326.278
326.363
326.447
326.528
326.608
326.686
326.762
326.837
326.911
326.983
327.053
327.122
327.19
327.257
327.322
327.386
327.449
327.511
327.571
327.63
327.689
327.746
327.802
327.857
327.911
327.964
328.016
328.067
328.117
328.166
328.214
328.261
328.307
328.353
328.397
328.44
328.483
328.524
380.407
388.35
395.037
400.873
406.056
410.696
414.854
418.565
421.842
424.688
427.09
429.027
430.464
431.352
431.627
431.196
429.931
427.635
423.978
418.301
408.959
402.637
397.795
393.833
390.461
387.519
384.906
382.551
380.408
378.439
376.617
374.92
373.33
371.833
370.416
369.071
367.789
366.562
365.384
364.249
363.154
362.093
361.063
360.062
359.085
358.131
357.196
356.28
355.38
354.494
353.621
352.761
351.91
351.069
350.237
349.412
348.594
347.783
346.978
346.177
345.382
344.592
343.806
343.025
342.248
341.475
340.707
339.943
339.183
338.428
337.677
336.932
336.192
335.456
334.727
334.003
333.286
332.576
331.872
331.176
330.487
329.807
329.136
328.473
327.82
327.177
326.545
325.923
325.312
324.713
324.125
323.55
322.988
322.438
321.902
321.378
320.869
320.372
319.89
319.421
318.966
318.525
318.098
317.684
317.284
316.897
316.524
316.164
315.816
315.481
315.159
314.848
314.549
314.262
313.985
313.72
313.464
313.219
312.984
312.757
312.54
312.331
312.13
311.937
311.752
311.573
311.402
311.236
311.077
310.924
310.776
310.633
310.495
310.361
310.232
310.107
309.985
309.867
309.753
309.641
309.533
309.427
309.324
309.223
309.124
309.027
308.932
308.839
308.747
308.657
308.568
308.48
308.394
308.308
308.224
308.14
308.057
307.975
307.894
307.813
307.735
375.666
382.567
388.784
394.374
399.416
403.968
408.071
411.746
415.003
417.839
420.241
422.187
423.643
424.561
424.88
424.518
423.36
421.252
417.976
413.264
407.071
401.718
397.252
393.471
390.201
387.323
384.752
382.428
380.307
378.355
376.546
374.86
373.278
371.788
370.378
369.038
367.759
366.536
365.361
364.229
363.136
362.077
361.049
360.049
359.073
358.12
357.187
356.271
355.372
354.487
353.615
352.755
351.905
351.064
350.232
349.408
348.59
347.779
346.974
346.174
345.379
344.589
343.803
343.022
342.245
341.473
340.704
339.94
339.181
338.426
337.675
336.93
336.189
335.454
334.725
334.001
333.284
332.573
331.87
331.174
330.485
329.805
329.133
328.471
327.818
327.175
326.542
325.92
325.31
324.711
324.123
323.548
322.986
322.436
321.9
321.377
320.867
320.371
319.888
319.419
318.965
318.524
318.096
317.683
317.283
316.896
316.523
316.162
315.815
315.48
315.158
314.847
314.548
314.261
313.985
313.719
313.464
313.219
312.983
312.757
312.539
312.331
312.13
311.937
311.751
311.573
311.401
311.236
311.077
310.924
310.776
310.633
310.495
310.361
310.232
310.107
309.985
309.868
309.753
309.642
309.533
309.427
309.324
309.223
309.124
309.027
308.932
308.839
308.747
308.657
308.568
308.481
308.394
308.309
308.224
308.14
308.057
307.975
307.894
307.814
307.735
371.577
377.48
383.064
388.25
393.026
397.399
401.379
404.971
408.174
410.98
413.373
415.329
416.815
417.788
418.193
417.96
417.004
415.222
412.509
408.819
404.369
400.051
396.156
392.702
389.634
386.888
384.409
382.152
380.081
378.167
376.389
374.726
373.164
371.69
370.293
368.964
367.695
366.48
365.311
364.185
363.097
362.043
361.019
360.022
359.049
358.098
357.167
356.254
355.356
354.473
353.602
352.743
351.894
351.054
350.223
349.399
348.583
347.772
346.967
346.168
345.373
344.583
343.798
343.017
342.24
341.468
340.7
339.936
339.176
338.421
337.671