/*--------------------------------*- C++ -*----------------------------------*\
  =========                 |
  \\      /  F ield         | OpenFOAM: The Open Source CFD Toolbox
   \\    /   O peration     | Website:  https://openfoam.org
    \\  /    A nd           | Version:  7
     \\/     M anipulation  |
\*---------------------------------------------------------------------------*/
FoamFile
{
    version     2.0;
    format      ascii;
    class       volVectorField;
    location    "5.07";
    object      U;
}
// * * * * * * * * * * * * * * * * * * * * * * * * * * * * * * * * * * * * * //

dimensions      [0 1 -1 0 0 0 0];

internalField   nonuniform List<vector> 
12013
(
(0.100644 -0.000176936 0)
(0.103236 -0.000320749 0)
(0.107344 -0.00045132 0)
(0.112592 -0.000570357 0)
(0.118872 -0.000681428 0)
(0.126079 -0.000786648 0)
(0.134123 -0.000887247 0)
(0.142929 -0.000983883 0)
(0.152429 -0.00107668 0)
(0.162557 -0.00116535 0)
(0.173245 -0.00124926 0)
(0.184423 -0.00132762 0)
(0.196016 -0.0013995 0)
(0.207946 -0.00146403 0)
(0.220133 -0.0015204 0)
(0.232495 -0.001568 0)
(0.244949 -0.00160641 0)
(0.257416 -0.00163543 0)
(0.269821 -0.0016551 0)
(0.282094 -0.00166563 0)
(0.294171 -0.00166743 0)
(0.305996 -0.00166104 0)
(0.31752 -0.00164712 0)
(0.328702 -0.00162636 0)
(0.33951 -0.00159954 0)
(0.349916 -0.00156741 0)
(0.359902 -0.00153075 0)
(0.369456 -0.0014903 0)
(0.378569 -0.00144674 0)
(0.38724 -0.00140074 0)
(0.395472 -0.00135292 0)
(0.403269 -0.00130383 0)
(0.410642 -0.00125394 0)
(0.417603 -0.00120374 0)
(0.424165 -0.00115361 0)
(0.430345 -0.00110389 0)
(0.43616 -0.00105486 0)
(0.441628 -0.00100681 0)
(0.446769 -0.000959942 0)
(0.451601 -0.000914429 0)
(0.456146 -0.000870391 0)
(0.460422 -0.000827936 0)
(0.464449 -0.00078715 0)
(0.468248 -0.000748074 0)
(0.471838 -0.00071071 0)
(0.475236 -0.00067503 0)
(0.478463 -0.000640985 0)
(0.481534 -0.000608504 0)
(0.484468 -0.000577483 0)
(0.487281 -0.000547779 0)
(0.489989 -0.000519214 0)
(0.492605 -0.000491571 0)
(0.495145 -0.000464601 0)
(0.497622 -0.000438007 0)
(0.500047 -0.000411446 0)
(0.502433 -0.000384511 0)
(0.504789 -0.000356729 0)
(0.507124 -0.000327547 0)
(0.509446 -0.000296318 0)
(0.511762 -0.000262287 0)
(0.514077 -0.000224563 0)
(0.516394 -0.000182089 0)
(0.518715 -0.000133605 0)
(0.521039 -7.75934e-05 0)
(0.523362 -1.21897e-05 0)
(0.525677 6.49877e-05 0)
(0.527973 0.000156967 0)
(0.530234 0.000267612 0)
(0.532434 0.000402019 0)
(0.534541 0.000567086 0)
(0.536507 0.000772443 0)
(0.538263 0.00103197 0)
(0.539713 0.0013665 0)
(0.540715 0.00180859 0)
(0.541051 0.00241173 0)
(0.540383 0.00326849 0)
(0.538154 0.00454879 0)
(0.53339 0.00659039 0)
(0.524341 0.0101928 0)
(0.507968 0.018181 0)
(0.49103 0.0492856 0)
(0.100593 -0.000539841 0)
(0.103175 -0.000982578 0)
(0.107268 -0.00138281 0)
(0.112504 -0.00174713 0)
(0.118775 -0.00208688 0)
(0.125974 -0.00240852 0)
(0.134012 -0.00271584 0)
(0.142813 -0.00301089 0)
(0.152311 -0.00329409 0)
(0.162437 -0.00356455 0)
(0.173125 -0.00382042 0)
(0.184305 -0.00405924 0)
(0.195902 -0.00427826 0)
(0.207837 -0.0044748 0)
(0.220031 -0.00464646 0)
(0.232399 -0.00479138 0)
(0.244862 -0.00490829 0)
(0.257338 -0.00499662 0)
(0.269752 -0.00505646 0)
(0.282034 -0.00508852 0)
(0.29412 -0.00509402 0)
(0.305953 -0.00507461 0)
(0.317486 -0.00503225 0)
(0.328676 -0.00496911 0)
(0.33949 -0.0048875 0)
(0.349902 -0.00478973 0)
(0.359894 -0.00467812 0)
(0.369452 -0.00455492 0)
(0.378568 -0.00442226 0)
(0.387242 -0.00428212 0)
(0.395475 -0.00413637 0)
(0.403273 -0.00398667 0)
(0.410646 -0.00383456 0)
(0.417605 -0.0036814 0)
(0.424164 -0.00352838 0)
(0.430341 -0.00337655 0)
(0.436151 -0.00322685 0)
(0.441613 -0.00308003 0)
(0.446747 -0.00293674 0)
(0.451571 -0.0027975 0)
(0.456106 -0.00266275 0)
(0.460372 -0.00253282 0)
(0.464387 -0.00240791 0)
(0.468173 -0.00228813 0)
(0.471747 -0.00217351 0)
(0.475129 -0.00206399 0)
(0.478337 -0.00195943 0)
(0.481389 -0.00185961 0)
(0.484301 -0.00176417 0)
(0.48709 -0.00167267 0)
(0.489771 -0.00158458 0)
(0.492359 -0.00149925 0)
(0.494868 -0.00141592 0)
(0.497311 -0.00133367 0)
(0.4997 -0.00125145 0)
(0.502047 -0.001168 0)
(0.50436 -0.00108188 0)
(0.50665 -0.000991396 0)
(0.508925 -0.000894578 0)
(0.511189 -0.000789124 0)
(0.51345 -0.000672321 0)
(0.515709 -0.000540955 0)
(0.51797 -0.000391191 0)
(0.52023 -0.000218415 0)
(0.522488 -1.69361e-05 0)
(0.524735 0.000220431 0)
(0.526964 0.000502644 0)
(0.529157 0.000841151 0)
(0.531294 0.00125097 0)
(0.533345 0.00175226 0)
(0.535268 0.00237282 0)
(0.537008 0.00315215 0)
(0.538485 0.00414829 0)
(0.53959 0.00544966 0)
(0.540169 0.00719641 0)
(0.540006 0.00961989 0)
(0.538795 0.0131179 0)
(0.536113 0.0184034 0)
(0.531414 0.0268273 0)
(0.524621 0.0410017 0)
(0.523263 0.0656232 0)
(0.10054 -0.000917128 0)
(0.103093 -0.00168564 0)
(0.107152 -0.00237549 0)
(0.112364 -0.00300318 0)
(0.118614 -0.00358843 0)
(0.125796 -0.00414241 0)
(0.133822 -0.00467171 0)
(0.142614 -0.00517991 0)
(0.152105 -0.00566772 0)
(0.162229 -0.00613363 0)
(0.172918 -0.00657445 0)
(0.184102 -0.00698594 0)
(0.195706 -0.00736337 0)
(0.207651 -0.00770208 0)
(0.219857 -0.00799795 0)
(0.23224 -0.00824775 0)
(0.244719 -0.00844929 0)
(0.257212 -0.00860159 0)
(0.269643 -0.00870479 0)
(0.281943 -0.00876011 0)
(0.294047 -0.00876966 0)
(0.305897 -0.00873626 0)
(0.317445 -0.00866331 0)
(0.32865 -0.00855454 0)
(0.339478 -0.00841391 0)
(0.349902 -0.00824543 0)
(0.359903 -0.00805309 0)
(0.36947 -0.00784075 0)
(0.378593 -0.00761207 0)
(0.387271 -0.0073705 0)
(0.395507 -0.0071192 0)
(0.403306 -0.00686109 0)
(0.410678 -0.00659878 0)
(0.417634 -0.00633459 0)
(0.424189 -0.00607061 0)
(0.430359 -0.00580865 0)
(0.43616 -0.00555026 0)
(0.441612 -0.00529677 0)
(0.446733 -0.00504928 0)
(0.451543 -0.00480872 0)
(0.456061 -0.00457582 0)
(0.460307 -0.00435108 0)
(0.464301 -0.00413487 0)
(0.468063 -0.00392738 0)
(0.47161 -0.00372867 0)
(0.474963 -0.00353864 0)
(0.478139 -0.00335702 0)
(0.481155 -0.00318336 0)
(0.484028 -0.00301708 0)
(0.486775 -0.00285742 0)
(0.489411 -0.00270346 0)
(0.491949 -0.00255408 0)
(0.494405 -0.00240795 0)
(0.49679 -0.0022635 0)
(0.499117 -0.00211889 0)
(0.501397 -0.00197198 0)
(0.50364 -0.00182029 0)
(0.505853 -0.00166096 0)
(0.508046 -0.00149064 0)
(0.510225 -0.00130542 0)
(0.512395 -0.0011007 0)
(0.514559 -0.00087109 0)
(0.516719 -0.000610139 0)
(0.518876 -0.000310132 0)
(0.521027 3.84612e-05 0)
(0.523167 0.000447465 0)
(0.525288 0.00093141 0)
(0.527377 0.00150875 0)
(0.529419 0.00220336 0)
(0.531391 0.0030468 0)
(0.533263 0.00408159 0)
(0.534996 0.00536649 0)
(0.536542 0.00698467 0)
(0.537841 0.00905687 0)
(0.538826 0.0117627 0)
(0.539428 0.0153753 0)
(0.539616 0.0203165 0)
(0.539459 0.0272434 0)
(0.539316 0.0371849 0)
(0.540276 0.0516535 0)
(0.546087 0.0718519 0)
(0.100485 -0.0013055 0)
(0.102999 -0.00242843 0)
(0.107011 -0.0034293 0)
(0.112185 -0.00434053 0)
(0.118404 -0.00518993 0)
(0.125562 -0.00599384 0)
(0.133568 -0.00676198 0)
(0.142346 -0.00749957 0)
(0.151829 -0.00820769 0)
(0.161951 -0.00888415 0)
(0.172643 -0.0095243 0)
(0.183834 -0.010122 0)
(0.195451 -0.0106702 0)
(0.207414 -0.0111623 0)
(0.219641 -0.0115922 0)
(0.232049 -0.0119552 0)
(0.244553 -0.012248 0)
(0.257075 -0.0124693 0)
(0.269535 -0.0126192 0)
(0.281864 -0.0126995 0)
(0.293996 -0.0127133 0)
(0.305874 -0.0126647 0)
(0.317447 -0.0125586 0)
(0.328676 -0.0124005 0)
(0.339525 -0.012196 0)
(0.349968 -0.0119511 0)
(0.359985 -0.0116716 0)
(0.369565 -0.0113629 0)
(0.378699 -0.0110306 0)
(0.387385 -0.0106794 0)
(0.395625 -0.0103142 0)
(0.403426 -0.00993894 0)
(0.410797 -0.00955757 0)
(0.417749 -0.00917344 0)
(0.424298 -0.00878955 0)
(0.430458 -0.00840848 0)
(0.436247 -0.0080325 0)
(0.441684 -0.00766354 0)
(0.446787 -0.00730318 0)
(0.451576 -0.00695274 0)
(0.456071 -0.0066132 0)
(0.46029 -0.00628534 0)
(0.464254 -0.00596967 0)
(0.467983 -0.00566649 0)
(0.471494 -0.00537582 0)
(0.474806 -0.00509747 0)
(0.477938 -0.00483103 0)
(0.480906 -0.00457585 0)
(0.483728 -0.0043311 0)
(0.486418 -0.00409567 0)
(0.488993 -0.0038682 0)
(0.491466 -0.00364704 0)
(0.493851 -0.00343026 0)
(0.496161 -0.00321558 0)
(0.498407 -0.00300037 0)
(0.500601 -0.00278156 0)
(0.502751 -0.00255563 0)
(0.504868 -0.00231847 0)
(0.506958 -0.00206534 0)
(0.509028 -0.00179072 0)
(0.511084 -0.00148816 0)
(0.51313 -0.0011501 0)
(0.515168 -0.0007676 0)
(0.5172 -0.000330005 0)
(0.519224 0.000175742 0)
(0.521238 0.000765508 0)
(0.523237 0.00145857 0)
(0.525214 0.00227904 0)
(0.527159 0.00325751 0)
(0.52906 0.00443335 0)
(0.530901 0.00585802 0)
(0.532667 0.00759978 0)
(0.534342 0.00975047 0)
(0.535917 0.012435 0)
(0.537402 0.0158243 0)
(0.538843 0.0201517 0)
(0.540365 0.0257302 0)
(0.54224 0.0329612 0)
(0.544998 0.0423094 0)
(0.549561 0.0541546 0)
(0.557518 0.0681835 0)
(0.10043 -0.00170537 0)
(0.102902 -0.00321031 0)
(0.106856 -0.0045449 0)
(0.111981 -0.00576144 0)
(0.118161 -0.00689534 0)
(0.125287 -0.00796838 0)
(0.133269 -0.00899379 0)
(0.142032 -0.00997859 0)
(0.151506 -0.0109243 0)
(0.161627 -0.0118279 0)
(0.172326 -0.0126832 0)
(0.183533 -0.0134819 0)
(0.195171 -0.0142147 0)
(0.207162 -0.0148726 0)
(0.219422 -0.0154473 0)
(0.231866 -0.0159325 0)
(0.244412 -0.016324 0)
(0.256976 -0.0166197 0)
(0.26948 -0.01682 0)
(0.281852 -0.0169272 0)
(0.294026 -0.0169453 0)
(0.305944 -0.01688 0)
(0.317556 -0.0167378 0)
(0.328819 -0.0165261 0)
(0.339699 -0.0162524 0)
(0.350169 -0.0159246 0)
(0.360211 -0.0155506 0)
(0.36981 -0.0151376 0)
(0.378959 -0.014693 0)
(0.387656 -0.0142233 0)
(0.395904 -0.0137346 0)
(0.403708 -0.0132326 0)
(0.411078 -0.0127224 0)
(0.418026 -0.0122084 0)
(0.424566 -0.0116946 0)
(0.430714 -0.0111844 0)
(0.436488 -0.010681 0)
(0.441905 -0.0101867 0)
(0.446985 -0.00970373 0)
(0.451747 -0.00923374 0)
(0.456211 -0.0087781 0)
(0.460396 -0.00833779 0)
(0.464322 -0.00791348 0)
(0.468009 -0.00750548 0)
(0.471474 -0.0071138 0)
(0.474736 -0.00673818 0)
(0.477813 -0.00637806 0)
(0.480722 -0.00603258 0)
(0.48348 -0.00570057 0)
(0.486102 -0.00538054 0)
(0.488603 -0.00507066 0)
(0.490997 -0.00476872 0)
(0.493298 -0.00447218 0)
(0.495518 -0.00417803 0)
(0.497669 -0.0038828 0)
(0.499762 -0.00358251 0)
(0.501805 -0.00327252 0)
(0.50381 -0.00294754 0)
(0.505782 -0.00260143 0)
(0.507729 -0.00222714 0)
(0.509658 -0.00181645 0)
(0.511572 -0.00135985 0)
(0.513477 -0.000846148 0)
(0.515373 -0.000262121 0)
(0.517263 0.000408173 0)
(0.519147 0.00118364 0)
(0.521025 0.00208696 0)
(0.522894 0.00314591 0)
(0.524754 0.00439472 0)
(0.526602 0.00587604 0)
(0.528441 0.0076433 0)
(0.530274 0.00976391 0)
(0.532115 0.012323 0)
(0.533995 0.0154273 0)
(0.535971 0.0192093 0)
(0.538145 0.0238271 0)
(0.540688 0.0294581 0)
(0.543876 0.0362742 0)
(0.548117 0.0443829 0)
(0.553966 0.0537025 0)
(0.562067 0.0637228 0)
(0.100375 -0.00211754 0)
(0.102805 -0.0040313 0)
(0.106697 -0.00572361 0)
(0.111767 -0.00726879 0)
(0.1179 -0.00870936 0)
(0.12499 -0.0100727 0)
(0.132946 -0.0113758 0)
(0.141692 -0.0126276 0)
(0.151161 -0.01383 0)
(0.161286 -0.0149794 0)
(0.171999 -0.0160677 0)
(0.18323 -0.0170843 0)
(0.194903 -0.0180172 0)
(0.206935 -0.0188548 0)
(0.219245 -0.0195867 0)
(0.231745 -0.0202045 0)
(0.244349 -0.0207029 0)
(0.256974 -0.0210792 0)
(0.269541 -0.0213338 0)
(0.281975 -0.0214697 0)
(0.294209 -0.0214922 0)
(0.306184 -0.0214084 0)
(0.317849 -0.0212266 0)
(0.329161 -0.0209562 0)
(0.340084 -0.020607 0)
(0.350593 -0.020189 0)
(0.360667 -0.019712 0)
(0.370293 -0.0191856 0)
(0.379464 -0.0186189 0)
(0.388177 -0.0180203 0)
(0.396435 -0.0173976 0)
(0.404244 -0.0167579 0)
(0.411613 -0.0161076 0)
(0.418556 -0.0154524 0)
(0.425085 -0.0147974 0)
(0.431218 -0.0141469 0)
(0.436972 -0.0135048 0)
(0.442365 -0.012874 0)
(0.447416 -0.0122574 0)
(0.452145 -0.011657 0)
(0.456571 -0.0110745 0)
(0.460714 -0.0105112 0)
(0.464594 -0.0099677 0)
(0.468229 -0.00944449 0)
(0.471638 -0.00894157 0)
(0.47484 -0.00845856 0)
(0.477852 -0.00799471 0)
(0.480691 -0.00754889 0)
(0.483374 -0.0071196 0)
(0.485915 -0.00670491 0)
(0.488331 -0.00630252 0)
(0.490634 -0.00590968 0)
(0.492839 -0.00552317 0)
(0.494957 -0.00513926 0)
(0.497001 -0.00475363 0)
(0.49898 -0.00436135 0)
(0.500905 -0.00395676 0)
(0.502786 -0.00353339 0)
(0.50463 -0.00308384 0)
(0.506444 -0.00259964 0)
(0.508237 -0.00207107 0)
(0.510013 -0.00148691 0)
(0.511777 -0.000834193 0)
(0.513536 -9.76935e-05 0)
(0.515291 0.000740526 0)
(0.517047 0.00170105 0)
(0.518809 0.00280828 0)
(0.520581 0.00409121 0)
(0.52237 0.00558439 0)
(0.524183 0.00732906 0)
(0.526037 0.00937435 0)
(0.527951 0.0117785 0)
(0.529959 0.0146097 0)
(0.532113 0.0179456 0)
(0.534488 0.021871 0)
(0.537196 0.026471 0)
(0.540392 0.031817 0)
(0.544284 0.0379413 0)
(0.549128 0.0447963 0)
(0.555204 0.0521957 0)
(0.562736 0.0597453 0)
(0.10032 -0.00254322 0)
(0.102714 -0.00489224 0)
(0.106541 -0.00696763 0)
(0.111552 -0.00886629 0)
(0.117636 -0.0106377 0)
(0.124688 -0.0123146 0)
(0.132618 -0.013918 0)
(0.141351 -0.015459 0)
(0.150819 -0.0169399 0)
(0.160957 -0.0183561 0)
(0.171697 -0.0196976 0)
(0.182967 -0.0209512 0)
(0.19469 -0.0221021 0)
(0.206785 -0.0231355 0)
(0.219165 -0.0240385 0)
(0.231743 -0.0248006 0)
(0.244431 -0.0254152 0)
(0.257142 -0.0258789 0)
(0.269795 -0.0261923 0)
(0.282314 -0.026359 0)
(0.294631 -0.0263855 0)
(0.306684 -0.0262807 0)
(0.318421 -0.026055 0)
(0.329798 -0.0257199 0)
(0.340781 -0.0252877 0)
(0.351341 -0.0247706 0)
(0.361458 -0.0241809 0)
(0.37112 -0.0235304 0)
(0.380319 -0.0228302 0)
(0.389053 -0.0220907 0)
(0.397325 -0.0213216 0)
(0.40514 -0.0205316 0)
(0.41251 -0.0197285 0)
(0.419445 -0.0189193 0)
(0.425962 -0.0181102 0)
(0.432076 -0.0173065 0)
(0.437806 -0.0165129 0)
(0.443168 -0.015733 0)
(0.448184 -0.0149703 0)
(0.452872 -0.0142271 0)
(0.457252 -0.0135056 0)
(0.461345 -0.0128071 0)
(0.465168 -0.0121327 0)
(0.468742 -0.0114826 0)
(0.472086 -0.0108569 0)
(0.475216 -0.010255 0)
(0.478152 -0.00967604 0)
(0.48091 -0.00911856 0)
(0.483506 -0.0085807 0)
(0.485956 -0.00806013 0)
(0.488274 -0.00755403 0)
(0.490475 -0.00705908 0)
(0.492571 -0.0065714 0)
(0.494576 -0.00608651 0)
(0.496501 -0.0055993 0)
(0.498356 -0.00510391 0)
(0.500153 -0.00459374 0)
(0.5019 -0.00406127 0)
(0.503607 -0.00349799 0)
(0.505282 -0.00289427 0)
(0.506932 -0.00223914 0)
(0.508565 -0.00152016 0)
(0.510188 -0.000723127 0)
(0.511807 0.000168414 0)
(0.513429 0.00117313 0)
(0.515062 0.00231204 0)
(0.516715 0.0036094 0)
(0.518398 0.00509306 0)
(0.520124 0.0067948 0)
(0.52191 0.00875069 0)
(0.523779 0.0110012 0)
(0.525763 0.0135907 0)
(0.527902 0.0165665 0)
(0.530254 0.0199761 0)
(0.532893 0.0238622 0)
(0.535914 0.0282555 0)
(0.539433 0.0331623 0)
(0.543583 0.0385482 0)
(0.548501 0.0443186 0)
(0.554305 0.0502981 0)
(0.561037 0.0562232 0)
(0.100263 -0.00298415 0)
(0.102629 -0.00579498 0)
(0.106395 -0.00828015 0)
(0.111347 -0.0105588 0)
(0.117382 -0.0126872 0)
(0.124398 -0.0147034 0)
(0.132306 -0.0166324 0)
(0.141032 -0.0184874 0)
(0.150509 -0.0202712 0)
(0.160672 -0.0219782 0)
(0.171454 -0.0235963 0)
(0.182783 -0.025109 0)
(0.19458 -0.0264982 0)
(0.206763 -0.0277459 0)
(0.219243 -0.028836 0)
(0.231929 -0.029756 0)
(0.244731 -0.0304974 0)
(0.257559 -0.0310561 0)
(0.270329 -0.0314329 0)
(0.282962 -0.0316321 0)
(0.295389 -0.0316618 0)
(0.307545 -0.0315327 0)
(0.319377 -0.0312576 0)
(0.330841 -0.0308504 0)
(0.3419 -0.030326 0)
(0.352527 -0.0296994 0)
(0.362701 -0.0289853 0)
(0.372409 -0.028198 0)
(0.381644 -0.0273509 0)
(0.390404 -0.0264567 0)
(0.398693 -0.0255268 0)
(0.406516 -0.0245719 0)
(0.413886 -0.0236012 0)
(0.420813 -0.0226232 0)
(0.427314 -0.0216453 0)
(0.433405 -0.0206737 0)
(0.439104 -0.0197139 0)
(0.44443 -0.0187706 0)
(0.449402 -0.0178475 0)
(0.454041 -0.0169475 0)
(0.458366 -0.0160732 0)
(0.462397 -0.015226 0)
(0.466154 -0.0144071 0)
(0.469656 -0.013617 0)
(0.472922 -0.0128554 0)
(0.47597 -0.0121218 0)
(0.478818 -0.011415 0)
(0.481482 -0.0107332 0)
(0.48398 -0.0100743 0)
(0.486325 -0.0094354 0)
(0.488534 -0.00881327 0)
(0.49062 -0.00820397 0)
(0.492597 -0.00760297 0)
(0.494477 -0.0070051 0)
(0.496272 -0.00640448 0)
(0.497993 -0.00579448 0)
(0.499652 -0.00516763 0)
(0.501258 -0.00451554 0)
(0.50282 -0.00382884 0)
(0.504348 -0.00309699 0)
(0.505852 -0.00230822 0)
(0.507338 -0.00144936 0)
(0.508817 -0.000505629 0)
(0.510296 0.000539678 0)
(0.511787 0.00170478 0)
(0.5133 0.0030099 0)
(0.514847 0.00447751 0)
(0.516443 0.0061323 0)
(0.518105 0.0080011 0)
(0.519856 0.0101125 0)
(0.521723 0.0124964 0)
(0.52374 0.0151822 0)
(0.52595 0.0181976 0)
(0.528402 0.0215647 0)
(0.53116 0.0252963 0)
(0.534292 0.0293892 0)
(0.537873 0.0338178 0)
(0.541977 0.0385256 0)
(0.546666 0.0434183 0)
(0.551973 0.0483613 0)
(0.557873 0.0531887 0)
(0.100204 -0.00344259 0)
(0.102551 -0.00674231 0)
(0.106263 -0.00966557 0)
(0.111159 -0.0123524 0)
(0.117149 -0.0148664 0)
(0.124135 -0.0172502 0)
(0.132028 -0.0195329 0)
(0.140757 -0.02173 0)
(0.150256 -0.0238447 0)
(0.160463 -0.0258701 0)
(0.171309 -0.0277914 0)
(0.182723 -0.0295888 0)
(0.194625 -0.0312402 0)
(0.20693 -0.0327236 0)
(0.219545 -0.0340196 0)
(0.232378 -0.0351127 0)
(0.245332 -0.0359928 0)
(0.258315 -0.036655 0)
(0.27124 -0.0371 0)
(0.284023 -0.0373332 0)
(0.296592 -0.0373643 0)
(0.308882 -0.0372064 0)
(0.320837 -0.0368747 0)
(0.332411 -0.036386 0)
(0.343567 -0.0357582 0)
(0.354278 -0.0350092 0)
(0.364522 -0.0341566 0)
(0.374287 -0.0332174 0)
(0.383567 -0.0322076 0)
(0.392359 -0.0311422 0)
(0.400668 -0.0300348 0)
(0.408501 -0.0288979 0)
(0.415869 -0.0277426 0)
(0.422785 -0.0265786 0)
(0.429266 -0.0254147 0)
(0.435327 -0.0242584 0)
(0.440989 -0.0231158 0)
(0.44627 -0.0219926 0)
(0.45119 -0.0208929 0)
(0.455769 -0.0198202 0)
(0.460028 -0.0187774 0)
(0.463987 -0.0177662 0)
(0.467666 -0.0167878 0)
(0.471084 -0.0158426 0)
(0.474259 -0.0149306 0)
(0.477212 -0.0140508 0)
(0.479958 -0.0132018 0)
(0.482516 -0.0123818 0)
(0.484901 -0.011588 0)
(0.487129 -0.0108171 0)
(0.489216 -0.0100655 0)
(0.491174 -0.00932864 0)
(0.493019 -0.00860134 0)
(0.494763 -0.00787783 0)
(0.496417 -0.00715158 0)
(0.497994 -0.00641528 0)
(0.499505 -0.00566077 0)
(0.500961 -0.00487902 0)
(0.502372 -0.00406002 0)
(0.503747 -0.00319276 0)
(0.505098 -0.00226508 0)
(0.506434 -0.00126367 0)
(0.507767 -0.000173909 0)
(0.509105 0.00102034 0)
(0.510463 0.00233583 0)
(0.511854 0.00379086 0)
(0.513292 0.0054049 0)
(0.514794 0.00719825 0)
(0.516381 0.00919167 0)
(0.518077 0.0114056 0)
(0.519909 0.0138594 0)
(0.521908 0.0165694 0)
(0.524113 0.0195473 0)
(0.526564 0.0227979 0)
(0.529305 0.0263152 0)
(0.532382 0.0300797 0)
(0.535837 0.0340547 0)
(0.539704 0.0381836 0)
(0.544002 0.0423895 0)
(0.548725 0.0465773 0)
(0.553829 0.0506457 0)
(0.100142 -0.00392124 0)
(0.10248 -0.00773802 0)
(0.106147 -0.0111296 0)
(0.110993 -0.014255 0)
(0.116946 -0.0171857 0)
(0.12391 -0.0199684 0)
(0.1318 -0.0226364 0)
(0.140547 -0.0252075 0)
(0.150088 -0.0276852 0)
(0.160362 -0.0300609 0)
(0.171303 -0.0323167 0)
(0.182836 -0.0344288 0)
(0.194882 -0.0363703 0)
(0.207351 -0.0381145 0)
(0.220149 -0.039638 0)
(0.233175 -0.040922 0)
(0.24633 -0.0419542 0)
(0.259516 -0.0427289 0)
(0.272639 -0.0432468 0)
(0.285615 -0.0435147 0)
(0.298366 -0.0435442 0)
(0.310824 -0.0433508 0)
(0.322932 -0.042953 0)
(0.334643 -0.0423709 0)
(0.345919 -0.0416256 0)
(0.356732 -0.0407384 0)
(0.367061 -0.0397301 0)
(0.376895 -0.0386208 0)
(0.386226 -0.0374293 0)
(0.395056 -0.0361732 0)
(0.403387 -0.0348685 0)
(0.411229 -0.0335297 0)
(0.418593 -0.0321696 0)
(0.425493 -0.0307999 0)
(0.431947 -0.0294304 0)
(0.437971 -0.0280697 0)
(0.443587 -0.0267253 0)
(0.448812 -0.0254032 0)
(0.453668 -0.0241085 0)
(0.458177 -0.0228451 0)
(0.462357 -0.021616 0)
(0.46623 -0.0204233 0)
(0.469817 -0.0192683 0)
(0.473136 -0.0181514 0)
(0.476207 -0.0170725 0)
(0.479049 -0.0160305 0)
(0.48168 -0.0150237 0)
(0.484116 -0.0140499 0)
(0.486375 -0.013106 0)
(0.488472 -0.0121883 0)
(0.490422 -0.0112927 0)
(0.49224 -0.010414 0)
(0.49394 -0.00954674 0)
(0.495535 -0.00868444 0)
(0.497038 -0.00782006 0)
(0.49846 -0.00694575 0)
(0.499814 -0.00605289 0)
(0.50111 -0.00513204 0)
(0.502361 -0.00417292 0)
(0.503577 -0.00316437 0)
(0.50477 -0.00209437 0)
(0.505951 -0.00094999 0)
(0.507132 0.000282706 0)
(0.508325 0.00161814 0)
(0.509545 0.00307127 0)
(0.510806 0.00465766 0)
(0.512125 0.00639307 0)
(0.513519 0.00829295 0)
(0.51501 0.0103719 0)
(0.516619 0.0126429 0)
(0.518372 0.0151161 0)
(0.520297 0.0177981 0)
(0.522421 0.0206897 0)
(0.524775 0.0237849 0)
(0.527387 0.0270688 0)
(0.530284 0.0305164 0)
(0.533484 0.0340913 0)
(0.537 0.0377457 0)
(0.540827 0.041422 0)
(0.544945 0.0450561 0)
(0.549309 0.0485865 0)
(0.100075 -0.00442318 0)
(0.102416 -0.00878694 0)
(0.106049 -0.0126793 0)
(0.110855 -0.0162764 0)
(0.11678 -0.0196577 0)
(0.123735 -0.0228743 0)
(0.131638 -0.0259633 0)
(0.140423 -0.028945 0)
(0.150032 -0.0318228 0)
(0.160406 -0.0345863 0)
(0.171478 -0.0372137 0)
(0.183176 -0.039676 0)
(0.195416 -0.0419406 0)
(0.208105 -0.0439753 0)
(0.221141 -0.0457514 0)
(0.23442 -0.0472465 0)
(0.247834 -0.0484457 0)
(0.261279 -0.0493422 0)
(0.274655 -0.0499371 0)
(0.287872 -0.0502388 0)
(0.300849 -0.0502612 0)
(0.313514 -0.0500231 0)
(0.325809 -0.0495465 0)
(0.337685 -0.0488554 0)
(0.349104 -0.0479746 0)
(0.360037 -0.0469295 0)
(0.370465 -0.0457444 0)
(0.380377 -0.0444428 0)
(0.389766 -0.0430468 0)
(0.398635 -0.0415768 0)
(0.406988 -0.0400512 0)
(0.414835 -0.038487 0)
(0.42219 -0.036899 0)
(0.429067 -0.0353003 0)
(0.435485 -0.0337024 0)
(0.441462 -0.0321151 0)
(0.447019 -0.0305468 0)
(0.452176 -0.0290045 0)
(0.456956 -0.0274937 0)
(0.461378 -0.0260189 0)
(0.465464 -0.0245834 0)
(0.469237 -0.0231897 0)
(0.472715 -0.021839 0)
(0.47592 -0.0205317 0)
(0.47887 -0.0192677 0)
(0.481586 -0.0180456 0)
(0.484084 -0.0168636 0)
(0.486384 -0.015719 0)
(0.488501 -0.0146084 0)
(0.490451 -0.0135279 0)
(0.492251 -0.0124727 0)
(0.493914 -0.0114373 0)
(0.495456 -0.0104156 0)
(0.496889 -0.00940097 0)
(0.498228 -0.00838578 0)
(0.499484 -0.00736188 0)
(0.50067 -0.00632039 0)
(0.501798 -0.00525176 0)
(0.50288 -0.00414573 0)
(0.503929 -0.0029914 0)
(0.504957 -0.00177727 0)
(0.505975 -0.00049134 0)
(0.506997 0.000879185 0)
(0.508037 0.00234656 0)
(0.509108 0.00392351 0)
(0.510228 0.00562259 0)
(0.511411 0.00745569 0)
(0.512676 0.00943366 0)
(0.514042 0.0115656 0)
(0.515528 0.0138584 0)
(0.517155 0.0163157 0)
(0.518946 0.018937 0)
(0.520919 0.0217171 0)
(0.523096 0.0246447 0)
(0.525492 0.0277024 0)
(0.528119 0.0308656 0)
(0.530984 0.0341032 0)
(0.534085 0.0373781 0)
(0.537409 0.0406491 0)
(0.540932 0.0438739 0)
(0.544614 0.0470154 0)
(0.100003 -0.0049519 0)
(0.102358 -0.00989504 0)
(0.105971 -0.0143234 0)
(0.110748 -0.0184283 0)
(0.116659 -0.0222979 0)
(0.123621 -0.0259877 0)
(0.131558 -0.0295386 0)
(0.140409 -0.0329733 0)
(0.150119 -0.0362951 0)
(0.160633 -0.0394909 0)
(0.171887 -0.0425341 0)
(0.183807 -0.0453891 0)
(0.196305 -0.0480163 0)
(0.209282 -0.0503763 0)
(0.222629 -0.0524343 0)
(0.236232 -0.0541632 0)
(0.249975 -0.0555453 0)
(0.263745 -0.0565726 0)
(0.277435 -0.0572471 0)
(0.290948 -0.0575789 0)
(0.304198 -0.0575854 0)
(0.317112 -0.0572891 0)
(0.329628 -0.0567163 0)
(0.341696 -0.0558956 0)
(0.353279 -0.0548566 0)
(0.364348 -0.0536287 0)
(0.374886 -0.0522407 0)
(0.384881 -0.0507199 0)
(0.394331 -0.0490919 0)
(0.403237 -0.0473801 0)
(0.411608 -0.045606 0)
(0.419454 -0.0437888 0)
(0.426789 -0.0419454 0)
(0.433632 -0.040091 0)
(0.440001 -0.0382384 0)
(0.445917 -0.0363988 0)
(0.4514 -0.0345815 0)
(0.456473 -0.0327944 0)
(0.461158 -0.0310437 0)
(0.465477 -0.0293343 0)
(0.469452 -0.02767 0)
(0.473105 -0.0260532 0)
(0.476457 -0.0244854 0)
(0.479529 -0.0229671 0)
(0.482341 -0.0214977 0)
(0.484912 -0.0200759 0)
(0.487261 -0.0186996 0)
(0.489406 -0.0173657 0)
(0.491365 -0.0160707 0)
(0.493152 -0.01481 0)
(0.494785 -0.0135787 0)
(0.496279 -0.0123708 0)
(0.497649 -0.01118 0)
(0.498907 -0.00999907 0)
(0.500069 -0.00882035 0)
(0.501147 -0.00763551 0)
(0.502154 -0.00643562 0)
(0.503104 -0.00521125 0)
(0.504008 -0.0039525 0)
(0.50488 -0.002649 0)
(0.505733 -0.00129014 0)
(0.506579 0.000134917 0)
(0.507432 0.00163715 0)
(0.508307 0.00322689 0)
(0.509217 0.00491445 0)
(0.510178 0.00670938 0)
(0.511205 0.00862008 0)
(0.512315 0.0106534 0)
(0.513523 0.0128143 0)
(0.514847 0.0151051 0)
(0.516303 0.0175251 0)
(0.517905 0.0200702 0)
(0.519669 0.0227321 0)
(0.521605 0.0254983 0)
(0.52372 0.028352 0)
(0.52602 0.0312722 0)
(0.528502 0.0342343 0)
(0.531157 0.0372108 0)
(0.533972 0.0401731 0)
(0.536924 0.0430936 0)
(0.53998 0.0459503 0)
(0.0999233 -0.00551132 0)
(0.102306 -0.0110695 0)
(0.105914 -0.0160725 0)
(0.110676 -0.0207253 0)
(0.11659 -0.0251255 0)
(0.123581 -0.0293331 0)
(0.131579 -0.0333931 0)
(0.140529 -0.0373308 0)
(0.150384 -0.0411489 0)
(0.161093 -0.0448307 0)
(0.172593 -0.0483432 0)
(0.184808 -0.0516425 0)
(0.197645 -0.0546794 0)
(0.210996 -0.0574058 0)
(0.224742 -0.0597791 0)
(0.238755 -0.0617667 0)
(0.252907 -0.0633477 0)
(0.267076 -0.0645132 0)
(0.281147 -0.0652664 0)
(0.295014 -0.0656204 0)
(0.308587 -0.0655966 0)
(0.321789 -0.0652226 0)
(0.334557 -0.06453 0)
(0.346841 -0.0635529 0)
(0.358605 -0.0623262 0)
(0.36982 -0.0608845 0)
(0.380472 -0.0592614 0)
(0.390551 -0.0574885 0)
(0.400057 -0.0555953 0)
(0.408993 -0.0536087 0)
(0.417371 -0.0515533 0)
(0.425202 -0.0494508 0)
(0.432504 -0.0473205 0)
(0.439296 -0.0451794 0)
(0.445599 -0.0430419 0)
(0.451434 -0.0409206 0)
(0.456824 -0.0388258 0)
(0.461792 -0.0367662 0)
(0.466362 -0.0347488 0)
(0.470557 -0.0327789 0)
(0.4744 -0.0308605 0)
(0.477913 -0.0289963 0)
(0.481119 -0.0271877 0)
(0.484038 -0.0254353 0)
(0.486691 -0.0237385 0)
(0.489098 -0.0220956 0)
(0.491279 -0.0205042 0)
(0.493251 -0.0189612 0)
(0.495033 -0.0174626 0)
(0.496641 -0.0160036 0)
(0.498091 -0.0145788 0)
(0.4994 -0.0131821 0)
(0.500582 -0.0118067 0)
(0.501652 -0.0104455 0)
(0.502624 -0.00909065 0)
(0.503511 -0.00773377 0)
(0.504328 -0.00636617 0)
(0.505088 -0.00497875 0)
(0.505804 -0.00356214 0)
(0.506489 -0.00210679 0)
(0.507155 -0.0006033 0)
(0.507818 0.00095832 0)
(0.50849 0.00258654 0)
(0.509185 0.00429014 0)
(0.509916 0.00607714 0)
(0.510699 0.00795445 0)
(0.511547 0.00992762 0)
(0.512473 0.0120005 0)
(0.513492 0.0141751 0)
(0.514617 0.0164509 0)
(0.515859 0.0188249 0)
(0.517229 0.0212913 0)
(0.518735 0.0238413 0)
(0.520383 0.0264634 0)
(0.522176 0.029143 0)
(0.524112 0.0318634 0)
(0.526185 0.034606 0)
(0.528387 0.0373515 0)
(0.530703 0.0400802 0)
(0.533113 0.042774 0)
(0.535591 0.0454206 0)
(0.0998347 -0.0061059 0)
(0.10226 -0.0123191 0)
(0.10588 -0.0179394 0)
(0.110643 -0.0231851 0)
(0.11658 -0.0281637 0)
(0.123627 -0.0329406 0)
(0.13172 -0.0375656 0)
(0.140815 -0.0420661 0)
(0.150873 -0.0464442 0)
(0.161846 -0.0506778 0)
(0.173676 -0.0547252 0)
(0.18628 -0.0585311 0)
(0.199558 -0.0620341 0)
(0.213388 -0.0651745 0)
(0.227635 -0.0679003 0)
(0.242156 -0.0701723 0)
(0.256809 -0.0719663 0)
(0.271458 -0.0732733 0)
(0.285977 -0.0740986 0)
(0.300254 -0.0744598 0)
(0.314195 -0.0743837 0)
(0.327719 -0.0739043 0)
(0.340764 -0.0730598 0)
(0.35328 -0.0718911 0)
(0.365232 -0.0704393 0)
(0.376596 -0.068745 0)
(0.387357 -0.0668472 0)
(0.397511 -0.0647825 0)
(0.407059 -0.0625845 0)
(0.41601 -0.0602841 0)
(0.424376 -0.057909 0)
(0.432173 -0.0554838 0)
(0.43942 -0.0530301 0)
(0.446138 -0.0505669 0)
(0.45235 -0.0481102 0)
(0.458081 -0.045674 0)
(0.463353 -0.0432697 0)
(0.468193 -0.0409067 0)
(0.472624 -0.0385926 0)
(0.476671 -0.0363333 0)
(0.480358 -0.0341329 0)
(0.483708 -0.0319944 0)
(0.486744 -0.0299192 0)
(0.489487 -0.0279078 0)
(0.49196 -0.0259594 0)
(0.494183 -0.0240723 0)
(0.496175 -0.0222439 0)
(0.497955 -0.0204705 0)
(0.499542 -0.0187481 0)
(0.500952 -0.0170715 0)
(0.502203 -0.0154352 0)
(0.503311 -0.0138327 0)
(0.504291 -0.0122574 0)
(0.505158 -0.0107018 0)
(0.505926 -0.00915819 0)
(0.506611 -0.00761846 0)
(0.507226 -0.00607419 0)
(0.507784 -0.00451677 0)
(0.5083 -0.00293753 0)
(0.508785 -0.00132791 0)
(0.509254 0.000320627 0)
(0.509721 0.00201608 0)
(0.510197 0.00376583 0)
(0.510696 0.00557694 0)
(0.511231 0.00745541 0)
(0.511814 0.00940606 0)
(0.512458 0.0114324 0)
(0.513175 0.0135361 0)
(0.513974 0.0157175 0)
(0.514867 0.0179747 0)
(0.515861 0.0203037 0)
(0.516962 0.0226987 0)
(0.518177 0.0251517 0)
(0.519506 0.0276528 0)
(0.520949 0.0301906 0)
(0.522502 0.0327525 0)
(0.52416 0.035325 0)
(0.525912 0.0378945 0)
(0.527745 0.0404481 0)
(0.529645 0.042974 0)
(0.53159 0.0454656 0)
(0.0997353 -0.00674082 0)
(0.102218 -0.0136542 0)
(0.105869 -0.0199397 0)
(0.110655 -0.0258294 0)
(0.11664 -0.0314416 0)
(0.123777 -0.0368486 0)
(0.132011 -0.0421052 0)
(0.141309 -0.0472419 0)
(0.151643 -0.0522586 0)
(0.162974 -0.0571256 0)
(0.17524 -0.0617886 0)
(0.188352 -0.0661768 0)
(0.202196 -0.0702123 0)
(0.216629 -0.0738204 0)
(0.231496 -0.0769378 0)
(0.246634 -0.079518 0)
(0.261882 -0.0815341 0)
(0.277089 -0.0829783 0)
(0.292121 -0.0838599 0)
(0.306858 -0.0842027 0)
(0.321201 -0.0840413 0)
(0.33507 -0.0834177 0)
(0.348403 -0.0823787 0)
(0.361152 -0.0809727 0)
(0.373287 -0.0792487 0)
(0.384786 -0.077254 0)
(0.395639 -0.0750336 0)
(0.405847 -0.0726295 0)
(0.415414 -0.0700802 0)
(0.424353 -0.0674204 0)
(0.43268 -0.0646813 0)
(0.440413 -0.0618905 0)
(0.447575 -0.059072 0)
(0.454189 -0.0562467 0)
(0.460282 -0.0534324 0)
(0.465878 -0.0506443 0)
(0.471004 -0.0478948 0)
(0.475686 -0.0451942 0)
(0.47995 -0.0425506 0)
(0.483822 -0.0399702 0)
(0.487326 -0.0374576 0)
(0.490487 -0.0350156 0)
(0.493329 -0.0326459 0)
(0.495874 -0.0303486 0)
(0.498144 -0.028123 0)
(0.50016 -0.0259671 0)
(0.501943 -0.023878 0)
(0.503511 -0.021852 0)
(0.504885 -0.0198847 0)
(0.50608 -0.0179707 0)
(0.507115 -0.0161042 0)
(0.508006 -0.0142789 0)
(0.508769 -0.0124879 0)
(0.50942 -0.0107238 0)
(0.509973 -0.00897903 0)
(0.510442 -0.00724579 0)
(0.510843 -0.00551605 0)
(0.511188 -0.00378178 0)
(0.511491 -0.00203509 0)
(0.511765 -0.000268708 0)
(0.512025 0.00152577 0)
(0.512281 0.00335421 0)
(0.512547 0.00522321 0)
(0.512834 0.00713833 0)
(0.513154 0.00910406 0)
(0.513518 0.0111238 0)
(0.513937 0.0131995 0)
(0.514419 0.015332 0)
(0.514973 0.0175206 0)
(0.515607 0.019763 0)
(0.516326 0.0220553 0)
(0.517135 0.0243925 0)
(0.518034 0.0267679 0)
(0.519025 0.0291739 0)
(0.520106 0.031602 0)
(0.521271 0.0340429 0)
(0.522515 0.0364874 0)
(0.523829 0.0389262 0)
(0.525203 0.0413508 0)
(0.526624 0.0437537 0)
(0.528077 0.0461321 0)
(0.0996227 -0.00742213 0)
(0.102181 -0.0150874 0)
(0.105886 -0.0220928 0)
(0.110717 -0.0286852 0)