/*--------------------------------*- C++ -*----------------------------------*\
  =========                 |
  \\      /  F ield         | OpenFOAM: The Open Source CFD Toolbox
   \\    /   O peration     | Website:  https://openfoam.org
    \\  /    A nd           | Version:  7
     \\/     M anipulation  |
\*---------------------------------------------------------------------------*/
FoamFile
{
    version     2.0;
    format      ascii;
    class       surfaceScalarField;
    location    "4.33";
    object      phi;
}
// * * * * * * * * * * * * * * * * * * * * * * * * * * * * * * * * * * * * * //

dimensions      [1 0 -1 0 0 0 0];

internalField   nonuniform List<scalar> 
23692
(
1.1818e-05
-1.83119e-07
1.21544e-05
-3.35979e-07
1.26291e-05
-4.73996e-07
1.32265e-05
-5.96428e-07
1.39335e-05
-7.05855e-07
1.47384e-05
-8.035e-07
1.563e-05
-8.89924e-07
1.65973e-05
-9.65515e-07
1.76299e-05
-1.03056e-06
1.87175e-05
-1.08535e-06
1.985e-05
-1.13019e-06
2.1018e-05
-1.16549e-06
2.22123e-05
-1.19171e-06
2.34243e-05
-1.2094e-06
2.46462e-05
-1.21916e-06
2.58707e-05
-1.22165e-06
2.70911e-05
-1.21756e-06
2.83015e-05
-1.20759e-06
2.94968e-05
-1.19245e-06
3.06725e-05
-1.17283e-06
3.18248e-05
-1.14939e-06
3.29503e-05
-1.12277e-06
3.40467e-05
-1.09356e-06
3.51117e-05
-1.06231e-06
3.61439e-05
-1.02951e-06
3.71422e-05
-9.95616e-07
3.81057e-05
-9.61019e-07
3.90343e-05
-9.26076e-07
3.99278e-05
-8.91091e-07
4.07864e-05
-8.5633e-07
4.16106e-05
-8.22016e-07
4.24011e-05
-7.88338e-07
4.31585e-05
-7.5545e-07
4.38839e-05
-7.23478e-07
4.45782e-05
-6.92517e-07
4.52426e-05
-6.62642e-07
4.58781e-05
-6.33905e-07
4.64859e-05
-6.06339e-07
4.70672e-05
-5.79958e-07
4.76233e-05
-5.54761e-07
4.81552e-05
-5.30736e-07
4.86641e-05
-5.0786e-07
4.91511e-05
-4.86095e-07
4.96174e-05
-4.65394e-07
5.00638e-05
-4.45705e-07
5.04914e-05
-4.26964e-07
5.09011e-05
-4.09103e-07
5.12936e-05
-3.92044e-07
5.16697e-05
-3.75703e-07
5.20299e-05
-3.59989e-07
5.23749e-05
-3.44805e-07
5.27051e-05
-3.30047e-07
5.30208e-05
-3.15601e-07
5.33221e-05
-3.01347e-07
5.36091e-05
-2.87156e-07
5.38819e-05
-2.72888e-07
5.414e-05
-2.5839e-07
5.43832e-05
-2.43498e-07
5.4611e-05
-2.28029e-07
5.48224e-05
-2.11782e-07
5.50165e-05
-1.9453e-07
5.51921e-05
-1.76018e-07
5.53475e-05
-1.55951e-07
5.5481e-05
-1.33986e-07
5.55902e-05
-1.09715e-07
5.56724e-05
-8.26473e-08
5.5724e-05
-5.21794e-08
5.5741e-05
-1.75566e-08
5.57182e-05
2.22283e-08
5.56491e-05
6.85593e-08
5.55253e-05
1.23321e-07
5.53355e-05
1.89188e-07
5.50649e-05
2.70126e-07
5.46921e-05
3.72245e-07
5.41862e-05
5.05396e-07
5.34996e-05
6.86182e-07
5.25551e-05
9.43981e-07
5.12209e-05
1.3338e-06
4.9251e-05
1.96952e-06
4.61166e-05
3.13398e-06
6.01702e-06
4.00993e-05
1.2641e-05
-3.74664e-07
1.29995e-05
-6.94013e-07
1.35065e-05
-9.80305e-07
1.41449e-05
-1.23383e-06
1.49009e-05
-1.46051e-06
1.57617e-05
-1.66277e-06
1.67153e-05
-1.84178e-06
1.77501e-05
-1.99836e-06
1.88548e-05
-2.13309e-06
2.00184e-05
-2.24657e-06
2.12301e-05
-2.33946e-06
2.24799e-05
-2.41258e-06
2.37578e-05
-2.4669e-06
2.50548e-05
-2.50355e-06
2.63624e-05
-2.52377e-06
2.76726e-05
-2.52893e-06
2.89786e-05
-2.52046e-06
3.02738e-05
-2.49981e-06
3.15529e-05
-2.46845e-06
3.2811e-05
-2.42781e-06
3.40439e-05
-2.37926e-06
3.52483e-05
-2.32412e-06
3.64213e-05
-2.26362e-06
3.75608e-05
-2.19888e-06
3.86651e-05
-2.13094e-06
3.9733e-05
-2.06072e-06
4.07638e-05
-1.98905e-06
4.1757e-05
-1.91665e-06
4.27126e-05
-1.84417e-06
4.36309e-05
-1.77215e-06
4.45123e-05
-1.70105e-06
4.53575e-05
-1.63126e-06
4.61673e-05
-1.5631e-06
4.69427e-05
-1.49683e-06
4.76848e-05
-1.43265e-06
4.83946e-05
-1.37072e-06
4.90736e-05
-1.31113e-06
4.97228e-05
-1.25396e-06
5.03435e-05
-1.19924e-06
5.09371e-05
-1.14696e-06
5.15047e-05
-1.09709e-06
5.20476e-05
-1.0496e-06
5.25669e-05
-1.00439e-06
5.30638e-05
-9.6138e-07
5.35393e-05
-9.20452e-07
5.39945e-05
-8.81477e-07
5.44303e-05
-8.4431e-07
5.48476e-05
-8.08792e-07
5.5247e-05
-7.74749e-07
5.56293e-05
-7.41993e-07
5.59951e-05
-7.10322e-07
5.63447e-05
-6.7952e-07
5.66784e-05
-6.49356e-07
5.69966e-05
-6.1958e-07
5.72993e-05
-5.89927e-07
5.75864e-05
-5.60108e-07
5.78575e-05
-5.29813e-07
5.81125e-05
-4.98704e-07
5.83505e-05
-4.66408e-07
5.85708e-05
-4.32515e-07
5.87724e-05
-3.96568e-07
5.8954e-05
-3.58047e-07
5.91139e-05
-3.1636e-07
5.92502e-05
-2.70818e-07
5.93605e-05
-2.20608e-07
5.94421e-05
-1.64755e-07
5.94914e-05
-1.02066e-07
5.95043e-05
-3.10516e-08
5.94757e-05
5.02445e-08
5.93992e-05
1.44429e-07
5.9267e-05
2.54998e-07
5.90688e-05
3.86818e-07
5.87915e-05
5.46872e-07
5.84177e-05
7.45497e-07
5.79241e-05
9.98459e-07
5.72792e-05
1.33052e-06
5.64412e-05
1.78154e-06
5.53575e-05
2.417e-06
5.39776e-05
3.349e-06
5.23391e-05
4.77212e-06
6.93396e-06
5.14217e-05
1.35203e-05
-5.73956e-07
1.39012e-05
-1.07445e-06
1.44412e-05
-1.51958e-06
1.51225e-05
-1.91398e-06
1.59298e-05
-2.26651e-06
1.68497e-05
-2.58102e-06
1.78692e-05
-2.85936e-06
1.89757e-05
-3.1028e-06
2.01573e-05
-3.31228e-06
2.14019e-05
-3.48872e-06
2.26983e-05
-3.63316e-06
2.40354e-05
-3.74686e-06
2.54028e-05
-3.83132e-06
2.67906e-05
-3.88831e-06
2.81898e-05
-3.91977e-06
2.95919e-05
-3.92781e-06
3.09893e-05
-3.91464e-06
3.23753e-05
-3.88255e-06
3.37439e-05
-3.83379e-06
3.509e-05
-3.7706e-06
3.64092e-05
-3.69513e-06
3.76977e-05
-3.6094e-06
3.89526e-05
-3.51533e-06
4.01715e-05
-3.41468e-06
4.13527e-05
-3.30903e-06
4.24948e-05
-3.19984e-06
4.35971e-05
-3.08839e-06
4.46591e-05
-2.9758e-06
4.56807e-05
-2.86308e-06
4.66623e-05
-2.75105e-06
4.76042e-05
-2.64046e-06
4.85073e-05
-2.53189e-06
4.93723e-05
-2.42584e-06
5.02004e-05
-2.32272e-06
5.09926e-05
-2.22284e-06
5.17503e-05
-2.12642e-06
5.24746e-05
-2.03363e-06
5.3167e-05
-1.94459e-06
5.38286e-05
-1.85932e-06
5.4461e-05
-1.77784e-06
5.50653e-05
-1.70009e-06
5.56429e-05
-1.62599e-06
5.6195e-05
-1.55544e-06
5.67229e-05
-1.48826e-06
5.72276e-05
-1.4243e-06
5.77102e-05
-1.36335e-06
5.81717e-05
-1.30518e-06
5.8613e-05
-1.24955e-06
5.90349e-05
-1.19618e-06
5.9438e-05
-1.14479e-06
5.9823e-05
-1.09506e-06
6.01902e-05
-1.04665e-06
6.05401e-05
-9.99222e-07
6.08729e-05
-9.52378e-07
6.11886e-05
-9.05713e-07
6.14871e-05
-8.58786e-07
6.17681e-05
-8.11122e-07
6.20313e-05
-7.62206e-07
6.2276e-05
-7.11477e-07
6.25014e-05
-6.58313e-07
6.27064e-05
-6.02027e-07
6.28897e-05
-5.41845e-07
6.30497e-05
-4.76889e-07
6.31844e-05
-4.06143e-07
6.32917e-05
-3.28422e-07
6.33686e-05
-2.42314e-07
6.3412e-05
-1.46112e-07
6.34181e-05
-3.77066e-08
6.33821e-05
8.56008e-08
6.32986e-05
2.27288e-07
6.31611e-05
3.91899e-07
6.29617e-05
5.85529e-07
6.26915e-05
8.16515e-07
6.23399e-05
1.09645e-06
6.18962e-05
1.44165e-06
6.13509e-05
1.87521e-06
6.07024e-05
2.42954e-06
5.99699e-05
3.14901e-06
5.9228e-05
4.09049e-06
5.869e-05
5.30958e-06
6.78213e-06
5.88415e-05
1.44605e-05
-7.81084e-07
1.48639e-05
-1.47732e-06
1.5438e-05
-2.09282e-06
1.61639e-05
-2.63875e-06
1.70254e-05
-3.12656e-06
1.80078e-05
-3.56166e-06
1.90972e-05
-3.94669e-06
2.02801e-05
-4.28344e-06
2.15435e-05
-4.57323e-06
2.28748e-05
-4.8173e-06
2.42617e-05
-5.01711e-06
2.56922e-05
-5.1744e-06
2.71553e-05
-5.29126e-06
2.86404e-05
-5.37011e-06
3.01377e-05
-5.41365e-06
3.16381e-05
-5.42478e-06
3.31335e-05
-5.40659e-06
3.46167e-05
-5.36221e-06
3.60812e-05
-5.29478e-06
3.75216e-05
-5.20738e-06
3.89329e-05
-5.10299e-06
4.03114e-05
-4.98441e-06
4.16538e-05
-4.85429e-06
4.29575e-05
-4.71505e-06
4.42207e-05
-4.56891e-06
4.5442e-05
-4.41785e-06
4.66204e-05
-4.26366e-06
4.77555e-05
-4.10789e-06
4.88473e-05
-3.95192e-06
4.9896e-05
-3.7969e-06
5.09021e-05
-3.64384e-06
5.18663e-05
-3.49356e-06
5.27897e-05
-3.34675e-06
5.36733e-05
-3.20397e-06
5.45183e-05
-3.06563e-06
5.53261e-05
-2.93206e-06
5.60979e-05
-2.80349e-06
5.68352e-05
-2.68005e-06
5.75394e-05
-2.56181e-06
5.82118e-05
-2.44876e-06
5.8854e-05
-2.34084e-06
5.94673e-05
-2.23793e-06
6.00529e-05
-2.13987e-06
6.06121e-05
-2.04645e-06
6.11461e-05
-1.95742e-06
6.16561e-05
-1.87251e-06
6.2143e-05
-1.79141e-06
6.26078e-05
-1.71377e-06
6.30513e-05
-1.63923e-06
6.34742e-05
-1.56737e-06
6.38772e-05
-1.49777e-06
6.42607e-05
-1.42998e-06
6.4625e-05
-1.36351e-06
6.49704e-05
-1.29783e-06
6.5297e-05
-1.23239e-06
6.56046e-05
-1.1666e-06
6.5893e-05
-1.09982e-06
6.61618e-05
-1.03135e-06
6.64104e-05
-9.60447e-07
6.6638e-05
-8.86296e-07
6.68434e-05
-8.07989e-07
6.70256e-05
-7.24521e-07
6.71828e-05
-6.34757e-07
6.73135e-05
-5.37406e-07
6.74154e-05
-4.30974e-07
6.74862e-05
-3.13712e-07
6.75229e-05
-1.83538e-07
6.75225e-05
-3.79384e-08
6.74812e-05
1.262e-07
6.73951e-05
3.12724e-07
6.72599e-05
5.26474e-07
6.70711e-05
7.73618e-07
6.68249e-05
1.06206e-06
6.65188e-05
1.40194e-06
6.61538e-05
1.80609e-06
6.5738e-05
2.29038e-06
6.52937e-05
2.87331e-06
6.48681e-05
3.57405e-06
6.45514e-05
4.40669e-06
6.44943e-05
5.36617e-06
6.39362e-06
6.48824e-05
1.54664e-05
-9.96461e-07
1.58926e-05
-1.90303e-06
1.6502e-05
-2.70125e-06
1.72747e-05
-3.4102e-06
1.81933e-05
-4.04358e-06
1.92419e-05
-4.60842e-06
2.04056e-05
-5.10823e-06
2.167e-05
-5.54535e-06
2.3021e-05
-5.92151e-06
2.44449e-05
-6.23834e-06
2.59286e-05
-6.49773e-06
2.74594e-05
-6.70193e-06
2.90252e-05
-6.85366e-06
3.06147e-05
-6.95604e-06
3.22173e-05
-7.01258e-06
3.38232e-05
-7.02706e-06
3.54239e-05
-7.00347e-06
3.70113e-05
-6.94587e-06
3.85787e-05
-6.85835e-06
4.012e-05
-6.74491e-06
4.16302e-05
-6.60941e-06
4.3105e-05
-6.4555e-06
4.4541e-05
-6.28659e-06
4.59354e-05
-6.10585e-06
4.72862e-05
-5.91613e-06
4.85918e-05
-5.72004e-06
4.98514e-05
-5.51986e-06
5.10644e-05
-5.31762e-06
5.22307e-05
-5.1151e-06
5.33507e-05
-4.9138e-06
5.44248e-05
-4.71501e-06
5.54538e-05
-4.51981e-06
5.64388e-05
-4.32909e-06
5.73809e-05
-4.14355e-06
5.82814e-05
-3.96374e-06
5.91417e-05
-3.79008e-06
5.99632e-05
-3.62286e-06
6.07474e-05
-3.46226e-06
6.14957e-05
-3.30835e-06
6.22098e-05
-3.16112e-06
6.2891e-05
-3.02049e-06
6.35407e-05
-2.8863e-06
6.41605e-05
-2.75835e-06
6.47515e-05
-2.63636e-06
6.53151e-05
-2.52001e-06
6.58524e-05
-2.40894e-06
6.63644e-05
-2.30275e-06
6.68523e-05
-2.20099e-06
6.73167e-05
-2.10319e-06
6.77586e-05
-2.00883e-06
6.81784e-05
-1.91736e-06
6.85768e-05
-1.8282e-06
6.8954e-05
-1.74072e-06
6.93104e-05
-1.65427e-06
6.96461e-05
-1.56815e-06
6.99609e-05
-1.4816e-06
7.02546e-05
-1.39384e-06
7.05269e-05
-1.304e-06
7.07772e-05
-1.21116e-06
7.10048e-05
-1.11433e-06
7.12087e-05
-1.01242e-06
7.13878e-05
-9.04215e-07
7.15408e-05
-7.88391e-07
7.16662e-05
-6.63448e-07
7.17622e-05
-5.27688e-07
7.1827e-05
-3.79165e-07
7.18584e-05
-2.15618e-07
7.18541e-05
-3.44016e-08
7.1812e-05
1.67616e-07
7.17298e-05
3.94113e-07
7.16061e-05
6.49488e-07
7.144e-05
9.38979e-07
7.12327e-05
1.26875e-06
7.0988e-05
1.64588e-06
7.07153e-05
2.07816e-06
7.04317e-05
2.57341e-06
7.01663e-05
3.13805e-06
6.99654e-05
3.77442e-06
6.98953e-05
4.47619e-06
7.00399e-05
5.22106e-06
5.95876e-06
7.04743e-05
1.65427e-05
-1.2208e-06
1.69926e-05
-2.35243e-06
1.76389e-05
-3.3465e-06
1.84608e-05
-4.23077e-06
1.94398e-05
-5.02092e-06
2.05589e-05
-5.72547e-06
2.18019e-05
-6.34892e-06
2.31534e-05
-6.89417e-06
2.45981e-05
-7.36339e-06
2.61215e-05
-7.75863e-06
2.77094e-05
-8.08221e-06
2.93479e-05
-8.33698e-06
3.10242e-05
-8.52628e-06
3.2726e-05
-8.65402e-06
3.44419e-05
-8.72458e-06
3.61615e-05
-8.74266e-06
3.78753e-05
-8.71323e-06
3.95749e-05
-8.64139e-06
4.12528e-05
-8.53221e-06
4.29027e-05
-8.3907e-06
4.4519e-05
-8.22165e-06
4.60972e-05
-8.02965e-06
4.76335e-05
-7.81894e-06
4.9125e-05
-7.59346e-06
5.05695e-05
-7.35678e-06
5.19653e-05
-7.11214e-06
5.33115e-05
-6.86239e-06
5.46074e-05
-6.61007e-06
5.58531e-05
-6.35737e-06
5.70487e-05
-6.10616e-06
5.81949e-05
-5.85806e-06
5.92925e-05
-5.61441e-06
6.03426e-05
-5.37629e-06
6.13463e-05
-5.14459e-06
6.23052e-05
-4.92e-06
6.32205e-05
-4.70302e-06
6.40939e-05
-4.494e-06
6.49269e-05
-4.29317e-06
6.57212e-05
-4.10062e-06
6.64782e-05
-3.91633e-06
6.71996e-05
-3.74019e-06
6.78868e-05
-3.57202e-06
6.85413e-05
-3.41153e-06
6.91646e-05
-3.2584e-06
6.97578e-05
-3.11222e-06
7.03224e-05
-2.97255e-06
7.08593e-05
-2.83889e-06
7.13697e-05
-2.71068e-06
7.18544e-05
-2.58735e-06
7.23142e-05
-2.46825e-06
7.27498e-05
-2.35271e-06
7.31618e-05
-2.24003e-06
7.35506e-05
-2.12944e-06
7.39164e-05
-2.02015e-06
7.42595e-05
-1.91132e-06
7.45797e-05
-1.80206e-06
7.4877e-05
-1.69142e-06
7.5151e-05
-1.57839e-06
7.54013e-05
-1.46192e-06
7.56273e-05
-1.34085e-06
7.58282e-05
-1.21394e-06
7.60033e-05
-1.07985e-06
7.61513e-05
-9.37125e-07
7.62714e-05
-7.84154e-07
7.63621e-05
-6.19161e-07
7.64224e-05
-4.40166e-07
7.64509e-05
-2.4495e-07
7.64468e-05
-3.10238e-08
7.64092e-05
2.04397e-07
7.63382e-05
4.64366e-07
7.62346e-05
7.52298e-07
7.6101e-05
1.07188e-06
7.5942e-05
1.42696e-06
7.57659e-05
1.82122e-06
7.55857e-05
2.25771e-06
7.54204e-05
2.73798e-06
7.52971e-05
3.26075e-06
7.52508e-05
3.82011e-06
7.53233e-05
4.40311e-06
7.55566e-05
4.98713e-06
5.5376e-06
7.59772e-05
1.76945e-05
-1.4551e-06
1.81695e-05
-2.82676e-06
1.88547e-05
-4.03066e-06
1.97288e-05
-5.1034e-06
2.07721e-05
-6.06242e-06
2.19664e-05
-6.9176e-06
2.32944e-05
-7.67439e-06
2.47394e-05
-8.3363e-06
2.62851e-05
-8.90594e-06
2.79156e-05
-9.3858e-06
2.96157e-05
-9.7787e-06
3.13705e-05
-1.0088e-05
3.31661e-05
-1.03179e-05
3.49892e-05
-1.0473e-05
3.68275e-05
-1.05587e-05
3.86698e-05
-1.05806e-05
4.05057e-05
-1.05449e-05
4.23263e-05
-1.04576e-05
4.41235e-05
-1.0325e-05
4.58903e-05
-1.01531e-05
4.76208e-05
-9.94779e-06
4.93101e-05
-9.71462e-06
5.09542e-05
-9.45874e-06
5.25499e-05
-9.18492e-06
5.40947e-05
-8.89752e-06
5.5587e-05
-8.60045e-06
5.70257e-05
-8.29716e-06
5.84102e-05
-7.99074e-06
5.97403e-05
-7.68384e-06
6.10164e-05
-7.37873e-06
6.22391e-05
-7.07736e-06
6.34093e-05
-6.78134e-06
6.4528e-05
-6.49199e-06
6.55968e-05
-6.21039e-06
6.66169e-05
-5.93734e-06
6.75899e-05
-5.67347e-06
6.85176e-05
-5.41919e-06
6.94014e-05
-5.17476e-06
7.02432e-05
-4.94029e-06
7.10446e-05
-4.71577e-06
7.18072e-05
-4.50104e-06
7.25327e-05
-4.29588e-06
7.32226e-05
-4.09996e-06
7.38784e-05
-3.91286e-06
7.45014e-05
-3.73411e-06
7.5093e-05
-3.56316e-06
7.56544e-05
-3.39942e-06
7.61867e-05
-3.24222e-06
7.66907e-05
-3.09087e-06
7.71676e-05
-2.94461e-06
7.76178e-05
-2.80265e-06
7.80421e-05
-2.66414e-06
7.8441e-05
-2.52821e-06
7.88147e-05
-2.39392e-06
7.91635e-05
-2.2603e-06
7.94876e-05
-2.12633e-06
7.97868e-05
-1.99094e-06
8.0061e-05
-1.853e-06
8.03099e-05
-1.71132e-06
8.05331e-05
-1.56464e-06
8.07302e-05
-1.41165e-06
8.09006e-05
-1.25091e-06
8.10438e-05
-1.08094e-06
8.1159e-05
-9.00122e-07
8.12458e-05
-7.06733e-07
8.13038e-05
-4.98929e-07
8.13327e-05
-2.74733e-07
8.13329e-05
-3.20555e-08
8.13052e-05
2.31267e-07
8.12514e-05
5.17389e-07
8.11744e-05
8.28474e-07
8.10789e-05
1.1665e-06
8.09721e-05
1.53305e-06
8.08636e-05
1.92892e-06
8.07668e-05
2.3537e-06
8.0699e-05
2.80508e-06
8.0681e-05
3.27806e-06
8.07363e-05
3.76408e-06
8.08886e-05
4.2502e-06
8.11563e-05
4.7188e-06
5.14839e-06
8.1545e-05
1.89273e-05
-1.70058e-06
1.9429e-05
-3.32777e-06
2.01559e-05
-4.75642e-06
2.10857e-05
-6.03168e-06
2.2198e-05
-7.17267e-06
2.34731e-05
-8.19037e-06
2.48926e-05
-9.09114e-06
2.64385e-05
-9.87909e-06
2.80932e-05
-1.05573e-05
2.98397e-05
-1.11286e-05
3.16613e-05
-1.15965e-05
3.35422e-05
-1.19648e-05
3.54671e-05
-1.22385e-05
3.74217e-05
-1.24232e-05
3.93928e-05
-1.25251e-05
4.13679e-05
-1.25512e-05
4.33363e-05
-1.25085e-05
4.52878e-05
-1.24044e-05
4.72139e-05
-1.22463e-05
4.91071e-05
-1.20415e-05
5.09609e-05
-1.17969e-05
5.277e-05
-1.1519e-05
5.45301e-05
-1.12142e-05
5.62377e-05
-1.0888e-05
5.78903e-05
-1.05457e-05
5.9486e-05
-1.01918e-05
6.10237e-05
-9.83059e-06
6.25027e-05
-9.46561e-06
6.39228e-05
-9.10003e-06
6.52845e-05
-8.73658e-06
6.65883e-05
-8.37754e-06
6.78353e-05
-8.02483e-06
6.90266e-05
-7.68001e-06
7.01638e-05
-7.34435e-06
7.12482e-05
-7.0188e-06
7.22817e-05
-6.70409e-06
7.32658e-05
-6.40072e-06
7.42025e-05
-6.10898e-06
7.50935e-05
-5.82899e-06
7.59405e-05
-5.56073e-06
7.67455e-05
-5.30402e-06
7.75099e-05
-5.05858e-06
7.82356e-05
-4.82403e-06
7.8924e-05
-4.59987e-06
7.95767e-05
-4.38554e-06
8.0195e-05
-4.1804e-06
8.07802e-05
-3.98374e-06
8.13336e-05
-3.7948e-06
8.18561e-05
-3.61276e-06
8.23487e-05
-3.43675e-06
8.28122e-05
-3.26585e-06
8.32474e-05
-3.0991e-06
8.36548e-05
-2.93549e-06
8.40348e-05
-2.77397e-06
8.43878e-05
-2.61347e-06
8.47141e-05
-2.45283e-06
8.50137e-05
-2.29088e-06
8.52866e-05
-2.12642e-06
8.5533e-05
-1.95816e-06
8.57525e-05
-1.78479e-06
8.59452e-05
-1.60496e-06
8.61108e-05
-1.41725e-06
8.62494e-05
-1.22021e-06
8.63608e-05
-1.01232e-06
8.64453e-05
-7.92051e-07
8.65033e-05
-5.5782e-07
8.65358e-05
-3.08051e-07
8.6544e-05
-4.12052e-08
8.65303e-05
2.44123e-07
8.64977e-05
5.49114e-07
8.64506e-05
8.74689e-07
8.63949e-05
1.22131e-06
8.63383e-05
1.58874e-06
8.62906e-05
1.97581e-06
8.62634e-05
2.38006e-06
8.62703e-05
2.79739e-06
8.63259e-05
3.22173e-06
8.64445e-05
3.6448e-06
8.66379e-05
4.05611e-06
8.69126e-05
4.44335e-06
4.79384e-06
8.72666e-05
2.02469e-05
-1.9587e-06
2.07775e-05
-3.85767e-06
2.15494e-05
-5.52707e-06
2.25394e-05
-7.01994e-06
2.3726e-05
-8.35711e-06
2.50885e-05
-9.55032e-06
2.66071e-05
-1.06068e-05
2.82624e-05
-1.15311e-05
3.00355e-05
-1.23268e-05
3.19081e-05
-1.29972e-05
3.38621e-05
-1.35462e-05
3.58802e-05
-1.39785e-05
3.79459e-05
-1.42996e-05
4.00438e-05
-1.45162e-05
4.21592e-05
-1.46357e-05
4.42791e-05
-1.4666e-05
4.63913e-05
-1.46155e-05
4.84851e-05
-1.44931e-05
5.05511e-05
-1.43072e-05
5.25812e-05
-1.40664e-05
5.45684e-05
-1.37789e-05
5.6507e-05
-1.34526e-05
5.83923e-05
-1.30945e-05
6.02206e-05
-1.27114e-05
6.19891e-05
-1.23094e-05
6.36958e-05
-1.18938e-05
6.53394e-05
-1.14697e-05
6.69194e-05
-1.10411e-05
6.84355e-05
-1.06119e-05
6.98882e-05
-1.01851e-05
7.12782e-05
-9.76354e-06
7.26065e-05
-9.34933e-06
7.38744e-05
-8.94433e-06
7.50835e-05
-8.55e-06
7.62354e-05
-8.16747e-06
7.73319e-05
-7.79757e-06
7.83749e-05
-7.44087e-06
7.93663e-05
-7.0977e-06
8.0308e-05
-6.76822e-06
8.12019e-05
-6.45237e-06
8.20499e-05
-6.14995e-06
8.28539e-05
-5.86063e-06
8.36155e-05
-5.58395e-06
8.43365e-05
-5.31934e-06
8.50185e-05
-5.06615e-06
8.56629e-05
-4.82365e-06
8.62712e-05
-4.59101e-06
8.68446e-05
-4.36736e-06
8.73843e-05
-4.15178e-06
8.78913e-05
-3.94326e-06
8.83666e-05
-3.74078e-06
8.8811e-05
-3.54326e-06
8.92252e-05
-3.34958e-06
8.96098e-05
-3.1586e-06
8.99653e-05
-2.96911e-06
9.02921e-05
-2.7799e-06
9.05906e-05
-2.58973e-06
9.0861e-05
-2.3973e-06
9.11036e-05
-2.20133e-06
9.13187e-05
-2.00049e-06
9.15065e-05
-1.79344e-06
9.16674e-05
-1.57886e-06
9.18018e-05
-1.3554e-06
9.19104e-05
-1.12175e-06
9.1994e-05
-8.76627e-07
9.20541e-05
-6.18826e-07
9.20924e-05
-3.47246e-07
9.21112e-05
-6.09517e-08
9.21137e-05
2.40713e-07
9.21038e-05
5.58041e-07
9.20866e-05
8.90923e-07
9.20683e-05
1.23868e-06
9.20562e-05
1.59991e-06
9.20588e-05
1.97232e-06
9.20854e-05
2.35259e-06
9.21457e-05
2.73622e-06
9.22491e-05
3.11752e-06
9.24035e-05
3.48965e-06
9.2614e-05
3.84487e-06
9.28815e-05
4.17513e-06
4.47315e-06
9.32015e-05
2.16594e-05
-2.23114e-06
2.22217e-05
-4.4192e-06
2.30426e-05
-6.34664e-06
2.4098e-05
-8.07345e-06
2.53654e-05
-9.62221e-06
2.6823e-05
-1.10051e-05
2.84496e-05
-1.22301e-05
3.02243e-05
-1.33022e-05
3.21269e-05
-1.42254e-05
3.41372e-05
-1.50033e-05
3.62359e-05
-1.56404e-05
3.84042e-05
-1.61419e-05
4.06241e-05
-1.65145e-05
4.28786e-05
-1.67656e-05
4.51521e-05
-1.69038e-05
4.743e-05
-1.69384e-05
4.96992e-05
-1.68793e-05
5.19481e-05
-1.67364e-05
5.41665e-05
-1.65199e-05
5.63455e-05
-1.62398e-05
5.84775e-05
-1.59054e-05
6.05564e-05
-1.55259e-05
6.2577e-05
-1.51097e-05
6.45355e-05
-1.46645e-05
6.64288e-05
-1.41974e-05
6.82547e-05
-1.37147e-05
7.0012e-05
-1.3222e-05
7.17e-05
-1.27243e-05
7.33185e-05
-1.22258e-05
7.4868e-05
-1.17302e-05
7.63493e-05
-1.12405e-05
7.77636e-05
-1.07595e-05
7.91122e-05
-1.0289e-05
8.03968e-05
-9.83093e-06
8.16193e-05
-9.38644e-06
8.27815e-05
-8.95651e-06
8.38856e-05
-8.5418e-06
8.49334e-05
-8.14268e-06
8.59272e-05
-7.75931e-06
8.6869e-05
-7.39163e-06
8.77607e-05
-7.03941e-06
8.86044e-05
-6.70225e-06
8.94019e-05
-6.37962e-06
9.01551e-05
-6.07089e-06
9.08657e-05
-5.77529e-06
9.15354e-05
-5.49199e-06
9.21655e-05
-5.22008e-06
9.27576e-05
-4.95856e-06
9.3313e-05
-4.70638e-06
9.38328e-05
-4.46246e-06
9.4318e-05
-4.22565e-06
9.47698e-05
-3.99476e-06
9.51889e-05
-3.76859e-06
9.55762e-05
-3.54589e-06
9.59324e-05
-3.32539e-06
9.6258e-05
-3.10582e-06
9.65538e-05
-2.88588e-06
9.68203e-05
-2.66427e-06
9.70581e-05
-2.43971e-06
9.72679e-05
-2.21091e-06
9.74503e-05
-1.97663e-06
9.76063e-05
-1.73565e-06
9.77369e-05
-1.48681e-06
9.78433e-05
-1.22905e-06
9.79271e-05
-9.61414e-07
9.79904e-05
-6.83076e-07
9.80356e-05
-3.93422e-07
9.80657e-05
-9.20824e-08
9.80844e-05
2.20968e-07
9.80961e-05
5.45333e-07
9.81059e-05
8.80176e-07
9.81194e-05
1.22412e-06
9.81432e-05
1.57516e-06
9.81839e-05
1.9306e-06
9.82486e-05
2.28703e-06
9.83435e-05
2.64034e-06
9.84744e-05
2.98579e-06
9.8645e-05
3.3182e-06
9.88568e-05
3.63221e-06
9.91085e-05
3.92271e-06
4.18569e-06
9.93952e-05
2.31713e-05
-2.51981e-06
2.37687e-05
-5.01571e-06
2.46435e-05
-7.21995e-06
2.57705e-05
-9.19848e-06
2.71265e-05
-1.09757e-05
2.86884e-05
-1.25639e-05
3.04334e-05
-1.39716e-05
3.23392e-05
-1.52041e-05
3.4384e-05
-1.62657e-05
3.65459e-05
-1.71605e-05
3.88038e-05
-1.78933e-05
4.11372e-05
-1.84701e-05
4.35266e-05
-1.88983e-05
4.59534e-05
-1.91866e-05
4.84003e-05
-1.93449e-05
5.08516e-05
-1.93837e-05
5.3293e-05
-1.93146e-05
5.57117e-05
-1.9149e-05
5.80964e-05
-1.88986e-05
6.04377e-05
-1.85749e-05
6.27273e-05
-1.81889e-05
6.49585e-05
-1.77511e-05
6.71258e-05
-1.72711e-05
6.9225e-05
-1.67578e-05
7.12528e-05
-1.62195e-05
7.32069e-05
-1.56633e-05
7.50861e-05
-1.50958e-05
7.68895e-05
-1.45225e-05
7.86172e-05
-1.39484e-05
8.02696e-05
-1.33777e-05
8.18477e-05
-1.28139e-05
8.33526e-05
-1.226e-05
8.47861e-05
-1.17182e-05
8.61499e-05
-1.11907e-05
8.74459e-05
-1.06787e-05
8.86764e-05
-1.01834e-05
8.98434e-05
-9.70547e-06
9.09493e-05
-9.2454e-06
9.19962e-05
-8.80332e-06
9.29864e-05
-8.37916e-06
9.39221e-05
-7.97264e-06
9.48055e-05
-7.58332e-06
9.56385e-05
-7.2106e-06
9.64231e-05
-6.85373e-06
9.71613e-05
-6.51189e-06
9.78549e-05
-6.18412e-06
9.85054e-05
-5.8694e-06
9.91145e-05
-5.56665e-06
9.96836e-05
-5.27469e-06
0.000100214
-4.99235e-06
0.000100707
-4.71836e-06
0.000101164
-4.45146e-06
0.000101586
-4.19036e-06
0.000101974
-3.93374e-06
0.000102329
-3.68028e-06
0.000102651
-3.42867e-06
0.000102943
-3.17761e-06
0.000103204
-2.92581e-06
0.000103435
-2.67203e-06
0.000103639
-2.41508e-06
0.000103815
-2.15381e-06
0.000103966
-1.88718e-06
0.000104093
-1.61426e-06
0.000104197
-1.33423e-06
0.000104281
-1.04646e-06
0.000104347
-7.50494e-07
0.000104399
-4.46145e-07
0.000104439
-1.33496e-07
0.000104472
1.87023e-07
0.000104502
5.14564e-07
0.000104533
8.47884e-07
0.000104571
1.18529e-06
0.00010462
1.52462e-06
0.000104687
1.86324e-06
0.000104774
2.1981e-06
0.000104888
2.52579e-06
0.00010503
2.84265e-06
0.000105203
3.14497e-06
0.000105405
3.42917e-06
0.000105634
3.6921e-06
3.93168e-06
0.000105888
2.47898e-05
-2.82689e-06
2.54262e-05
-5.65117e-06
2.63606e-05
-8.15274e-06
2.75668e-05
-1.04025e-05
2.90206e-05
-1.24266e-05
3.06975e-05
-1.42375e-05
3.25733e-05
-1.58436e-05
3.4624e-05
-1.72506e-05
3.6826e-05
-1.84629e-05
3.91555e-05
-1.94849e-05
4.15896e-05
-2.03219e-05
4.41058e-05
-2.09805e-05
4.66826e-05
-2.14691e-05
4.92997e-05
-2.17975e-05
5.19381e-05
-2.19769e-05
5.45805e-05
-2.20196e-05
5.72111e-05
-2.19386e-05
5.98161e-05
-2.17473e-05
6.23832e-05
-2.1459e-05
6.49019e-05
-2.10869e-05
6.73633e-05
-2.06437e-05
6.97602e-05
-2.01413e-05
7.20865e-05
-1.95909e-05
7.43378e-05
-1.90028e-05
7.65107e-05
-1.83861e-05
7.86027e-05
-1.77492e-05
8.06125e-05
-1.70996e-05
8.25393e-05
-1.64436e-05
8.43831e-05
-1.57868e-05
8.61447e-05
-1.51339e-05
8.78249e-05
-1.44891e-05
8.94253e-05
-1.38555e-05
9.09477e-05
-1.3236e-05
9.2394e-05
-1.26326e-05
9.37664e-05
-1.20469e-05
9.50673e-05
-1.14803e-05
9.6299e-05
-1.09335e-05
9.7464e-05
-1.0407e-05
9.85648e-05
-9.90087e-06
9.96037e-05
-9.41513e-06
0.000100583
-8.94942e-06
0.000101506
-8.50324e-06
0.000102373
-8.07591e-06
0.000103188
-7.6666e-06
0.000103952
-7.27439e-06
0.000104668
-6.89822e-06
0.000105337
-6.53697e-06
0.000105961
-6.18944e-06
0.000106541
-5.85437e-06
0.00010708
-5.53047e-06
0.000107579
-5.21641e-06
0.000108038
-4.91084e-06
0.000108461
-4.61239e-06
0.000108847
-4.3197e-06
0.000109198
-4.03144e-06
0.000109515
-3.74627e-06
0.0001098
-3.4629e-06
0.000110054
-3.18011e-06
0.000110278
-2.8967e-06
0.000110473
-2.6116e-06
0.000110643
-2.32381e-06
0.000110787
-2.03245e-06
0.000110909
-1.73681e-06
0.00011101
-1.43632e-06
0.000111093
-1.13062e-06
0.000111161
-8.19573e-07
0.000111217
-5.03304e-07
0.000111264
-1.8221e-07
0.000111307
1.43014e-07
0.000111349
4.71301e-07
0.000111395
8.01267e-07
0.000111448
1.13119e-06
0.000111512
1.45905e-06
0.000111592
1.78254e-06
0.00011169
2.09913e-06
0.000111808
2.40619e-06
0.000111949
2.70105e-06
0.000112112
2.98114e-06
0.000112296
3.24415e-06
0.000112499
3.4882e-06
3.71233e-06
0.000112717
2.65222e-05
-3.15486e-06
2.72025e-05
-6.33036e-06
2.82033e-05
-9.15187e-06
2.94977e-05
-1.16945e-05
3.10602e-05
-1.3986e-05
3.28649e-05
-1.60386e-05
3.48862e-05
-1.78607e-05
3.70983e-05
-1.94579e-05
3.94752e-05
-2.08347e-05
4.19914e-05
-2.19955e-05
4.46216e-05
-2.29461e-05
4.73411e-05
-2.36937e-05
5.01263e-05
-2.42476e-05
5.29546e-05
-2.4619e-05
5.58053e-05
-2.48205e-05
5.86591e-05
-2.48662e-05
6.14987e-05
-2.4771e-05
6.43089e-05
-2.45501e-05
6.70762e-05
-2.4219e-05
6.97892e-05
-2.37926e-05
7.24383e-05
-2.32855e-05
7.50154e-05
-2.27113e-05
7.75144e-05
-2.20828e-05
7.99303e-05
-2.14117e-05
8.22595e-05
-2.07085e-05
8.44996e-05
-1.99826e-05
8.6649e-05
-1.92426e-05
8.87073e-05
-1.84956e-05
9.06745e-05
-1.77479e-05
9.25514e-05
-1.7005e-05
9.43392e-05
-1.62713e-05
9.60397e-05
-1.55506e-05
9.76547e-05
-1.48459e-05
9.91866e-05
-1.41596e-05
0.000100638
-1.34935e-05
0.000102011
-1.2849e-05
0.000103308
-1.2227e-05
0.000104533
-1.16279e-05
0.000105688
-1.1052e-05
0.000106775
-1.04991e-05
0.000107797
-9.96886e-06
0.000108757
-9.46073e-06
0.000109658
-8.97394e-06
0.000110501
-8.50757e-06
0.000111289
-8.0606e-06
0.000112024
-7.63187e-06
0.000112709
-7.22015e-06
0.000113345
-6.82416e-06
0.000113934
-6.44253e-06
0.000114478
-6.07388e-06
0.000114979
-5.71681e-06
0.000115439
-5.3699e-06
0.000115858
-5.03174e-06
0.00011624
-4.70095e-06
0.000116584
-4.37615e-06
0.000116894
-4.05603e-06
0.00011717
-3.73935e-06
0.000117414
-3.42491e-06
0.000117628
-3.11163e-06
0.000117815
-2.79853e-06
0.000117975
-2.48476e-06
0.000118111
-2.16961e-06
0.000118226
-1.85253e-06
0.000118321
-1.53319e-06
0.000118401
-1.21142e-06
0.000118468
-8.87299e-07
0.000118524
-5.61151e-07
0.000118574
-2.33537e-07
0.000118622
9.47427e-08
0.000118669
4.22603e-07
0.00011872
7.48709e-07
0.000118779
1.0715e-06
0.000118847
1.38925e-06
0.000118929
1.70009e-06
0.000119024
2.00206e-06
0.000119136
2.29322e-06
0.000119265
2.57171e-06
0.000119409
2.83581e-06
0.000119568
3.08409e-06
0.00011974
3.31547e-06
3.52966e-06
0.000119921
2.83767e-05
-3.50661e-06
2.91065e-05
-7.05893e-06
3.0182e-05
-1.02255e-05
3.15753e-05
-1.3085e-05
3.32594e-05
-1.56668e-05
3.52075e-05
-1.79826e-05
3.73918e-05
-2.00403e-05
3.97846e-05
-2.18454e-05
4.23577e-05
-2.34021e-05
4.50832e-05
-2.47148e-05
4.79331e-05
-2.57893e-05
5.08802e-05
-2.66338e-05
5.38982e-05
-2.72583e-05
5.69623e-05
-2.76755e-05
6.00492e-05
-2.78997e-05
6.31378e-05
-2.79469e-05
6.62089e-05
-2.78341e-05
6.92457e-05
-2.75787e-05
7.22333e-05
-2.71985e-05
7.51594e-05
-2.67106e-05
7.80135e-05
-2.61315e-05
8.0787e-05
-2.54768e-05
8.34731e-05
-2.47611e-05
8.60668e-05
-2.39976e-05
8.85642e-05
-2.31983e-05
9.09629e-05
-2.2374e-05
9.32614e-05
-2.15339e-05
9.54593e-05
-2.06865e-05
9.75569e-05
-1.98388e-05
9.95551e-05
-1.89968e-05
0.000101455
-1.81655e-05
0.00010326
-1.73492e-05
0.000104971
-1.65512e-05
0.000106591
-1.57741e-05
0.000108122
-1.502e-05
0.000109568
-1.42904e-05
0.000110932
-1.35862e-05
0.000112216
-1.2908e-05
0.000113424
-1.22559e-05
0.000114558
-1.16298e-05
0.000115622
-1.10293e-05
0.000116618
-1.04537e-05
0.000117549
-9.90225e-06
0.000118418
-9.3739e-06
0.000119227
-8.86752e-06
0.000119979
-8.38186e-06
0.000120676
-7.91558e-06
0.00012132
-7.4673e-06
0.000121914
-7.03558e-06
0.00012246
-6.61896e-06
0.00012296
-6.21595e-06
0.000123416
-5.82509e-06
0.000123829
-5.44493e-06
0.000124202
-5.07406e-06
0.000124537
-4.71111e-06
0.000124836
-4.3548e-06
0.0001251
-4.0039e-06
0.000125332
-3.6573e-06
0.000125534
-3.31399e-06
0.000125707
-2.97309e-06
0.000125856
-2.63388e-06
0.000125981
-2.29576e-06
0.000126086
-1.95835e-06
0.000126173
-1.62143e-06
0.000126245
-1.28498e-06
0.000126306
-9.49178e-07
0.000126358
-6.14433e-07
0.000126404
-2.81347e-07
0.000126448
4.93079e-08
0.000126493
3.76563e-07
0.000126541
6.99255e-07
0.000126595
1.0161e-06
0.000126658
1.32571e-06
0.00012673
1.62668e-06
0.000126813
1.91757e-06
0.000126908
2.19702e-06
0.000127015
2.46378e-06
0.000127133
2.71677e-06
0.00012726
2.95514e-06
0.000127396
3.17831e-06
3.38638e-06
0.000127539
3.0362e-05
-3.88549e-06
3.1148e-05
-7.84363e-06
3.23081e-05
-1.13835e-05
3.38129e-05
-1.45869e-05
3.56346e-05
-1.74848e-05
3.77444e-05
-2.00879e-05
4.01128e-05
-2.24035e-05
4.27097e-05
-2.44365e-05
4.55044e-05
-2.61905e-05
4.84661e-05
-2.76695e-05
5.15638e-05
-2.88797e-05
5.47672e-05
-2.98294e-05
5.80469e-05
-3.05299e-05
6.13753e-05
-3.09954e-05
6.47263e-05
-3.12421e-05
6.80765e-05
-3.12882e-05
7.14045e-05
-3.11532e-05
7.46918e-05
-3.0857e-05
7.79221e-05
-3.04199e-05
8.1082e-05
-2.98614e-05
8.41599e-05
-2.92005e-05
8.71469e-05
-2.84549e-05
9.00356e-05
-2.76412e-05
9.28208e-05
-2.67742e-05
9.54986e-05
-2.58677e-05
9.80665e-05
-2.49337e-05
0.000100523
-2.39828e-05
0.000102869
-2.30242e-05
0.000105103
-2.20659e-05
0.000107228
-2.11146e-05
0.000109245
-2.0176e-05
0.000111157
-1.92546e-05
0.000112966
-1.83541e-05
0.000114676
-1.74776e-05
0.000116288
-1.66271e-05
0.000117807
-1.58044e-05
0.000119237
-1.50104e-05
0.000120579
-1.42457e-05
0.000121838
-1.35106e-05
0.000123017
-1.28048e-05
0.000124119
-1.21278e-05
0.000125148
-1.1479e-05
0.000126106
-1.08573e-05
0.000126996
-1.02618e-05
0.000127822
-9.69117e-06
0.000128587
-9.14403e-06
0.000129292
-8.61897e-06
0.000129941
-8.11452e-06
0.000130535
-7.62913e-06
0.000131079
-7.16129e-06
0.000131573
-6.70944e-06
0.000132021
-6.27207e-06
0.000132424
-5.8477e-06
0.000132785
-5.4349e-06
0.000133106
-5.0323e-06
0.000133389
-4.63865e-06
0.000133638