/*--------------------------------*- C++ -*----------------------------------*\
  =========                 |
  \\      /  F ield         | OpenFOAM: The Open Source CFD Toolbox
   \\    /   O peration     | Website:  https://openfoam.org
    \\  /    A nd           | Version:  7
     \\/     M anipulation  |
\*---------------------------------------------------------------------------*/
FoamFile
{
    version     2.0;
    format      ascii;
    class       volVectorField;
    location    "9.4";
    object      U;
}
// * * * * * * * * * * * * * * * * * * * * * * * * * * * * * * * * * * * * * //

dimensions      [0 1 -1 0 0 0 0];

internalField   nonuniform List<vector> 
12013
(
(0.100972 -0.000259544 0)
(0.104733 -0.00044787 0)
(0.110401 -0.000609911 0)
(0.117431 -0.000752653 0)
(0.125665 -0.000882882 0)
(0.134961 -0.00100589 0)
(0.145225 -0.00112609 0)
(0.156407 -0.00124701 0)
(0.168486 -0.00137105 0)
(0.181458 -0.00149926 0)
(0.195319 -0.00163119 0)
(0.210054 -0.00176505 0)
(0.225628 -0.00189793 0)
(0.24198 -0.00202627 0)
(0.25902 -0.00214631 0)
(0.276635 -0.00225454 0)
(0.29469 -0.002348 0)
(0.31304 -0.00242453 0)
(0.331533 -0.00248279 0)
(0.350022 -0.00252226 0)
(0.368364 -0.00254314 0)
(0.38643 -0.0025462 0)
(0.404105 -0.00253262 0)
(0.421291 -0.00250386 0)
(0.437905 -0.00246154 0)
(0.453881 -0.00240734 0)
(0.469168 -0.0023429 0)
(0.483729 -0.00226979 0)
(0.497537 -0.00218949 0)
(0.510578 -0.00210332 0)
(0.522847 -0.00201249 0)
(0.534346 -0.00191806 0)
(0.545083 -0.00182097 0)
(0.555072 -0.00172202 0)
(0.564331 -0.0016219 0)
(0.57288 -0.00152123 0)
(0.580744 -0.0014205 0)
(0.587949 -0.00132013 0)
(0.594521 -0.00122049 0)
(0.600489 -0.00112187 0)
(0.605881 -0.00102452 0)
(0.610728 -0.000928629 0)
(0.615057 -0.000834357 0)
(0.618899 -0.000741824 0)
(0.622282 -0.000651112 0)
(0.625236 -0.000562273 0)
(0.627789 -0.000475329 0)
(0.629968 -0.000390271 0)
(0.631802 -0.000307054 0)
(0.633316 -0.000225593 0)
(0.634537 -0.000145763 0)
(0.63549 -6.73876e-05 0)
(0.6362 9.72882e-06 0)
(0.63669 8.57682e-05 0)
(0.636984 0.000160913 0)
(0.637104 0.000235444 0)
(0.637072 0.000309739 0)
(0.636908 0.000384263 0)
(0.636634 0.000459578 0)
(0.636267 0.000536367 0)
(0.635824 0.000615459 0)
(0.63532 0.000697867 0)
(0.63477 0.000784831 0)
(0.634183 0.000877882 0)
(0.633568 0.000978931 0)
(0.632929 0.00109038 0)
(0.632267 0.00121532 0)
(0.631575 0.00135773 0)
(0.630841 0.00152293 0)
(0.630039 0.00171809 0)
(0.629133 0.00195323 0)
(0.628062 0.0022428 0)
(0.626739 0.00260838 0)
(0.625026 0.00308365 0)
(0.622712 0.00372378 0)
(0.619461 0.00462416 0)
(0.614715 0.00595979 0)
(0.607486 0.00807845 0)
(0.595995 0.0118017 0)
(0.577099 0.0200683 0)
(0.558297 0.0534618 0)
(0.100882 -0.000790343 0)
(0.104621 -0.00137045 0)
(0.110255 -0.00186666 0)
(0.117257 -0.00230301 0)
(0.125465 -0.00270087 0)
(0.134738 -0.00307638 0)
(0.14498 -0.00344304 0)
(0.156143 -0.00381175 0)
(0.168206 -0.00418982 0)
(0.181166 -0.00458044 0)
(0.19502 -0.00498228 0)
(0.209756 -0.00538982 0)
(0.225338 -0.00579423 0)
(0.241707 -0.00618465 0)
(0.258773 -0.00654969 0)
(0.276422 -0.00687867 0)
(0.294518 -0.00716268 0)
(0.312915 -0.00739516 0)
(0.331461 -0.00757211 0)
(0.350004 -0.00769202 0)
(0.368402 -0.0077555 0)
(0.386524 -0.0077649 0)
(0.404254 -0.00772383 0)
(0.421493 -0.00763672 0)
(0.438158 -0.00750847 0)
(0.454181 -0.00734412 0)
(0.469512 -0.00714865 0)
(0.484113 -0.00692681 0)
(0.497958 -0.00668302 0)
(0.511033 -0.00642132 0)
(0.523332 -0.00614534 0)
(0.534857 -0.00585828 0)
(0.545617 -0.00556297 0)
(0.555626 -0.00526186 0)
(0.564902 -0.00495706 0)
(0.573467 -0.00465038 0)
(0.581343 -0.00434335 0)
(0.588557 -0.00403729 0)
(0.595137 -0.00373326 0)
(0.60111 -0.00343219 0)
(0.606506 -0.00313481 0)
(0.611354 -0.00284173 0)
(0.615684 -0.00255344 0)
(0.619523 -0.0022703 0)
(0.622903 -0.00199257 0)
(0.625851 -0.00172042 0)
(0.628397 -0.00145392 0)
(0.630567 -0.00119304 0)
(0.632389 -0.000937647 0)
(0.633891 -0.000687494 0)
(0.635097 -0.000442197 0)
(0.636034 -0.00020122 0)
(0.636724 3.60206e-05 0)
(0.637194 0.000270024 0)
(0.637464 0.000501318 0)
(0.637559 0.000730749 0)
(0.637499 0.000959471 0)
(0.637305 0.0011889 0)
(0.636998 0.00142077 0)
(0.636594 0.00165715 0)
(0.636112 0.00190057 0)
(0.635565 0.00215409 0)
(0.634969 0.00242147 0)
(0.634333 0.00270732 0)
(0.633667 0.00301739 0)
(0.632975 0.00335887 0)
(0.632258 0.00374092 0)
(0.631513 0.00417539 0)
(0.630727 0.00467784 0)
(0.629881 0.0052692 0)
(0.628944 0.00597834 0)
(0.627868 0.00684622 0)
(0.626581 0.00793287 0)
(0.624981 0.00932955 0)
(0.62292 0.0111806 0)
(0.620185 0.0137241 0)
(0.616472 0.0173692 0)
(0.611353 0.022851 0)
(0.604281 0.0315668 0)
(0.595155 0.0462532 0)
(0.592011 0.0721161 0)
(0.100778 -0.0013375 0)
(0.104456 -0.0023464 0)
(0.110019 -0.00320178 0)
(0.116959 -0.0039535 0)
(0.125113 -0.00463878 0)
(0.134337 -0.00528542 0)
(0.144535 -0.00591688 0)
(0.155659 -0.00655205 0)
(0.167691 -0.00720375 0)
(0.180629 -0.00787755 0)
(0.194473 -0.00857126 0)
(0.209214 -0.00927537 0)
(0.224818 -0.00997457 0)
(0.241227 -0.01065 0)
(0.258351 -0.0112819 0)
(0.276075 -0.0118516 0)
(0.29426 -0.0123436 0)
(0.312759 -0.0127465 0)
(0.331414 -0.0130532 0)
(0.350071 -0.0132613 0)
(0.368586 -0.0133717 0)
(0.386824 -0.0133884 0)
(0.404668 -0.0133179 0)
(0.422016 -0.0131677 0)
(0.438783 -0.0129464 0)
(0.454903 -0.0126628 0)
(0.470323 -0.0123253 0)
(0.485006 -0.0119423 0)
(0.498925 -0.0115215 0)
(0.512066 -0.0110697 0)
(0.524425 -0.0105933 0)
(0.536003 -0.0100978 0)
(0.54681 -0.00958811 0)
(0.556859 -0.00906842 0)
(0.566169 -0.00854238 0)
(0.574763 -0.00801312 0)
(0.582663 -0.00748327 0)
(0.589897 -0.00695507 0)
(0.596492 -0.0064304 0)
(0.602477 -0.0059108 0)
(0.60788 -0.00539756 0)
(0.612732 -0.00489171 0)
(0.617061 -0.00439407 0)
(0.620898 -0.00390525 0)
(0.624271 -0.00342571 0)
(0.62721 -0.00295572 0)
(0.629742 -0.00249538 0)
(0.631896 -0.00204464 0)
(0.6337 -0.00160325 0)
(0.635179 -0.00117077 0)
(0.63636 -0.000746543 0)
(0.637267 -0.000329632 0)
(0.637926 8.09305e-05 0)
(0.63836 0.00048601 0)
(0.638591 0.000886599 0)
(0.638643 0.0012842 0)
(0.638536 0.00168082 0)
(0.638292 0.00207887 0)
(0.637929 0.00248132 0)
(0.637466 0.00289168 0)
(0.63692 0.00331424 0)
(0.636305 0.00375417 0)
(0.635636 0.00421777 0)
(0.634924 0.00471274 0)
(0.634178 0.0052486 0)
(0.633405 0.00583722 0)
(0.632607 0.00649353 0)
(0.631784 0.00723664 0)
(0.630928 0.00809136 0)
(0.630028 0.00909048 0)
(0.629063 0.0102783 0)
(0.628004 0.0117158 0)
(0.62681 0.0134894 0)
(0.625429 0.0157241 0)
(0.623799 0.0186059 0)
(0.62186 0.0224168 0)
(0.619585 0.027593 0)
(0.617056 0.0348142 0)
(0.614651 0.0451477 0)
(0.613493 0.0601884 0)
(0.617501 0.0813859 0)
(0.100667 -0.00189324 0)
(0.104262 -0.00336989 0)
(0.10972 -0.00461136 0)
(0.116568 -0.00570287 0)
(0.124639 -0.00669756 0)
(0.133788 -0.00763597 0)
(0.143919 -0.00855255 0)
(0.154986 -0.00947512 0)
(0.166973 -0.0104226 0)
(0.179881 -0.0114035 0)
(0.193717 -0.0124147 0)
(0.208475 -0.0134424 0)
(0.224124 -0.0144641 0)
(0.240608 -0.0154521 0)
(0.257837 -0.0163769 0)
(0.275692 -0.0172111 0)
(0.294032 -0.0179318 0)
(0.312701 -0.018522 0)
(0.331539 -0.0189714 0)
(0.350386 -0.0192761 0)
(0.369091 -0.0194377 0)
(0.387516 -0.0194624 0)
(0.40554 -0.0193594 0)
(0.423059 -0.01914 0)
(0.439988 -0.0188168 0)
(0.456256 -0.0184027 0)
(0.471813 -0.0179103 0)
(0.486619 -0.0173516 0)
(0.50065 -0.0167379 0)
(0.513891 -0.0160794 0)
(0.526338 -0.0153852 0)
(0.537993 -0.0146634 0)
(0.548867 -0.0139212 0)
(0.558975 -0.0131645 0)
(0.568335 -0.0123988 0)
(0.576969 -0.0116286 0)
(0.584904 -0.0108576 0)
(0.592165 -0.0100892 0)
(0.598781 -0.00932594 0)
(0.60478 -0.00857014 0)
(0.610193 -0.0078236 0)
(0.615048 -0.0070878 0)
(0.619377 -0.00636392 0)
(0.623208 -0.00565281 0)
(0.626571 -0.0049551 0)
(0.629495 -0.00427117 0)
(0.632009 -0.00360113 0)
(0.634141 -0.00294488 0)
(0.635917 -0.00230204 0)
(0.637365 -0.00167197 0)
(0.638511 -0.00105368 0)
(0.639379 -0.000445818 0)
(0.639994 0.000152955 0)
(0.64038 0.00074391 0)
(0.64056 0.00132862 0)
(0.640556 0.00190932 0)
(0.640389 0.00248891 0)
(0.64008 0.00307087 0)
(0.639648 0.00365938 0)
(0.639111 0.00425945 0)
(0.638485 0.0048771 0)
(0.637788 0.00551956 0)
(0.637032 0.00619555 0)
(0.636231 0.00691569 0)
(0.635394 0.00769294 0)
(0.63453 0.00854326 0)
(0.633646 0.00948654 0)
(0.632745 0.0105478 0)
(0.631827 0.0117587 0)
(0.630889 0.0131604 0)
(0.629927 0.0148065 0)
(0.628934 0.0167682 0)
(0.627902 0.0191411 0)
(0.626831 0.0220552 0)
(0.625739 0.025688 0)
(0.62468 0.0302818 0)
(0.623789 0.036161 0)
(0.623352 0.043742 0)
(0.623914 0.0535075 0)
(0.626422 0.0658634 0)
(0.632509 0.0805685 0)
(0.100553 -0.00245577 0)
(0.104055 -0.0044362 0)
(0.109383 -0.00609182 0)
(0.116111 -0.00754916 0)
(0.124074 -0.00887706 0)
(0.133125 -0.0101297 0)
(0.14317 -0.0113538 0)
(0.154164 -0.0125872 0)
(0.166095 -0.0138559 0)
(0.178974 -0.0151717 0)
(0.192812 -0.0165308 0)
(0.207611 -0.0179146 0)
(0.223345 -0.0192925 0)
(0.239958 -0.0206264 0)
(0.257359 -0.0218761 0)
(0.275424 -0.0230038 0)
(0.294004 -0.0239778 0)
(0.312936 -0.0247752 0)
(0.33205 -0.0253817 0)
(0.351176 -0.0257924 0)
(0.370158 -0.0260096 0)
(0.388852 -0.0260417 0)
(0.407131 -0.0259016 0)
(0.42489 -0.0256048 0)
(0.442039 -0.0251685 0)
(0.45851 -0.0246102 0)
(0.474249 -0.023947 0)
(0.48922 -0.0231954 0)
(0.503396 -0.0223703 0)
(0.516766 -0.0214856 0)
(0.529325 -0.0205536 0)
(0.541078 -0.0195851 0)
(0.552035 -0.0185895 0)
(0.562214 -0.0175751 0)
(0.571633 -0.016549 0)
(0.580316 -0.015517 0)
(0.588289 -0.0144845 0)
(0.59558 -0.0134555 0)
(0.602218 -0.0124336 0)
(0.608232 -0.0114219 0)
(0.613652 -0.0104226 0)
(0.618508 -0.00943774 0)
(0.622831 -0.0084688 0)
(0.626652 -0.0075169 0)
(0.629999 -0.00658282 0)
(0.632902 -0.00566701 0)
(0.635389 -0.00476961 0)
(0.637489 -0.00389043 0)
(0.63923 -0.00302895 0)
(0.640637 -0.00218426 0)
(0.641737 -0.00135507 0)
(0.642556 -0.000539603 0)
(0.643117 0.000263888 0)
(0.643444 0.0010571 0)
(0.643562 0.00184227 0)
(0.64349 0.00262246 0)
(0.643252 0.00340147 0)
(0.642866 0.00418387 0)
(0.642354 0.00497505 0)
(0.641732 0.00578146 0)
(0.641018 0.00661072 0)
(0.640229 0.00747197 0)
(0.639379 0.00837609 0)
(0.638483 0.00933616 0)
(0.637552 0.010368 0)
(0.636599 0.0114907 0)
(0.635634 0.0127276 0)
(0.634665 0.0141076 0)
(0.633701 0.0156663 0)
(0.63275 0.0174481 0)
(0.631824 0.0195089 0)
(0.630936 0.0219192 0)
(0.630109 0.024768 0)
(0.629382 0.0281668 0)
(0.628821 0.0322538 0)
(0.628537 0.0371939 0)
(0.628712 0.0431717 0)
(0.62963 0.0503663 0)
(0.631711 0.0588912 0)
(0.635515 0.06867 0)
(0.641702 0.0792108 0)
(0.100436 -0.00302452 0)
(0.103846 -0.00554177 0)
(0.10903 -0.00764039 0)
(0.115618 -0.00949089 0)
(0.123452 -0.0111777 0)
(0.132387 -0.0127693 0)
(0.142328 -0.014326 0)
(0.153238 -0.015897 0)
(0.165113 -0.0175167 0)
(0.177971 -0.0192012 0)
(0.191837 -0.0209459 0)
(0.206719 -0.0227266 0)
(0.222599 -0.0245031 0)
(0.239422 -0.0262252 0)
(0.257091 -0.0278395 0)
(0.275472 -0.0292961 0)
(0.294407 -0.0305533 0)
(0.313716 -0.0315809 0)
(0.333217 -0.0323609 0)
(0.35273 -0.0328868 0)
(0.372087 -0.0331624 0)
(0.391138 -0.0331992 0)
(0.409752 -0.0330143 0)
(0.427818 -0.0326283 0)
(0.445247 -0.0320638 0)
(0.461969 -0.0313435 0)
(0.477932 -0.0304897 0)
(0.4931 -0.0295237 0)
(0.507449 -0.0284647 0)
(0.520968 -0.0273306 0)
(0.533656 -0.0261369 0)
(0.545518 -0.0248976 0)
(0.556567 -0.0236246 0)
(0.56682 -0.0223285 0)
(0.576301 -0.021018 0)
(0.585033 -0.0197009 0)
(0.593043 -0.0183834 0)
(0.60036 -0.0170709 0)
(0.607015 -0.0157679 0)
(0.613036 -0.0144781 0)
(0.618457 -0.0132044 0)
(0.623306 -0.0119492 0)
(0.627616 -0.0107142 0)
(0.631417 -0.00950097 0)
(0.634738 -0.00831031 0)
(0.63761 -0.00714276 0)
(0.64006 -0.00599844 0)
(0.642119 -0.00487705 0)
(0.643812 -0.00377792 0)
(0.645168 -0.00269988 0)
(0.646212 -0.0016413 0)
(0.646969 -0.000599967 0)
(0.647465 0.000426254 0)
(0.647723 0.00143952 0)
(0.647767 0.00244284 0)
(0.647618 0.00344013 0)
(0.647298 0.00443613 0)
(0.646827 0.00543642 0)
(0.646225 0.00644754 0)
(0.64551 0.0074772 0)
(0.644701 0.00853449 0)
(0.643815 0.00963009 0)
(0.642868 0.0107766 0)
(0.641876 0.011989 0)
(0.640853 0.0132848 0)
(0.639815 0.0146853 0)
(0.638776 0.0162154 0)
(0.637752 0.0179052 0)
(0.636758 0.0197906 0)
(0.635814 0.0219147 0)
(0.634943 0.024329 0)
(0.634176 0.0270946 0)
(0.633555 0.030283 0)
(0.633141 0.0339759 0)
(0.633017 0.0382622 0)
(0.633305 0.0432313 0)
(0.634166 0.0489583 0)
(0.635816 0.0554784 0)
(0.638515 0.062745 0)
(0.642544 0.070572 0)
(0.648132 0.0785688 0)
(0.100318 -0.00359995 0)
(0.103644 -0.00668455 0)
(0.108678 -0.0092555 0)
(0.115113 -0.0115275 0)
(0.122804 -0.0136008 0)
(0.131608 -0.0155585 0)
(0.141437 -0.0174761 0)
(0.15226 -0.0194163 0)
(0.164085 -0.0214233 0)
(0.176948 -0.0235185 0)
(0.190886 -0.0256965 0)
(0.205921 -0.0279263 0)
(0.22204 -0.0301558 0)
(0.239186 -0.0323194 0)
(0.257251 -0.0343478 0)
(0.276089 -0.0361762 0)
(0.295518 -0.0377512 0)
(0.315342 -0.0390344 0)
(0.335359 -0.0400037 0)
(0.355374 -0.0406521 0)
(0.37521 -0.0409854 0)
(0.394706 -0.0410195 0)
(0.413728 -0.0407769 0)
(0.432163 -0.0402844 0)
(0.449921 -0.0395707 0)
(0.466933 -0.0386649 0)
(0.483149 -0.0375952 0)
(0.498535 -0.036388 0)
(0.513071 -0.0350677 0)
(0.526748 -0.0336561 0)
(0.539568 -0.0321727 0)
(0.551539 -0.0306345 0)
(0.562677 -0.0290563 0)
(0.573001 -0.0274508 0)
(0.582535 -0.0258289 0)
(0.591307 -0.0241998 0)
(0.599344 -0.0225713 0)
(0.606677 -0.0209498 0)
(0.613336 -0.0193406 0)
(0.619355 -0.0177481 0)
(0.624763 -0.0161759 0)
(0.629594 -0.0146268 0)
(0.633877 -0.0131028 0)
(0.637646 -0.0116056 0)
(0.640929 -0.0101362 0)
(0.643756 -0.00869512 0)
(0.646158 -0.00728246 0)
(0.648163 -0.00589783 0)
(0.649798 -0.00454032 0)
(0.65109 -0.00320853 0)
(0.652066 -0.00190048 0)
(0.652751 -0.000613578 0)
(0.653171 0.000654731 0)
(0.65335 0.00190713 0)
(0.65331 0.00314745 0)
(0.653074 0.00438048 0)
(0.652663 0.00561185 0)
(0.652099 0.00684804 0)
(0.651401 0.00809661 0)
(0.650588 0.00936632 0)
(0.64968 0.0106674 0)
(0.648694 0.0120116 0)
(0.647648 0.0134126 0)
(0.646561 0.0148865 0)
(0.64545 0.0164516 0)
(0.644333 0.0181296 0)
(0.643229 0.0199452 0)
(0.642158 0.0219272 0)
(0.641144 0.0241086 0)
(0.640214 0.0265272 0)
(0.639399 0.0292255 0)
(0.638741 0.0322502 0)
(0.638289 0.0356512 0)
(0.638109 0.0394787 0)
(0.638283 0.0437782 0)
(0.638913 0.0485827 0)
(0.640119 0.0539 0)
(0.642041 0.0596966 0)
(0.644815 0.0658772 0)
(0.64856 0.0722654 0)
(0.653317 0.0785973 0)
(0.100196 -0.00418369 0)
(0.103454 -0.00786407 0)
(0.10834 -0.010937 0)
(0.114616 -0.0136596 0)
(0.122155 -0.0161487 0)
(0.130823 -0.0185025 0)
(0.140537 -0.0208137 0)
(0.151279 -0.0231608 0)
(0.163079 -0.0256004 0)
(0.175991 -0.0281599 0)
(0.190075 -0.0308331 0)
(0.205365 -0.0335797 0)
(0.221854 -0.0363318 0)
(0.239476 -0.039004 0)
(0.258104 -0.0415066 0)
(0.277566 -0.0437567 0)
(0.297653 -0.0456871 0)
(0.318143 -0.0472508 0)
(0.33881 -0.0484223 0)
(0.359444 -0.049195 0)
(0.379853 -0.0495788 0)
(0.399872 -0.0495953 0)
(0.419361 -0.0492741 0)
(0.438208 -0.0486497 0)
(0.456325 -0.0477584 0)
(0.473646 -0.0466365 0)
(0.490125 -0.0453188 0)
(0.505732 -0.0438376 0)
(0.520452 -0.0422228 0)
(0.534279 -0.0405006 0)
(0.54722 -0.0386945 0)
(0.559287 -0.036825 0)
(0.570497 -0.0349097 0)
(0.580875 -0.0329638 0)
(0.590445 -0.0310001 0)
(0.599238 -0.0290295 0)
(0.607284 -0.027061 0)
(0.614615 -0.0251022 0)
(0.621262 -0.0231594 0)
(0.62726 -0.0212375 0)
(0.63264 -0.0193407 0)
(0.637435 -0.017472 0)
(0.641677 -0.0156341 0)
(0.645398 -0.0138284 0)
(0.648629 -0.0120563 0)
(0.651399 -0.0103182 0)
(0.65374 -0.00861417 0)
(0.655678 -0.00694361 0)
(0.657242 -0.00530544 0)
(0.65846 -0.00369801 0)
(0.659358 -0.00211904 0)
(0.659961 -0.000565616 0)
(0.660297 0.000965288 0)
(0.660387 0.00247697 0)
(0.660257 0.0039741 0)
(0.659927 0.00546229 0)
(0.659421 0.00694793 0)
(0.658758 0.00843829 0)
(0.65796 0.00994169 0)
(0.657046 0.0114676 0)
(0.656037 0.0130271 0)
(0.654952 0.0146323 0)
(0.65381 0.0162976 0)
(0.652631 0.0180388 0)
(0.651435 0.0198743 0)
(0.650244 0.0218244 0)
(0.649081 0.023912 0)
(0.647969 0.0261626 0)
(0.646936 0.028604 0)
(0.646014 0.0312661 0)
(0.645238 0.0341801 0)
(0.644653 0.0373775 0)
(0.644308 0.0408874 0)
(0.644262 0.0447338 0)
(0.644582 0.048931 0)
(0.645345 0.0534768 0)
(0.646628 0.0583462 0)
(0.648509 0.0634826 0)
(0.651047 0.0687909 0)
(0.654276 0.0741355 0)
(0.658166 0.0793501 0)
(0.10007 -0.00477829 0)
(0.103276 -0.00908142 0)
(0.108025 -0.0126865 0)
(0.11414 -0.0158898 0)
(0.121528 -0.0188258 0)
(0.130059 -0.0216092 0)
(0.139665 -0.0243522 0)
(0.150349 -0.0271528 0)
(0.162165 -0.0300828 0)
(0.175201 -0.0331773 0)
(0.18954 -0.036427 0)
(0.205233 -0.0397784 0)
(0.222267 -0.0431415 0)
(0.240558 -0.0464043 0)
(0.259949 -0.0494511 0)
(0.280227 -0.0521771 0)
(0.301147 -0.0544998 0)
(0.322453 -0.0563642 0)
(0.343895 -0.0577427 0)
(0.365244 -0.058632 0)
(0.3863 -0.0590482 0)
(0.406891 -0.0590213 0)
(0.426879 -0.0585903 0)
(0.446153 -0.0577988 0)
(0.464632 -0.0566923 0)
(0.482255 -0.0553152 0)
(0.498983 -0.0537098 0)
(0.51479 -0.0519152 0)
(0.529669 -0.0499666 0)
(0.54362 -0.0478954 0)
(0.556653 -0.0457292 0)
(0.568785 -0.0434919 0)
(0.580039 -0.0412041 0)
(0.590441 -0.0388834 0)
(0.600019 -0.0365445 0)
(0.608807 -0.0342 0)
(0.616835 -0.0318603 0)
(0.624139 -0.0295339 0)
(0.630751 -0.0272279 0)
(0.636706 -0.0249479 0)
(0.642037 -0.0226985 0)
(0.646778 -0.0204832 0)
(0.650961 -0.0183047 0)
(0.654619 -0.0161647 0)
(0.657783 -0.0140645 0)
(0.660484 -0.0120045 0)
(0.66275 -0.0099846 0)
(0.664611 -0.00800414 0)
(0.666096 -0.00606181 0)
(0.667231 -0.00415568 0)
(0.668044 -0.0022832 0)
(0.668558 -0.000441349 0)
(0.668804 0.00137348 0)
(0.668803 0.00316537 0)
(0.668578 0.00493979 0)
(0.668152 0.00670303 0)
(0.667548 0.00846207 0)
(0.666787 0.0102247 0)
(0.665889 0.0119999 0)
(0.664877 0.0137973 0)
(0.66377 0.0156283 0)
(0.662589 0.0175051 0)
(0.661355 0.0194416 0)
(0.660091 0.021453 0)
(0.658817 0.0235562 0)
(0.657557 0.0257694 0)
(0.656337 0.0281121 0)
(0.655184 0.0306051 0)
(0.654126 0.0332698 0)
(0.653196 0.0361275 0)
(0.652431 0.0391984 0)
(0.651871 0.0425 0)
(0.65156 0.046045 0)
(0.651546 0.049839 0)
(0.651878 0.0538769 0)
(0.652605 0.0581395 0)
(0.653774 0.0625903 0)
(0.655418 0.0671726 0)
(0.657556 0.0718089 0)
(0.66018 0.0764043 0)
(0.663243 0.0808571 0)
(0.0999369 -0.00538696 0)
(0.10311 -0.0103392 0)
(0.107736 -0.0145071 0)
(0.113697 -0.0182223 0)
(0.120937 -0.0216389 0)
(0.129341 -0.0248898 0)
(0.138858 -0.0281111 0)
(0.149522 -0.0314248 0)
(0.161428 -0.0349216 0)
(0.1747 -0.0386447 0)
(0.189451 -0.0425785 0)
(0.205742 -0.0466481 0)
(0.223545 -0.0507315 0)
(0.242737 -0.0546812 0)
(0.263112 -0.0583482 0)
(0.284404 -0.0616029 0)
(0.306323 -0.0643475 0)
(0.328574 -0.0665211 0)
(0.350885 -0.0680977 0)
(0.373012 -0.0690809 0)
(0.394747 -0.0694969 0)
(0.415921 -0.069387 0)
(0.436401 -0.0688019 0)
(0.456082 -0.0677968 0)
(0.474892 -0.0664272 0)
(0.492779 -0.0647471 0)
(0.509711 -0.0628068 0)
(0.525673 -0.0606525 0)
(0.540663 -0.0583254 0)
(0.55469 -0.0558618 0)
(0.567768 -0.0532938 0)
(0.579921 -0.0506486 0)
(0.591175 -0.0479497 0)
(0.601559 -0.0452171 0)
(0.611107 -0.0424675 0)
(0.619853 -0.0397148 0)
(0.627831 -0.0369708 0)
(0.635076 -0.0342449 0)
(0.641625 -0.0315448 0)
(0.647512 -0.0288768 0)
(0.652771 -0.0262459 0)
(0.657438 -0.0236557 0)
(0.661545 -0.021109 0)
(0.665124 -0.0186078 0)
(0.668207 -0.0161531 0)
(0.670825 -0.0137455 0)
(0.673008 -0.0113845 0)
(0.674785 -0.00906948 0)
(0.676183 -0.00679874 0)
(0.677231 -0.00457015 0)
(0.677955 -0.00238086 0)
(0.678379 -0.000228076 0)
(0.678536 0.00189235 0)
(0.678443 0.00398567 0)
(0.678126 0.00605807 0)
(0.677607 0.00811626 0)
(0.67691 0.0101676 0)
(0.676055 0.0122202 0)
(0.675065 0.0142831 0)
(0.673961 0.0163661 0)
(0.672764 0.0184802 0)
(0.671496 0.0206371 0)
(0.670181 0.0228496 0)
(0.668839 0.0251315 0)
(0.667495 0.0274975 0)
(0.666173 0.0299626 0)
(0.664899 0.0325426 0)
(0.663701 0.0352528 0)
(0.662608 0.0381082 0)
(0.661651 0.0411219 0)
(0.660863 0.0443047 0)
(0.660279 0.0476635 0)
(0.659933 0.0511997 0)
(0.659862 0.0549077 0)
(0.660098 0.0587729 0)
(0.66067 0.0627704 0)
(0.661599 0.066864 0)
(0.662898 0.0710061 0)
(0.664561 0.0751393 0)
(0.666566 0.0791999 0)
(0.668867 0.0831273 0)
(0.0997948 -0.00601338 0)
(0.102956 -0.0116412 0)
(0.107476 -0.0164038 0)
(0.113294 -0.0206637 0)
(0.120397 -0.0245979 0)
(0.128692 -0.0283612 0)
(0.138156 -0.0321191 0)
(0.148866 -0.0360246 0)
(0.160969 -0.0401912 0)
(0.17464 -0.0446688 0)
(0.190018 -0.0494272 0)
(0.207158 -0.0543571 0)
(0.225994 -0.0592902 0)
(0.24634 -0.0640315 0)
(0.267921 -0.0683928 0)
(0.290407 -0.0722183 0)
(0.313455 -0.075398 0)
(0.336737 -0.0778699 0)
(0.359961 -0.0796155 0)
(0.382874 -0.0806505 0)
(0.405273 -0.0810155 0)
(0.426994 -0.0807668 0)
(0.447914 -0.0799697 0)
(0.467941 -0.0786921 0)
(0.487014 -0.0770015 0)
(0.505093 -0.0749619 0)
(0.522158 -0.0726323 0)
(0.538204 -0.0700661 0)
(0.553236 -0.0673107 0)
(0.567271 -0.0644076 0)
(0.580332 -0.0613926 0)
(0.592445 -0.0582968 0)
(0.603642 -0.0551461 0)
(0.613958 -0.0519629 0)
(0.623427 -0.0487655 0)
(0.632087 -0.0455693 0)
(0.639975 -0.042387 0)
(0.647127 -0.0392289 0)
(0.65358 -0.0361034 0)
(0.65937 -0.0330171 0)
(0.664533 -0.0299752 0)
(0.669104 -0.0269815 0)
(0.673115 -0.024039 0)
(0.6766 -0.0211494 0)
(0.67959 -0.0183139 0)
(0.682116 -0.0155327 0)
(0.684208 -0.0128055 0)
(0.685895 -0.010131 0)
(0.687205 -0.00750768 0)
(0.688165 -0.00493303 0)
(0.688801 -0.00240403 0)
(0.689142 8.21665e-05 0)
(0.689212 0.00253013 0)
(0.689034 0.00494616 0)
(0.688632 0.00733696 0)
(0.688029 0.0097095 0)
(0.687248 0.0120713 0)
(0.686311 0.0144304 0)
(0.68524 0.0167958 0)
(0.684057 0.0191769 0)
(0.682785 0.0215839 0)
(0.681445 0.0240274 0)
(0.68006 0.0265189 0)
(0.678654 0.0290701 0)
(0.67725 0.0316928 0)
(0.675874 0.0343989 0)
(0.67455 0.0371998 0)
(0.673306 0.0401059 0)
(0.672168 0.0431263 0)
(0.671164 0.0462676 0)
(0.670322 0.0495335 0)
(0.66967 0.0529236 0)
(0.669235 0.0564327 0)
(0.66904 0.0600499 0)
(0.669106 0.0637576 0)
(0.669447 0.0675315 0)
(0.67007 0.071341 0)
(0.670973 0.0751495 0)
(0.672143 0.0789165 0)
(0.673554 0.0826007 0)
(0.675167 0.0861667 0)
(0.0996407 -0.0066616 0)
(0.102811 -0.0129929 0)
(0.107247 -0.0183832 0)
(0.112935 -0.0232237 0)
(0.11992 -0.0277175 0)
(0.128137 -0.0320481 0)
(0.137604 -0.0364194 0)
(0.148461 -0.0410237 0)
(0.160923 -0.0460007 0)
(0.175216 -0.0514005 0)
(0.191496 -0.0571629 0)
(0.209784 -0.0631232 0)
(0.229941 -0.0690482 0)
(0.251692 -0.0746834 0)
(0.274672 -0.0797981 0)
(0.298482 -0.0842136 0)
(0.322731 -0.0878147 0)
(0.347065 -0.0905471 0)
(0.371181 -0.092407 0)
(0.394832 -0.0934287 0)
(0.417822 -0.0936723 0)
(0.440002 -0.0932124 0)
(0.461266 -0.0921309 0)
(0.481538 -0.0905108 0)
(0.500773 -0.0884318 0)
(0.518944 -0.0859687 0)
(0.536044 -0.0831894 0)
(0.552079 -0.0801545 0)
(0.567065 -0.0769174 0)
(0.581026 -0.0735245 0)
(0.59399 -0.0700156 0)
(0.605992 -0.0664247 0)
(0.617066 -0.0627806 0)
(0.627252 -0.0591073 0)
(0.636587 -0.0554248 0)
(0.645111 -0.0517496 0)
(0.652863 -0.0480953 0)
(0.659881 -0.0444727 0)
(0.666203 -0.0408908 0)
(0.671866 -0.0373563 0)
(0.676906 -0.0338746 0)
(0.681358 -0.0304496 0)
(0.685255 -0.0270841 0)
(0.68863 -0.0237798 0)
(0.691515 -0.0205378 0)
(0.69394 -0.017358 0)
(0.695936 -0.0142398 0)
(0.69753 -0.011182 0)
(0.698751 -0.00818272 0)
(0.699625 -0.00523936 0)
(0.70018 -0.00234889 0)
(0.700442 0.000492238 0)
(0.700435 0.00328913 0)
(0.700183 0.0060484 0)
(0.699709 0.00877702 0)
(0.699036 0.0114821 0)
(0.698187 0.014171 0)
(0.697185 0.0168518 0)
(0.696051 0.0195327 0)
(0.694808 0.0222225 0)
(0.693478 0.0249304 0)
(0.692084 0.0276656 0)
(0.690649 0.0304376 0)
(0.689194 0.033256 0)
(0.687745 0.0361297 0)
(0.686324 0.0390673 0)
(0.684957 0.0420764 0)
(0.683666 0.045163 0)
(0.682476 0.0483316 0)
(0.681412 0.0515841 0)
(0.680494 0.0549194 0)
(0.679745 0.0583331 0)
(0.679183 0.0618169 0)
(0.678823 0.0653584 0)
(0.678677 0.0689409 0)
(0.67875 0.0725436 0)
(0.67904 0.0761426 0)
(0.67954 0.0797114 0)
(0.680234 0.0832227 0)
(0.681099 0.0866502 0)
(0.682102 0.0899739 0)
(0.0994717 -0.00733608 0)
(0.102674 -0.014401 0)
(0.10705 -0.0204546 0)
(0.112627 -0.0259153 0)
(0.119521 -0.031019 0)
(0.127708 -0.0359881 0)
(0.137268 -0.0410776 0)
(0.148422 -0.0465289 0)
(0.161467 -0.0525073 0)
(0.176677 -0.0590479 0)
(0.194191 -0.0660329 0)
(0.213953 -0.0732137 0)
(0.235713 -0.0802707 0)
(0.259078 -0.0868822 0)
(0.283588 -0.0927782 0)
(0.308777 -0.0977672 0)
(0.33422 -0.101741 0)
(0.35955 -0.104663 0)
(0.384469 -0.106554 0)
(0.408743 -0.107473 0)
(0.432197 -0.107505 0)
(0.454703 -0.106746 0)
(0.476175 -0.105295 0)
(0.496559 -0.103252 0)
(0.515824 -0.10071 0)
(0.533963 -0.0977533 0)
(0.55098 -0.0944594 0)
(0.566894 -0.0908957 0)
(0.581729 -0.0871213 0)
(0.595519 -0.083187 0)
(0.608298 -0.0791364 0)
(0.620106 -0.075006 0)
(0.630983 -0.0708269 0)
(0.640971 -0.0666246 0)
(0.650111 -0.0624205 0)
(0.658444 -0.0582319 0)
(0.666011 -0.0540729 0)
(0.672851 -0.0499549 0)
(0.679004 -0.045887 0)
(0.684506 -0.041876 0)
(0.689394 -0.0379273 0)
(0.693703 -0.0340446 0)
(0.697466 -0.0302307 0)
(0.700716 -0.0264871 0)
(0.703484 -0.0228144 0)
(0.705801 -0.0192126 0)
(0.707695 -0.0156807 0)
(0.709195 -0.0122174 0)
(0.710329 -0.00882041 0)
(0.711123 -0.00548729 0)
(0.711602 -0.00221489 0)
(0.711795 0.00100102 0)
(0.711723 0.0041661 0)
(0.71141 0.00728706 0)
(0.71088 0.0103709 0)
(0.710155 0.0134245 0)
(0.709258 0.0164552 0)
(0.708211 0.0194704 0)
(0.707035 0.0224777 0)
(0.705754 0.0254849 0)
(0.704389 0.0284998 0)
(0.702962 0.0315302 0)
(0.701496 0.0345836 0)
(0.700013 0.0376672 0)
(0.698534 0.0407874 0)
(0.697082 0.0439498 0)
(0.69568 0.0471588 0)
(0.694347 0.0504173 0)
(0.693105 0.0537263 0)
(0.691973 0.0570847 0)
(0.690969 0.0604888 0)
(0.690107 0.0639325 0)
(0.689401 0.0674069 0)
(0.68886 0.0709002 0)
(0.688487 0.0743984 0)
(0.688285 0.0778853 0)
(0.688248 0.081343 0)
(0.688365 0.0847534 0)
(0.688623 0.0880985 0)
(0.689001 0.0913621 0)
(0.689475 0.0945338 0)
(0.0992845 -0.00804173 0)
(0.102543 -0.015874 0)
(0.106885 -0.0226299 0)
(0.112378 -0.0287573 0)
(0.11922 -0.0345343 0)
(0.127451 -0.0402385 0)
(0.137235 -0.046193 0)
(0.148901 -0.0526973 0)
(0.162832 -0.0599323 0)
(0.179319 -0.0678869 0)
(0.198435 -0.076344 0)
(0.219992 -0.0849359 0)
(0.243587 -0.09324 0)
(0.268699 -0.100869 0)
(0.294777 -0.107527 0)
(0.321307 -0.113027 0)
(0.347848 -0.117282 0)
(0.374041 -0.120288 0)
(0.399606 -0.122098 0)
(0.424335 -0.122804 0)
(0.448079 -0.122516 0)
(0.470739 -0.121355 0)
(0.492251 -0.11944 0)
(0.512585 -0.116886 0)
(0.531729 -0.1138 0)
(0.549691 -0.110276 0)
(0.566491 -0.1064 0)
(0.582159 -0.102246 0)
(0.596729 -0.0978781 0)
(0.610241 -0.0933511 0)
(0.622738 -0.0887115 0)
(0.634264 -0.0839983 0)
(0.644863 -0.079244 0)
(0.65458 -0.0744757 0)
(0.663459 -0.0697155 0)
(0.671542 -0.0649812 0)
(0.678872 -0.0602873 0)
(0.685488 -0.0556453 0)
(0.691431 -0.0510643 0)
(0.696738 -0.046551 0)
(0.701444 -0.0421106 0)
(0.705585 -0.0377467 0)
(0.709194 -0.0334615 0)
(0.712303 -0.0292565 0)
(0.714942 -0.0251319 0)
(0.717142 -0.0210872 0)
(0.718931 -0.0171215 0)
(0.720337 -0.0132329 0)
(0.721386 -0.00941932 0)
(0.722105 -0.00567795 0)
(0.722518 -0.00200567 0)
(0.722652 0.0016023 0)
(0.722529 0.00515203 0)
(0.722171 0.00865025 0)
(0.721602 0.0121038 0)
(0.720844 0.0155193 0)
(0.719919 0.0189035 0)
(0.718849 0.0222632 0)
(0.717656 0.0256052 0)
(0.71636 0.0289361 0)
(0.714983 0.0322624 0)
(0.713547 0.0355902 0)
(0.712072 0.0389253 0)
(0.710579 0.0422727 0)
(0.709089 0.0456366 0)
(0.707621 0.0490204 0)
(0.706196 0.052426 0)
(0.70483 0.055854 0)
(0.703541 0.0593035 0)
(0.702344 0.0627716 0)
(0.701253 0.0662539 0)
(0.700279 0.0697439 0)
(0.699428 0.0732334 0)
(0.698708 0.0767127 0)
(0.698118 0.0801708 0)
(0.697657 0.0835956 0)
(0.697318 0.0869748 0)
(0.697093 0.0902964 0)
(0.696968 0.0935488 0)
(0.696927 0.0967225 0)
(0.696953 0.0998133 0)
(0.0990754 -0.0087842 0)
(0.102417 -0.0174226 0)
(0.106756 -0.0249254 0)
(0.112199 -0.0317764 0)
(0.119046 -0.0383117 0)
(0.127431 -0.044887 0)
(0.137632 -0.0519148 0)
(0.150105 -0.0597551 0)
(0.165302 -0.0685754 0)
(0.183478 -0.0782643 0)
(0.204562 -0.0884506 0)
(0.228177 -0.0986152 0)
(0.253747 -0.108229 0)
(0.280628 -0.116856 0)
(0.308203 -0.124197 0)
(0.335938 -0.130093 0)
(0.363399 -0.134496 0)
(0.390251 -0.137447 0)
(0.416248 -0.139039 0)
(0.441216 -0.139399 0)
(0.46504 -0.138669 0)
(0.48765 -0.136992 0)
(0.509011 -0.13451 0)
(0.529114 -0.131353 0)
(0.547968 -0.127638 0)
(0.565597 -0.123471 0)
(0.582036 -0.118945 0)
(0.597324 -0.114139 0)
(0.611505 -0.109122 0)
(0.624628 -0.103953 0)
(0.636741 -0.0986789 0)
(0.647891 -0.093342 0)
(0.658128 -0.0879755 0)
(0.667497 -0.0826071 0)
(0.676046 -0.0772595 0)
(0.683818 -0.0719506 0)
(0.690856 -0.066695 0)
(0.697201 -0.0615041 0)
(0.702892 -0.0563865 0)
(0.707967 -0.0513488 0)
(0.712461 -0.0463957 0)
(0.716409 -0.0415304 0)
(0.719842 -0.0367549 0)
(0.722794 -0.03207 0)
(0.725293 -0.0274757 0)
(0.727369 -0.0229712 0)
(0.729049 -0.0185551 0)
(0.730359 -0.0142253 0)
(0.731327 -0.00997959 0)
(0.731976 -0.00581502 0)
(0.732332 -0.00172845 0)
(0.732419 0.00228534 0)
(0.732257 0.00623269 0)
(0.731871 0.0101203 0)
(0.731281 0.0139545 0)
(0.730511 0.0177416 0)
(0.72958 0.0214879 0)
(0.728509 0.0251991 0)
(0.72732 0.0288813 0)
(0.726033 0.0325398 0)
(0.724668 0.0361799 0)
(0.723245 0.0398064 0)
(0.721783 0.0434231 0)
(0.720302 0.0470337 0)
(0.718819 0.0506405 0)
(0.717352 0.0542452 0)
(0.715918 0.0578482 0)
(0.714532 0.0614488 0)
(0.713208 0.065045 0)
(0.711957 0.0686335 0)
(0.710789 0.0722098 0)
(0.709713 0.0757682 0)
(0.708732 0.079302 0)
(0.707851 0.0828037 0)
(0.707067 0.0862652 0)
(0.706379 0.0896781 0)
(0.70578 0.0930344 0)
(0.705262 0.0963263 0)
(0.704816 0.099547 0)
(0.704427 0.102691 0)
(0.704085 0.105759 0)
(0.0988402 -0.00957022 0)
(0.102295 -0.0190607 0)
(0.106668 -0.0273637 0)
(0.112107 -0.0350126 0)
(0.119046 -0.042425 0)
(0.127744 -0.0500674 0)
(0.138634 -0.0584627 0)
(0.152298 -0.068016 0)
(0.169209 -0.0788209 0)
(0.189491 -0.0905865 0)
(0.21285 -0.102729 0)
(0.23868 -0.114563 0)
(0.266238 -0.125471 0)
(0.294787 -0.135 0)
(0.32368 -0.142881 0)
(0.352391 -0.149006 0)
(0.380519 -0.153384 0)
(0.407769 -0.15611 0)
(0.43394 -0.157324 0)