# vtk DataFile Version 3.0
vtk output
ASCII
DATASET UNSTRUCTURED_GRID
POINTS 394 float
-3.000000e+00	0.000000e+00	0.0	-5.000000e-02	1.239301e-17	0.0	5.058032e-02	1.006827e+00	0.0	1.506194e-01	9.933984e-01	0.0	5.000000e-02	-1.683918e-18	0.0	3.000000e+00	0.000000e+00	0.0	3.000000e+00	4.000000e+00	0.0	-3.000000e+00	4.000000e+00	0.0	-3.000000e+00	3.428571e+00	0.0	-3.000000e+00	2.857143e+00	0.0	-3.000000e+00	2.285714e+00	0.0	-3.000000e+00	1.714286e+00	0.0	-3.000000e+00	1.142857e+00	0.0	-3.000000e+00	5.714286e-01	0.0	-2.473871e+00	0.000000e+00	0.0	-2.029066e+00	0.000000e+00	0.0	-1.653013e+00	0.000000e+00	0.0	-1.335087e+00	0.000000e+00	0.0	-1.066302e+00	0.000000e+00	0.0	-8.390627e-01	0.000000e+00	0.0	-6.469477e-01	0.000000e+00	0.0	-4.845277e-01	0.000000e+00	0.0	-3.472127e-01	0.000000e+00	0.0	-2.311224e-01	0.000000e+00	0.0	-1.329760e-01	0.000000e+00	0.0	-4.860364e-02	7.833034e-02	0.0	-4.534659e-02	1.564737e-01	0.0	-4.036953e-02	2.343972e-01	0.0	-3.401914e-02	3.121203e-01	0.0	-2.659106e-02	3.896773e-01	0.0	-1.832561e-02	4.670976e-01	0.0	-9.422313e-03	5.444077e-01	0.0	-3.030786e-05	6.216315e-01	0.0	9.731303e-03	6.987809e-01	0.0	1.976070e-02	7.758641e-01	0.0	2.995097e-02	8.528999e-01	0.0	4.030131e-02	9.298831e-01	0.0	1.005986e-01	1.000149e+00	0.0	1.402416e-01	9.164773e-01	0.0	1.299423e-01	8.395772e-01	0.0	1.197369e-01	7.627322e-01	0.0	1.097097e-01	6.859376e-01	0.0	9.994586e-02	6.092060e-01	0.0	9.055394e-02	5.325475e-01	0.0	8.165201e-02	4.559776e-01	0.0	7.339036e-02	3.795261e-01	0.0	6.596691e-02	3.032235e-01	0.0	5.962072e-02	2.271005e-01	0.0	5.464887e-02	1.511871e-01	0.0	5.137074e-02	7.549192e-02	0.0	1.329760e-01	0.000000e+00	0.0	2.311224e-01	0.000000e+00	0.0	3.472127e-01	0.000000e+00	0.0	4.845277e-01	0.000000e+00	0.0	6.469477e-01	0.000000e+00	0.0	8.390627e-01	0.000000e+00	0.0	1.066302e+00	0.000000e+00	0.0	1.335087e+00	0.000000e+00	0.0	1.653013e+00	0.000000e+00	0.0	2.029066e+00	0.000000e+00	0.0	2.473871e+00	0.000000e+00	0.0	3.000000e+00	5.714286e-01	0.0	3.000000e+00	1.142857e+00	0.0	3.000000e+00	1.714286e+00	0.0	3.000000e+00	2.285714e+00	0.0	3.000000e+00	2.857143e+00	0.0	3.000000e+00	3.428571e+00	0.0	2.400000e+00	4.000000e+00	0.0	1.800000e+00	4.000000e+00	0.0	1.200000e+00	4.000000e+00	0.0	6.000000e-01	4.000000e+00	0.0	0.000000e+00	4.000000e+00	0.0	-6.000000e-01	4.000000e+00	0.0	-1.200000e+00	4.000000e+00	0.0	-1.800000e+00	4.000000e+00	0.0	-2.400000e+00	4.000000e+00	0.0	-4.978702e-02	8.980055e-01	0.0	1.825898e-01	8.774923e-01	0.0	-1.479458e+00	2.571424e-01	0.0	1.505753e+00	2.199788e-01	0.0	1.397323e-01	5.653615e-01	0.0	-9.090422e-02	5.859429e-01	0.0	-7.430613e-01	1.686135e-01	0.0	7.512558e-01	1.514901e-01	0.0	-2.578996e+00	2.081547e+00	0.0	2.531351e+00	1.938317e+00	0.0	-9.119920e-01	3.511138e+00	0.0	9.330627e-01	3.456638e+00	0.0	1.249838e-01	3.405199e-01	0.0	-1.092839e-01	3.511013e-01	0.0	-4.126883e-01	1.146619e-01	0.0	4.181099e-01	1.055668e-01	0.0	1.626178e-01	7.185914e-01	0.0	-7.493379e-02	7.413013e-01	0.0	1.241537e-01	1.923777e-01	0.0	-1.192139e-01	1.978090e-01	0.0	2.529636e+00	8.061729e-01	0.0	-2.499581e+00	7.932648e-01	0.0	-2.050966e+00	3.455134e+00	0.0	2.074664e+00	3.434836e+00	0.0	-1.834075e-01	7.608890e-02	0.0	1.844793e-01	7.342972e-02	0.0	2.228689e+00	3.898848e-01	0.0	-2.248468e+00	3.606827e-01	0.0	2.479815e+00	1.395415e+00	0.0	2.109275e+00	1.698855e+00	0.0	2.089397e+00	2.106380e+00	0.0	1.751827e+00	1.850748e+00	0.0	1.733853e+00	1.456785e+00	0.0	1.446081e+00	1.652805e+00	0.0	1.421970e+00	1.994280e+00	0.0	1.172683e+00	1.786080e+00	0.0	1.181160e+00	1.491613e+00	0.0	9.534811e-01	1.603822e+00	0.0	9.592071e-01	1.360841e+00	0.0	7.469523e-01	1.432470e+00	0.0	7.285688e-01	1.687145e+00	0.0	5.478510e-01	1.540990e+00	0.0	5.221921e-01	1.771803e+00	0.0	3.548263e-01	1.654127e+00	0.0	3.168715e-01	1.866547e+00	0.0	1.596469e-01	1.736238e+00	0.0	1.019789e-01	1.960523e+00	0.0	-6.744631e-02	1.785443e+00	0.0	7.859926e-01	1.223536e+00	0.0	1.127239e+00	2.120233e+00	0.0	3.200079e-01	2.131545e+00	0.0	9.431380e-01	1.117691e+00	0.0	7.729079e-01	1.037104e+00	0.0	-1.372677e-01	2.068631e+00	0.0	-3.434556e-01	1.901612e+00	0.0	-2.704376e-01	1.623488e+00	0.0	-5.539408e-01	1.735738e+00	0.0	-4.967640e-01	1.487256e+00	0.0	-7.602815e-01	1.569921e+00	0.0	-7.864965e-01	1.811484e+00	0.0	-7.070980e-01	1.313361e+00	0.0	-9.809587e-01	1.397642e+00	0.0	6.372783e-01	1.113149e+00	0.0	6.243966e-01	9.469695e-01	0.0	7.588432e-01	8.595272e-01	0.0	-4.112031e-01	2.190087e+00	0.0	6.083266e-01	7.775358e-01	0.0	2.003371e-01	1.513492e+00	0.0	1.015734e-01	1.047673e+00	0.0	1.617969e-01	1.035102e+00	0.0	1.295689e-01	1.100148e+00	0.0	1.995779e-01	1.098503e+00	0.0	-1.677600e-01	2.376755e+00	0.0	-9.215353e-01	1.131222e+00	0.0	-1.212003e+00	1.212011e+00	0.0	-6.589220e-01	1.051753e+00	0.0	-8.953872e-01	8.494186e-01	0.0	-6.439225e-01	8.224147e-01	0.0	-1.274351e+00	1.514261e+00	0.0	7.417766e-01	6.881701e-01	0.0	9.017297e-01	7.648165e-01	0.0	5.880918e-01	6.225104e-01	0.0	-2.820422e-01	1.377090e+00	0.0	1.389263e+00	2.350209e+00	0.0	5.301996e-02	1.094759e+00	0.0	9.090013e-02	1.168307e+00	0.0	2.309864e-01	1.020451e+00	0.0	2.813386e-01	1.093797e+00	0.0	2.375038e-01	1.175493e+00	0.0	3.175925e-01	1.002142e+00	0.0	8.786013e-01	5.894187e-01	0.0	1.073557e+00	6.780536e-01	0.0	-1.913313e-04	1.164349e+00	0.0	-4.678568e-01	9.438687e-01	0.0	-4.509411e-01	7.641675e-01	0.0	-5.977828e-01	6.360181e-01	0.0	-4.068558e-01	5.993383e-01	0.0	-1.534031e+00	1.303399e+00	0.0	3.456730e-01	1.181300e+00	0.0	-4.766152e-01	2.513061e+00	0.0	-1.997139e-01	2.733893e+00	0.0	4.695278e-01	7.001386e-01	0.0	4.493838e-01	5.551995e-01	0.0	4.619283e-02	1.254796e+00	0.0	5.625947e-01	4.764300e-01	0.0	4.271183e-01	4.170246e-01	0.0	1.064581e+00	2.488199e+00	0.0	-1.602504e+00	1.645587e+00	0.0	1.345404e+00	2.733689e+00	0.0	5.297598e-01	3.385921e-01	0.0	1.044067e+00	4.156431e-01	0.0	-1.455283e+00	1.009238e+00	0.0	-5.455885e-01	4.709673e-01	0.0	-7.116357e-01	4.984403e-01	0.0	-3.959610e-01	4.344689e-01	0.0	-3.004140e-01	8.926236e-01	0.0	-3.275668e-01	1.047512e+00	0.0	-1.974773e+00	1.421355e+00	0.0	3.392100e-01	6.338308e-01	0.0	3.700716e-01	7.695162e-01	0.0	6.796081e-01	3.925709e-01	0.0	-2.853222e-01	5.245174e-01	0.0	6.714380e-01	1.950973e+00	0.0	1.244257e+00	5.822890e-01	0.0	1.276650e+00	8.029628e-01	0.0	1.476222e+00	6.580114e-01	0.0	1.517982e+00	9.350516e-01	0.0	1.790817e+00	7.951202e-01	0.0	2.835042e-01	1.278083e+00	0.0	4.056549e-01	1.279377e+00	0.0	-5.047401e-01	3.169812e-01	0.0	-4.758289e-01	1.283367e+00	0.0	-7.410749e-01	2.296240e+00	0.0	-8.276819e-01	2.658788e+00	0.0	-1.117324e+00	2.433166e+00	0.0	-1.208944e+00	2.805178e+00	0.0	-1.580255e+00	2.468892e+00	0.0	-2.604189e-01	3.875639e-01	0.0	-6.549233e-02	1.248470e+00	0.0	-2.296389e-02	1.358641e+00	0.0	-1.016046e-01	1.149319e+00	0.0	1.455178e-01	2.561761e+00	0.0	1.439401e-01	3.017724e+00	0.0	4.758154e-01	2.775024e+00	0.0	-1.322491e+00	1.855016e+00	0.0	5.033133e-01	1.025781e+00	0.0	-2.769850e-01	3.150801e+00	0.0	-3.013527e-01	7.344711e-01	0.0	3.988155e-01	2.879986e-01	0.0	2.884634e-01	3.622315e-01	0.0	2.765612e-01	2.520704e-01	0.0	-3.586931e-02	1.087215e+00	0.0	-1.218770e-01	1.052274e+00	0.0	1.703255e+00	2.591185e+00	0.0	1.389672e+00	1.345045e+00	0.0	2.459811e+00	2.502414e+00	0.0	9.286937e-01	2.904443e+00	0.0	-1.666089e+00	2.015017e+00	0.0	3.099558e-01	4.943630e-01	0.0	2.115893e-01	4.360195e-01	0.0	1.210216e+00	2.009000e-01	0.0	-2.031426e-01	8.186000e-01	0.0	-1.875962e-01	4.720663e-01	0.0	3.823924e-01	3.515480e+00	0.0	-3.617333e-01	2.987528e-01	0.0	-2.462988e-01	2.702533e-01	0.0	4.797336e-01	8.702307e-01	0.0	2.127186e+00	1.063255e+00	0.0	-1.655442e+00	3.022957e+00	0.0	-2.007434e+00	2.672928e+00	0.0	3.357898e-01	1.398177e+00	0.0	-2.483502e+00	1.305058e+00	0.0	5.764080e-01	1.347083e+00	0.0	-1.191279e+00	2.278321e-01	0.0	-1.303433e+00	4.838935e-01	0.0	-1.589253e+00	5.360164e-01	0.0	-1.033666e+00	4.498003e-01	0.0	-1.136297e+00	7.008049e-01	0.0	1.658192e+00	3.038923e+00	0.0	-7.060927e-02	1.593569e+00	0.0	3.646212e-01	8.924331e-01	0.0	-1.853832e-01	1.235544e+00	0.0	-1.905829e-01	9.104716e-01	0.0	2.673118e-01	8.219427e-01	0.0	-1.814725e-01	6.986143e-01	0.0	-5.585093e-01	1.677522e-01	0.0	5.695350e-01	1.200172e-01	0.0	9.695923e-01	1.949953e-01	0.0	-9.496136e-01	1.975905e-01	0.0	1.832334e+00	2.702133e-01	0.0	2.935337e-01	8.826706e-02	0.0	-2.829424e-01	9.502481e-02	0.0	-1.475898e+00	3.528084e+00	0.0	1.087694e-01	1.366679e+00	0.0	2.528055e+00	3.102470e+00	0.0	2.537243e-01	5.676296e-01	0.0	-1.828700e+00	3.026438e-01	0.0	-1.966931e+00	6.903991e-01	0.0	1.329121e+00	1.067562e+00	0.0	2.418906e-01	6.648244e-01	0.0	2.577491e-01	9.273626e-01	0.0	7.994485e-01	2.234483e+00	0.0	-2.522727e+00	2.529295e+00	0.0	1.454964e+00	3.511886e+00	0.0	-1.933301e-01	5.891489e-01	0.0	1.819822e-01	9.611950e-01	0.0	-2.452237e+00	3.078496e+00	0.0	-6.267631e-02	8.186101e-01	0.0	8.312602e-01	3.066491e-01	0.0	4.748472e-01	2.417761e+00	0.0	-8.190386e-01	3.350307e-01	0.0	-8.373706e-02	6.636197e-01	0.0	1.747615e-01	7.958942e-01	0.0	-2.140888e+00	1.057631e+00	0.0	1.494206e-01	6.448894e-01	0.0	-1.066538e-01	5.144828e-01	0.0	1.353870e-01	4.903393e-01	0.0	1.084549e+00	9.211839e-01	0.0	1.305676e-01	4.128680e-01	0.0	-1.116037e-01	2.729427e-01	0.0	1.211726e-01	2.656481e-01	0.0	1.978242e-01	3.011789e-01	0.0	-1.100360e-01	4.305565e-01	0.0	2.192559e-01	1.611397e-01	0.0	-2.106473e-01	1.724899e-01	0.0	-7.853321e-01	6.532275e-01	0.0	-2.118890e-01	1.118169e+00	0.0	2.125122e+00	7.253898e-01	0.0	4.951478e-01	1.176661e+00	0.0	1.797260e+00	1.133109e+00	0.0	5.295307e-02	1.048149e+00	0.0	7.142581e-01	5.370165e-01	0.0	-6.475058e-01	3.267676e-01	0.0	2.330870e-01	7.554611e-01	0.0	-5.041449e-02	1.017095e+00	0.0	1.163933e-01	1.140913e-01	0.0	-1.160557e-01	1.181305e-01	0.0	-1.922709e+00	1.792446e+00	0.0	-2.064638e+00	2.178112e+00	0.0	-4.602395e-01	1.115249e+00	0.0	-8.827930e-01	3.064757e+00	0.0	1.468990e-01	1.247980e+00	0.0	1.148562e+00	1.217046e+00	0.0	-5.443388e-01	2.897552e+00	0.0	8.926105e-01	9.393997e-01	0.0	7.494558e-01	2.563833e+00	0.0	5.742099e-01	3.133814e+00	0.0	-1.169461e+00	9.381777e-01	0.0	2.078970e+00	2.856918e+00	0.0	1.278103e+00	3.1332
[...]
POINT_DATA 394

SCALARS Density float 1
LOOKUP_TABLE default
1.223750e+00	1.223949e+00	1.222286e+00	1.222042e+00	1.223546e+00	1.223767e+00	1.223252e+00	1.223611e+00	1.223593e+00	1.223607e+00	1.223655e+00	1.223685e+00	1.223761e+00	1.223766e+00	1.223776e+00	1.223755e+00	1.223788e+00	1.223809e+00	1.223845e+00	1.223868e+00	1.223890e+00	1.223932e+00	1.223911e+00	1.223977e+00	1.223904e+00	1.223989e+00	1.223906e+00	1.223921e+00	1.223920e+00	1.223904e+00	1.223891e+00	1.223852e+00	1.223847e+00	1.223764e+00	1.223843e+00	1.223060e+00	1.224828e+00	1.220604e+00	1.223888e+00	1.223509e+00	1.223537e+00	1.223483e+00	1.223436e+00	1.223411e+00	1.223415e+00	1.223421e+00	1.223445e+00	1.223477e+00	1.223416e+00	1.223637e+00	1.223419e+00	1.223524e+00	1.223442e+00	1.223376e+00	1.223331e+00	1.223301e+00	1.223208e+00	1.223251e+00	1.223245e+00	1.223371e+00	1.222902e+00	1.223493e+00	1.223175e+00	1.222971e+00	1.222849e+00	1.222943e+00	1.223082e+00	1.223107e+00	1.223233e+00	1.223276e+00	1.223364e+00	1.223421e+00	1.223502e+00	1.223558e+00	1.223593e+00	1.223595e+00	1.223338e+00	1.223741e+00	1.223797e+00	1.223187e+00	1.223460e+00	1.223800e+00	1.223853e+00	1.223297e+00	1.223653e+00	1.223302e+00	1.223530e+00	1.223310e+00	1.223448e+00	1.223883e+00	1.223912e+00	1.223412e+00	1.223573e+00	1.223643e+00	1.223532e+00	1.223925e+00	1.223046e+00	1.223750e+00	1.223617e+00	1.223113e+00	1.223943e+00	1.223506e+00	1.223292e+00	1.223743e+00	1.222981e+00	1.222967e+00	1.223127e+00	1.223123e+00	1.223082e+00	1.223061e+00	1.223048e+00	1.223283e+00	1.222958e+00	1.222988e+00	1.223031e+00	1.223185e+00	1.222939e+00	1.223219e+00	1.223166e+00	1.223271e+00	1.223211e+00	1.223258e+00	1.223473e+00	1.223356e+00	1.223176e+00	1.223040e+00	1.223279e+00	1.222987e+00	1.223189e+00	1.223437e+00	1.223531e+00	1.223549e+00	1.223493e+00	1.223634e+00	1.223691e+00	1.223590e+00	1.223683e+00	1.223668e+00	1.223281e+00	1.223266e+00	1.223305e+00	1.223552e+00	1.223342e+00	1.223255e+00	1.222309e+00	1.222195e+00	1.222867e+00	1.223079e+00	1.223430e+00	1.223729e+00	1.223728e+00	1.223779e+00	1.223778e+00	1.223798e+00	1.223690e+00	1.223232e+00	1.223073e+00	1.223334e+00	1.223556e+00	1.223205e+00	1.221988e+00	1.223278e+00	1.223165e+00	1.223067e+00	1.222855e+00	1.223283e+00	1.223244e+00	1.223158e+00	1.223176e+00	1.223756e+00	1.223767e+00	1.223828e+00	1.223811e+00	1.223697e+00	1.222974e+00	1.223506e+00	1.223487e+00	1.223452e+00	1.223381e+00	1.223156e+00	1.223329e+00	1.223381e+00	1.223283e+00	1.223678e+00	1.223151e+00	1.223423e+00	1.223093e+00	1.223753e+00	1.223853e+00	1.223874e+00	1.223909e+00	1.223770e+00	1.223667e+00	1.223713e+00	1.223422e+00	1.223480e+00	1.223266e+00	1.223891e+00	1.223347e+00	1.223039e+00	1.223175e+00	1.222953e+00	1.222949e+00	1.223052e+00	1.223025e+00	1.223001e+00	1.223929e+00	1.223602e+00	1.223551e+00	1.223537e+00	1.223603e+00	1.223578e+00	1.223643e+00	1.223877e+00	1.223219e+00	1.223498e+00	1.223500e+00	1.223370e+00	1.223390e+00	1.223412e+00	1.223647e+00	1.223182e+00	1.223420e+00	1.223860e+00	1.223382e+00	1.223410e+00	1.223443e+00	1.223728e+00	1.223095e+00	1.223094e+00	1.222939e+00	1.223306e+00	1.223305e+00	1.223665e+00	1.223454e+00	1.223374e+00	1.223027e+00	1.223723e+00	1.223961e+00	1.223413e+00	1.223881e+00	1.223924e+00	1.223315e+00	1.222953e+00	1.223571e+00	1.223609e+00	1.222787e+00	1.223696e+00	1.223125e+00	1.223827e+00	1.223859e+00	1.223729e+00	1.223824e+00	1.223769e+00	1.223272e+00	1.223519e+00	1.223369e+00	1.223456e+00	1.223711e+00	1.223564e+00	1.223851e+00	1.223934e+00	1.223364e+00	1.223255e+00	1.223857e+00	1.223006e+00	1.223526e+00	1.223960e+00	1.223568e+00	1.223131e+00	1.223163e+00	1.223490e+00	1.223794e+00	1.223738e+00	1.223043e+00	1.223450e+00	1.223275e+00	1.223227e+00	1.223649e+00	1.223238e+00	1.223809e+00	1.223314e+00	1.223634e+00	1.223969e+00	1.223250e+00	1.223348e+00	1.223847e+00	1.223847e+00	1.223543e+00	1.223713e+00	1.223516e+00	1.223838e+00	1.223443e+00	1.223105e+00	1.223455e+00	1.223912e+00	1.223465e+00	1.223415e+00	1.223844e+00	1.223391e+00	1.223952e+00	1.223828e+00	1.223655e+00	1.222991e+00	1.223139e+00	1.223311e+00	1.224379e+00	1.223308e+00	1.223922e+00	1.223457e+00	1.223486e+00	1.223457e+00	1.223925e+00	1.223662e+00	1.223665e+00	1.223712e+00	1.223534e+00	1.222873e+00	1.223137e+00	1.223490e+00	1.223092e+00	1.223250e+00	1.223308e+00	1.223802e+00	1.223310e+00	1.223240e+00	1.223942e+00	1.223594e+00	1.223523e+00	1.223083e+00	1.223591e+00	1.223190e+00	1.223192e+00	1.223883e+00	1.223331e+00	1.223367e+00	1.223386e+00	1.223377e+00	1.223772e+00	1.223269e+00	1.223323e+00	1.223654e+00	1.223250e+00	1.223761e+00	1.223326e+00	1.222499e+00	1.223789e+00	1.223835e+00	1.223457e+00	1.223464e+00	1.222869e+00	1.223653e+00	1.223190e+00	1.223626e+00	1.223866e+00	1.224899e+00	1.223936e+00	1.223762e+00	1.223381e+00	1.223318e+00	1.223578e+00	1.223440e+00	1.223846e+00	1.223036e+00	1.223941e+00	1.223173e+00	1.223085e+00	1.223603e+00	1.223191e+00	1.223594e+00	1.223347e+00	1.223829e+00	1.223824e+00	1.223717e+00	1.223370e+00	1.223375e+00	1.223954e+00	1.223590e+00	1.223495e+00	1.223151e+00	1.223681e+00	1.222936e+00	1.223485e+00	1.223164e+00	1.223405e+00	1.223494e+00	1.223787e+00	1.223006e+00	1.223498e+00	1.222826e+00	1.223328e+00	1.223114e+00	1.223774e+00	1.223031e+00	
SCALARS X-Momentum float 1
LOOKUP_TABLE default
8.044063e+00	2.493469e-01	4.740123e+00	6.416105e-01	-6.097715e-01	-5.119423e+00	1.647352e+01	1.001082e+01	9.849025e+00	9.603955e+00	9.304113e+00	8.955232e+00	8.612692e+00	8.274188e+00	7.862635e+00	7.516259e+00	6.994992e+00	6.346596e+00	5.625523e+00	4.829390e+00	3.979559e+00	3.190439e+00	2.346825e+00	1.562269e+00	8.305712e-01	-2.066028e-02	6.179749e-02	1.812241e-01	2.948917e-01	4.229259e-01	5.625995e-01	7.095644e-01	8.731730e-01	1.048489e+00	1.184447e+00	1.218834e+00	1.063590e+00	4.697597e+00	7.686373e-01	6.671526e-01	7.416113e-01	7.365231e-01	7.244349e-01	6.971943e-01	6.227210e-01	5.150644e-01	4.035548e-01	2.710096e-01	1.707634e-01	1.181323e-01	-1.898063e+00	-3.433654e+00	-4.766592e+00	-6.012085e+00	-7.056519e+00	-7.838206e+00	-8.418431e+00	-8.706208e+00	-8.235577e+00	-7.425596e+00	-6.611876e+00	-1.432233e+00	3.965607e+00	9.454209e+00	1.362435e+01	1.584552e+01	1.653194e+01	1.582120e+01	1.491136e+01	1.389260e+01	1.302054e+01	1.227394e+01	1.159757e+01	1.099417e+01	1.050174e+01	1.017021e+01	1.838201e+00	1.309477e+00	6.852620e+00	-5.966690e+00	7.257267e-01	1.614407e+00	4.588934e+00	-5.683067e+00	9.210694e+00	1.203608e+01	1.110685e+01	1.384954e+01	6.930416e-02	1.058322e+00	2.772629e+00	-4.216211e+00	1.074221e+00	1.962003e+00	-4.808036e-01	7.511919e-01	6.289916e-01	8.281200e+00	1.013293e+01	1.563982e+01	1.132999e+00	-1.985423e+00	-3.439895e+00	7.890176e+00	6.882507e+00	1.054521e+01	1.376587e+01	1.261620e+01	8.707822e+00	1.143261e+01	1.409819e+01	1.314737e+01	1.015365e+01	1.185922e+01	8.659448e+00	1.015871e+01	1.308846e+01	1.202356e+01	1.370954e+01	1.314058e+01	1.365058e+01	1.301656e+01	1.291377e+01	1.199084e+01	6.897972e+00	1.479021e+01	1.358849e+01	5.269760e+00	4.197158e+00	1.194817e+01	1.100325e+01	1.063276e+01	1.002697e+01	9.347080e+00	9.227776e+00	9.754683e+00	8.362977e+00	8.595947e+00	5.062599e+00	2.907116e+00	2.087654e+00	1.116753e+01	1.363938e+00	1.246580e+01	5.410362e+00	2.647461e+00	6.180629e+00	4.577011e+00	1.195370e+01	7.777991e+00	8.165222e+00	7.232851e+00	6.790068e+00	6.095955e+00	8.799768e+00	3.195778e-01	9.409190e-01	4.459248e-02	9.540887e+00	1.525614e+01	8.066171e+00	9.059257e+00	2.220637e+00	4.114107e+00	6.951045e+00	2.537205e+00	-1.140943e+00	-4.808875e-01	9.534713e+00	6.244177e+00	5.114076e+00	5.145850e+00	4.059638e+00	8.450831e+00	6.324727e+00	1.126509e+01	1.193294e+01	9.881728e-01	-5.801751e-02	1.068490e+01	-1.208059e+00	-1.103202e+00	1.505013e+01	8.963399e+00	1.522616e+01	-2.375755e+00	-3.314795e+00	7.885877e+00	4.348491e+00	5.127166e+00	3.406489e+00	5.044009e+00	6.551624e+00	8.670412e+00	8.225130e-01	1.555031e+00	-2.533596e+00	2.983028e+00	1.428621e+01	-1.785137e+00	8.766898e-01	-1.044620e+00	2.308986e+00	5.143355e-01	9.295387e+00	8.743957e+00	3.687833e+00	8.356098e+00	1.058894e+01	1.079324e+01	1.022145e+01	1.042009e+01	9.855941e+00	2.365039e+00	1.008355e+01	1.118940e+01	8.431744e+00	1.278755e+01	1.261839e+01	1.357140e+01	9.352074e+00	3.546652e+00	1.185069e+01	4.032202e+00	-2.032166e+00	-8.027443e-01	-1.489167e+00	7.776265e+00	6.225141e+00	1.549180e+01	7.889983e+00	1.509572e+01	1.438990e+01	9.399149e+00	-1.033270e-02	4.356452e-02	-6.159908e+00	3.672978e+00	2.121034e+00	1.287413e+01	2.826706e+00	1.932567e+00	2.077539e+00	3.408037e+00	1.015536e+01	9.758709e+00	1.110442e+01	8.656107e+00	9.300376e+00	6.201288e+00	6.764419e+00	7.333636e+00	6.079915e+00	6.802312e+00	1.533581e+01	1.167970e+01	2.020669e+00	9.045028e+00	4.174236e+00	1.632954e+00	2.860230e+00	3.691111e+00	-5.088781e+00	-5.914741e+00	5.441838e+00	-5.104408e+00	-3.160658e+00	1.898193e+00	1.055771e+01	1.169884e+01	1.615075e+01	6.304898e-01	7.440938e+00	7.902759e+00	4.300610e+00	1.062809e+00	1.761486e+00	1.467897e+01	9.499971e+00	1.473068e+01	2.459927e+00	1.120474e+00	9.808291e+00	2.057524e+00	-4.018552e+00	1.383614e+01	5.221339e+00	1.803222e+00	1.191370e+00	8.341208e+00	9.013482e-01	1.505011e+00	5.092503e-01	2.722642e+00	2.940401e-01	8.726334e-01	-1.733706e-01	-5.811810e-01	1.283927e+00	-1.655170e+00	1.407156e+00	5.855048e+00	7.371152e+00	-2.397273e-01	6.167871e+00	4.632153e+00	7.181143e+00	-1.199613e+00	4.440253e+00	1.381025e+00	5.137745e+00	-7.442813e-01	6.197099e-01	9.089039e+00	9.385958e+00	7.327409e+00	1.094914e+01	9.885089e+00	6.510670e+00	1.134647e+01	2.955823e+00	1.445553e+01	1.342391e+01	7.466070e+00	1.573817e+01	1.474654e+01	1.739381e+00	1.036716e+01	1.173636e+01	1.478222e+01	9.894058e+00	3.936525e+00	1.405077e+01	2.305540e+00	-3.422546e+00	1.426075e+01	-2.704365e+00	1.273270e+01	8.167062e+00	-3.883244e+00	1.198581e+01	9.265475e+00	2.633535e+00	7.322859e+00	-3.050177e+00	-3.645489e+00	8.089254e+00	2.960238e+00	3.712948e+00	1.026552e+01	7.598253e+00	8.019600e+00	1.071324e+01	9.754730e+00	3.113744e+00	2.656990e+00	1.559171e+00	7.733311e+00	-8.643861e-01	1.144529e+01	9.971022e+00	1.223662e+01	3.334415e+00	1.621529e+01	1.309979e+00	-3.825849e+00	-2.246972e+00	9.944578e+00	-2.495012e+00	1.061050e+01	1.094076e+01	5.698294e+00	5.573290e+00	8.989358e+00	-1.777032e-01	4.585235e-01	5.027928e-01	-9.102246e-01	1.250275e+01	1.406871e+01	2.718246e+00	1.216513e+01	7.827050e+00	1.532101e+01	8.046946e-01	1.139310e+01	6.247180e+00	7.191337e+00	1.372670e+00	5.459166e+00	1.322274e+01	7.063179e+00	2.268646e+00	7.509816e+00	
SCALARS Y-Momentum float 1
LOOKUP_TABLE default
-2.403973e-02	2.450417e-01	6.946453e+00	-3.946387e-01	5.867000e-01	2.223650e-01	6.559702e-02	-1.342736e-02	2.126818e-02	5.144390e-02	7.262822e-02	9.494633e-02	8.292856e-02	2.081190e-02	-3.960452e-03	1.553467e-04	5.698144e-03	3.570099e-03	9.396819e-03	1.098949e-02	-8.815951e-03	3.840302e-03	-1.833075e-03	6.549142e-03	-1.972473e-02	7.758843e-01	1.396243e+00	2.050496e+00	2.787935e+00	3.558018e+00	4.328406e+00	5.105952e+00	5.910496e+00	6.784943e+00	7.547100e+00	7.930671e+00	8.499777e+00	-6.682732e-01	2.075052e+00	3.079660e+00	3.919666e+00	4.505907e+00	4.844202e+00	4.971024e+00	4.860444e+00	4.537528e+00	4.058593e+00	3.417090e+00	2.639540e+00	1.653612e+00	-4.655889e-03	2.677261e-02	2.888636e-02	1.188015e-02	9.304455e-03	2.010809e-02	2.175462e-02	2.164754e-03	-5.392052e-02	-7.417943e-02	-9.716998e-02	-5.067723e-01	-5.667380e-01	-2.173654e-01	4.177702e-01	6.916894e-01	4.388006e-01	1.576784e-02	6.108873e-03	-2.446212e-03	-3.715691e-02	-2.319756e-02	-2.081390e-03	-4.631568e-03	4.500829e-03	-1.632044e-03	8.432221e+00	3.406562e+00	5.061196e-01	-2.347392e-01	4.652366e+00	5.184875e+00	7.393725e-01	6.354805e-01	4.406019e-01	1.828503e-01	5.203018e-01	8.858358e-01	3.944924e+00	2.982977e+00	7.165068e-01	8.866859e-01	4.290757e+00	6.700322e+00	2.732749e+00	1.653647e+00	-8.116417e-01	3.701505e-01	2.985751e-01	8.178059e-01	5.612331e-01	1.013594e+00	-6.063521e-01	2.774971e-01	-5.194598e-01	6.594791e-02	8.445305e-01	9.766047e-01	2.450640e-01	1.201043e+00	1.901068e+00	2.194013e+00	1.579530e+00	2.538086e+00	2.081086e+00	2.974221e+00	3.550773e+00	4.061478e+00	4.434042e+00	5.011651e+00	4.822253e+00	5.497777e+00	4.607349e+00	5.251998e+00	2.449646e+00	2.665445e+00	4.019986e+00	1.917569e+00	2.525538e+00	3.898289e+00	4.019412e+00	5.382618e+00	3.845996e+00	4.635762e+00	3.391041e+00	2.948008e+00	3.824968e+00	2.779059e+00	2.905655e+00	3.210790e+00	2.680355e+00	3.002175e+00	3.350023e+00	5.676776e+00	1.547830e+00	1.374588e+00	2.794302e+00	2.450613e+00	2.833609e+00	2.883504e+00	2.183415e+00	3.928245e+00	2.624880e+00	3.495827e+00	2.080455e+00	2.593076e+00	1.963829e+00	3.121157e+00	6.495538e+00	2.146945e+00	6.270757e+00	5.555284e+00	2.798085e+00	3.154512e+00	3.484070e+00	3.660508e+00	1.712531e+00	1.034189e+00	8.385911e+00	4.932043e+00	4.326820e+00	3.077477e+00	3.660206e+00	1.619662e+00	3.378787e+00	2.165835e+00	1.915160e+00	3.850406e+00	3.501161e+00	7.370780e+00	2.705271e+00	3.011554e+00	2.525405e+00	1.517040e+00	1.938225e+00	2.143324e+00	7.472734e-01	1.596408e+00	2.513650e+00	2.151636e+00	2.715879e+00	6.217320e+00	6.740460e+00	1.062728e+00	4.138641e+00	4.283155e+00	1.872198e+00	3.639529e+00	3.831668e+00	3.273268e-01	4.392099e-01	-8.657686e-02	-9.332414e-02	-6.278124e-01	4.111396e+00	3.621012e+00	1.811794e+00	5.193881e+00	2.264731e+00	1.631282e+00	1.678428e+00	1.182782e+00	1.174721e+00	2.756588e+00	8.642707e+00	7.701150e+00	9.534232e+00	2.619116e+00	1.497157e+00	2.231160e+00	1.885504e+00	3.457253e+00	1.124580e+00	5.077870e+00	2.393043e+00	3.309837e+00	2.624039e+00	9.743934e+00	9.924724e+00	1.708746e+00	7.417601e-01	9.332405e-01	1.912666e+00	1.350721e+00	3.836626e+00	4.055146e+00	1.320783e-01	6.565420e+00	3.705024e+00	7.072448e-01	1.948184e+00	1.947375e+00	3.935987e+00	-8.232740e-01	7.267771e-01	6.872421e-01	4.558490e+00	5.199683e-01	3.280178e+00	5.979255e-01	1.096878e+00	8.864997e-01	1.345609e+00	1.750198e+00	1.440014e+00	6.297781e+00	4.206894e+00	8.310976e+00	7.834499e+00	4.153258e+00	5.647423e+00	8.677181e-01	7.566576e-01	4.537620e-01	6.809708e-01	-4.338115e-01	1.023684e+00	6.674248e-01	3.920333e-01	6.545549e+00	9.549942e-01	4.298177e+00	4.135790e-01	7.133859e-01	6.166209e-01	4.381625e+00	3.739639e+00	3.260229e+00	4.118806e-01	7.986093e-01	4.610584e+00	2.504416e+00	3.099303e-01	7.680013e+00	1.133566e+00	3.194392e+00	1.381782e+00	5.916318e+00	3.854043e+00	7.734479e-01	4.546016e+00	4.447219e+00	4.569789e+00	1.338933e+00	4.322298e+00	2.305839e+00	3.422671e+00	3.349496e+00	3.679468e+00	2.046151e+00	1.302480e+00	2.513133e+00	8.556430e+00	-8.493238e-01	3.186215e+00	-4.133551e-01	4.628884e+00	2.285616e+00	1.571154e+00	4.257605e+00	1.043773e+01	1.895419e+00	1.023752e+00	1.099767e+00	8.512624e-01	5.357683e+00	1.067782e+00	5.145177e+00	1.346639e+00	1.455922e+00	2.110462e+00	2.693329e+00	1.434442e+00	2.059842e+00	1.369279e+00	1.436477e+00	3.089187e+00	2.979801e+00	5.139848e-01	1.579435e+00	2.248089e+00	3.462619e+00	3.091176e+00	1.332689e+00	1.548948e+00	3.857821e+00	1.794275e+00	3.593817e+00	1.152257e+00	1.354401e+00	6.783576e+00	2.535575e+00	3.912796e+00	1.410597e+00	-4.462032e-01	-4.543114e-01	1.264987e-01	7.942838e+00	9.446434e+00	7.917130e+00	3.641083e+00	6.849421e+00	3.974482e+00	1.642846e+00	1.324329e+00	1.001035e+01	2.482523e+00	1.119901e+00	2.860677e+00	5.266420e+00	1.267265e-01	7.071111e-01	4.451564e+00	4.737852e-01	1.924026e+00	8.108354e-03	-7.339103e-01	5.092442e-01	1.538598e+00	7.826241e-01	6.935128e+00	1.870423e+00	8.356170e+00	6.887483e-01	3.826353e+00	4.337556e+00	4.699609e-01	9.636368e-01	6.219230e+00	4.316077e+00	6.834696e+00	4.630535e+00	4.517622e+00	1.367588e+00	4.474847e+00	8.974043e-01	2.006008e+00	-4.348813e-01	4.332721e+00	1.218856e-01	3.363562e+00	8.665591e+00	5.257801e+00	2.832551e+00	
SCALARS Energy float 1
LOOKUP_TABLE default