# vtk DataFile Version 3.0
vtk output
ASCII
DATASET UNSTRUCTURED_GRID
POINTS 394 float
-3.000000e+00	0.000000e+00	0.0	-5.000000e-02	1.524861e-17	0.0	7.766754e-02	1.009547e+00	0.0	1.777099e-01	9.913529e-01	0.0	5.000000e-02	-2.101022e-18	0.0	3.000000e+00	0.000000e+00	0.0	3.000000e+00	4.000000e+00	0.0	-3.000000e+00	4.000000e+00	0.0	-3.000000e+00	3.428571e+00	0.0	-3.000000e+00	2.857143e+00	0.0	-3.000000e+00	2.285714e+00	0.0	-3.000000e+00	1.714286e+00	0.0	-3.000000e+00	1.142857e+00	0.0	-3.000000e+00	5.714286e-01	0.0	-2.473871e+00	0.000000e+00	0.0	-2.029066e+00	0.000000e+00	0.0	-1.653013e+00	0.000000e+00	0.0	-1.335087e+00	0.000000e+00	0.0	-1.066302e+00	0.000000e+00	0.0	-8.390627e-01	0.000000e+00	0.0	-6.469477e-01	0.000000e+00	0.0	-4.845277e-01	0.000000e+00	0.0	-3.472127e-01	0.000000e+00	0.0	-2.311224e-01	0.000000e+00	0.0	-1.329760e-01	0.000000e+00	0.0	-4.829517e-02	7.864958e-02	0.0	-4.446373e-02	1.570283e-01	0.0	-3.869586e-02	2.351454e-01	0.0	-3.134778e-02	3.130668e-01	0.0	-2.266173e-02	3.908554e-01	0.0	-1.278929e-02	4.685529e-01	0.0	-1.840859e-03	5.461681e-01	0.0	1.005919e-02	6.236846e-01	0.0	2.274292e-02	7.010864e-01	0.0	3.603077e-02	7.783699e-01	0.0	4.972582e-02	8.555423e-01	0.0	6.371648e-02	9.325885e-01	0.0	1.276868e-01	1.000488e+00	0.0	1.636561e-01	9.144423e-01	0.0	1.497150e-01	8.375919e-01	0.0	1.360031e-01	7.608611e-01	0.0	1.227171e-01	6.842425e-01	0.0	1.100309e-01	6.077393e-01	0.0	9.812833e-02	5.313476e-01	0.0	8.717611e-02	4.550492e-01	0.0	7.730186e-02	3.788273e-01	0.0	6.861563e-02	3.026915e-01	0.0	6.126827e-02	2.266839e-01	0.0	5.550326e-02	1.508643e-01	0.0	5.164527e-02	7.529060e-02	0.0	1.329760e-01	0.000000e+00	0.0	2.311224e-01	0.000000e+00	0.0	3.472127e-01	0.000000e+00	0.0	4.845277e-01	0.000000e+00	0.0	6.469477e-01	0.000000e+00	0.0	8.390627e-01	0.000000e+00	0.0	1.066302e+00	0.000000e+00	0.0	1.335087e+00	0.000000e+00	0.0	1.653013e+00	0.000000e+00	0.0	2.029066e+00	0.000000e+00	0.0	2.473871e+00	0.000000e+00	0.0	3.000000e+00	5.714286e-01	0.0	3.000000e+00	1.142857e+00	0.0	3.000000e+00	1.714286e+00	0.0	3.000000e+00	2.285714e+00	0.0	3.000000e+00	2.857143e+00	0.0	3.000000e+00	3.428571e+00	0.0	2.400000e+00	4.000000e+00	0.0	1.800000e+00	4.000000e+00	0.0	1.200000e+00	4.000000e+00	0.0	6.000000e-01	4.000000e+00	0.0	0.000000e+00	4.000000e+00	0.0	-6.000000e-01	4.000000e+00	0.0	-1.200000e+00	4.000000e+00	0.0	-1.800000e+00	4.000000e+00	0.0	-2.400000e+00	4.000000e+00	0.0	-2.903058e-02	9.019151e-01	0.0	2.041793e-01	8.741033e-01	0.0	-1.478051e+00	2.598350e-01	0.0	1.507880e+00	2.172754e-01	0.0	1.486612e-01	5.630069e-01	0.0	-8.170002e-02	5.893055e-01	0.0	-7.417954e-01	1.711276e-01	0.0	7.530720e-01	1.488622e-01	0.0	-2.575693e+00	2.083504e+00	0.0	2.536899e+00	1.935301e+00	0.0	-9.048115e-01	3.512088e+00	0.0	9.414649e-01	3.455243e+00	0.0	1.284867e-01	3.391375e-01	0.0	-1.057638e-01	3.530504e-01	0.0	-4.119724e-01	1.162923e-01	0.0	4.191278e-01	1.041455e-01	0.0	1.772216e-01	7.155421e-01	0.0	-6.037073e-02	7.452583e-01	0.0	1.256429e-01	1.914555e-01	0.0	-1.177628e-01	1.990413e-01	0.0	2.532110e+00	8.024776e-01	0.0	-2.497700e+00	7.958081e-01	0.0	-2.047682e+00	3.456598e+00	0.0	2.078720e+00	3.433234e+00	0.0	-1.830724e-01	7.674665e-02	0.0	1.848928e-01	7.287225e-02	0.0	2.230768e+00	3.867477e-01	0.0	-2.247527e+00	3.624856e-01	0.0	2.485476e+00	1.391135e+00	0.0	2.118436e+00	1.693332e+00	0.0	2.099222e+00	2.102194e+00	0.0	1.764356e+00	1.845032e+00	0.0	1.745163e+00	1.449623e+00	0.0	1.461225e+00	1.645932e+00	0.0	1.437480e+00	1.988715e+00	0.0	1.190845e+00	1.779869e+00	0.0	1.198427e+00	1.484345e+00	0.0	9.736453e-01	1.597548e+00	0.0	9.784371e-01	1.353500e+00	0.0	7.693789e-01	1.426099e+00	0.0	7.513028e-01	1.682405e+00	0.0	5.729268e-01	1.536751e+00	0.0	5.462817e-01	1.768731e+00	0.0	3.806519e-01	1.651652e+00	0.0	3.415287e-01	1.864749e+00	0.0	1.858145e-01	1.735919e+00	0.0	1.264330e-01	1.960231e+00	0.0	-4.143449e-02	1.786792e+00	0.0	8.065088e-01	1.216388e+00	0.0	1.144960e+00	2.115266e+00	0.0	3.428497e-01	2.129960e+00	0.0	9.604459e-01	1.109577e+00	0.0	7.909742e-01	1.029741e+00	0.0	-1.143551e-01	2.069788e+00	0.0	-3.208003e-01	1.904916e+00	0.0	-2.447731e-01	1.627414e+00	0.0	-5.330006e-01	1.741333e+00	0.0	-4.746047e-01	1.494224e+00	0.0	-7.415386e-01	1.576788e+00	0.0	-7.678080e-01	1.817555e+00	0.0	-6.883466e-01	1.322049e+00	0.0	-9.656859e-01	1.405316e+00	0.0	6.582792e-01	1.106785e+00	0.0	6.429156e-01	9.402118e-01	0.0	7.739850e-01	8.522475e-01	0.0	-3.906761e-01	2.193015e+00	0.0	6.230234e-01	7.706922e-01	0.0	2.275094e-01	1.512661e+00	0.0	1.291309e-01	1.048298e+00	0.0	1.893249e-01	1.033460e+00	0.0	1.572942e-01	1.100097e+00	0.0	2.268165e-01	1.096961e+00	0.0	-1.471373e-01	2.378120e+00	0.0	-9.080099e-01	1.139319e+00	0.0	-1.200928e+00	1.219544e+00	0.0	-6.422281e-01	1.060558e+00	0.0	-8.864850e-01	8.574965e-01	0.0	-6.325362e-01	8.309973e-01	0.0	-1.261653e+00	1.521349e+00	0.0	7.534265e-01	6.811282e-01	0.0	9.139943e-01	7.570756e-01	0.0	5.990495e-01	6.161100e-01	0.0	-2.565545e-01	1.382787e+00	0.0	1.403934e+00	2.345780e+00	0.0	8.071850e-02	1.096852e+00	0.0	1.187637e-01	1.169131e+00	0.0	2.569883e-01	1.017618e+00	0.0	3.074914e-01	1.090798e+00	0.0	2.648257e-01	1.173607e+00	0.0	3.416366e-01	9.980140e-01	0.0	8.876192e-01	5.822292e-01	0.0	1.083247e+00	6.707506e-01	0.0	2.705820e-02	1.167133e+00	0.0	-4.509925e-01	9.523833e-01	0.0	-4.388004e-01	7.724521e-01	0.0	-5.899008e-01	6.430892e-01	0.0	-3.986643e-01	6.065414e-01	0.0	-1.524868e+00	1.310370e+00	0.0	3.716233e-01	1.177909e+00	0.0	-4.588893e-01	2.515561e+00	0.0	-1.827933e-01	2.735504e+00	0.0	4.831658e-01	6.935827e-01	0.0	4.590061e-01	5.495638e-01	0.0	7.392644e-02	1.256455e+00	0.0	5.701677e-01	4.710398e-01	0.0	4.332305e-01	4.126553e-01	0.0	1.081150e+00	2.484674e+00	0.0	-1.592131e+00	1.651680e+00	0.0	1.358367e+00	2.730184e+00	0.0	5.344343e-01	3.344567e-01	0.0	1.049496e+00	4.097939e-01	0.0	-1.447988e+00	1.016080e+00	0.0	-5.405817e-01	4.765263e-01	0.0	-7.064515e-01	5.043013e-01	0.0	-3.912870e-01	4.395400e-01	0.0	-2.825440e-01	9.007843e-01	0.0	-3.064703e-01	1.055085e+00	0.0	-1.967974e+00	1.426653e+00	0.0	3.512524e-01	6.277997e-01	0.0	3.864205e-01	7.632189e-01	0.0	6.854690e-01	3.874521e-01	0.0	-2.782685e-01	5.302184e-01	0.0	6.941320e-01	1.947750e+00	0.0	1.251706e+00	5.759300e-01	0.0	1.286498e+00	7.955209e-01	0.0	1.483252e+00	6.515294e-01	0.0	1.527872e+00	9.278108e-01	0.0	1.797297e+00	7.890397e-01	0.0	3.102999e-01	1.275789e+00	0.0	4.313403e-01	1.275758e+00	0.0	-5.021114e-01	3.208924e-01	0.0	-4.545274e-01	1.291503e+00	0.0	-7.234620e-01	2.300137e+00	0.0	-8.133023e-01	2.661602e+00	0.0	-1.103448e+00	2.437194e+00	0.0	-1.197590e+00	2.807603e+00	0.0	-1.569638e+00	2.473056e+00	0.0	-2.565648e-01	3.915648e-01	0.0	-3.865819e-02	1.251989e+00	0.0	4.321486e-03	1.361209e+00	0.0	-7.569837e-02	1.153869e+00	0.0	1.657499e-01	2.561190e+00	0.0	1.582704e-01	3.017803e+00	0.0	4.929848e-01	2.773445e+00	0.0	-1.309303e+00	1.861109e+00	0.0	5.252060e-01	1.019710e+00	0.0	-2.653040e-01	3.152454e+00	0.0	-2.887612e-01	7.421127e-01	0.0	4.022022e-01	2.849420e-01	0.0	2.926792e-01	3.588100e-01	0.0	2.790119e-01	2.497522e-01	0.0	-9.559214e-03	1.091020e+00	0.0	-9.765287e-02	1.057500e+00	0.0	1.714559e+00	2.587274e+00	0.0	1.403770e+00	1.337315e+00	0.0	2.465958e+00	2.500169e+00	0.0	9.429695e-01	2.901966e+00	0.0	-1.655670e+00	2.020529e+00	0.0	3.175393e-01	4.893833e-01	0.0	2.172746e-01	4.328873e-01	0.0	1.212407e+00	1.981636e-01	0.0	-1.865931e-01	8.254447e-01	0.0	-1.817989e-01	4.760287e-01	0.0	3.906794e-01	3.515554e+00	0.0	-3.592595e-01	3.020691e-01	0.0	-2.441749e-01	2.729064e-01	0.0	4.986550e-01	8.637672e-01	0.0	2.133887e+00	1.057260e+00	0.0	-1.648276e+00	3.024944e+00	0.0	-2.000893e+00	2.675253e+00	0.0	3.622437e-01	1.395556e+00	0.0	-2.480165e+00	1.308456e+00	0.0	6.003208e-01	1.341944e+00	0.0	-1.189911e+00	2.305963e-01	0.0	-1.299936e+00	4.888593e-01	0.0	-1.585996e+00	5.407815e-01	0.0	-1.029943e+00	4.556017e-01	0.0	-1.130463e+00	7.077543e-01	0.0	1.667693e+00	3.036264e+00	0.0	-4.370478e-02	1.595683e+00	0.0	3.851577e-01	8.871487e-01	0.0	-1.597698e-01	1.240799e+00	0.0	-1.711290e-01	9.171406e-01	0.0	2.858547e-01	8.169340e-01	0.0	-1.691696e-01	7.044524e-01	0.0	-5.574990e-01	1.704123e-01	0.0	5.708287e-01	1.181253e-01	0.0	9.718706e-01	1.917207e-01	0.0	-9.483914e-01	2.004371e-01	0.0	1.834424e+00	2.673080e-01	0.0	2.942376e-01	8.735947e-02	0.0	-2.824376e-01	9.609851e-02	0.0	-1.470880e+00	3.529129e+00	0.0	1.363957e-01	1.367155e+00	0.0	2.531325e+00	3.101467e+00	0.0	2.632782e-01	5.630369e-01	0.0	-1.827514e+00	3.051681e-01	0.0	-1.963610e+00	6.951172e-01	0.0	1.341479e+00	1.059974e+00	0.0	2.547036e-01	6.603344e-01	0.0	2.808323e-01	9.232819e-01	0.0	8.198817e-01	2.231410e+00	0.0	-2.519530e+00	2.531087e+00	0.0	1.461372e+00	3.510471e+00	0.0	-1.842467e-01	5.944037e-01	0.0	2.076091e-01	9.583386e-01	0.0	-2.449092e+00	3.079283e+00	0.0	-4.516679e-02	8.225534e-01	0.0	8.354509e-01	3.019041e-01	0.0	4.957037e-01	2.416070e+00	0.0	-8.161996e-01	3.395694e-01	0.0	-7.214621e-02	6.672793e-01	0.0	1.925411e-01	7.926094e-01	0.0	-2.136509e+00	1.062376e+00	0.0	1.610728e-01	6.422136e-01	0.0	-9.957968e-02	5.176509e-01	0.0	1.421202e-01	4.882620e-01	0.0	1.097730e+00	9.129428e-01	0.0	1.354208e-01	4.111837e-01	0.0	-1.092475e-01	2.744707e-01	0.0	1.235303e-01	2.645588e-01	0.0	2.008565e-01	2.991089e-01	0.0	-1.049991e-01	4.330452e-01	0.0	2.205626e-01	1.597835e-01	0.0	-2.095006e-01	1.741107e-01	0.0	-7.785664e-01	6.602513e-01	0.0	-1.879953e-01	1.124405e+00	0.0	2.129289e+00	7.203079e-01	0.0	5.189579e-01	1.171533e+00	0.0	1.806705e+00	1.126102e+00	0.0	8.021078e-02	1.050346e+00	0.0	7.228290e-01	5.307991e-01	0.0	-6.446600e-01	3.311071e-01	0.0	2.492596e-01	7.511053e-01	0.0	-2.578227e-02	1.021040e+00	0.0	1.170409e-01	1.135766e-01	0.0	-1.154257e-01	1.188300e-01	0.0	-1.914397e+00	1.797556e+00	0.0	-2.057497e+00	2.182316e+00	0.0	-4.402013e-01	1.123269e+00	0.0	-8.719156e-01	3.066425e+00	0.0	1.748597e-01	1.247883e+00	0.0	1.164409e+00	1.209249e+00	0.0	-5.308437e-01	2.899499e+00	0.0	9.079437e-01	9.314279e-01	0.0	7.675959e-01	2.561324e+00	0.0	5.872104e-01	3.132756e+00	0.0	-1.161171e+00	9.455417e-01	0.0	2.086751e+00	2.853933e+00	0.0	1.288401e+00	3.130639e
[...]
POINT_DATA 394

SCALARS Density float 1
LOOKUP_TABLE default
1.223748e+00	1.223946e+00	1.222234e+00	1.222041e+00	1.223541e+00	1.223758e+00	1.223256e+00	1.223610e+00	1.223593e+00	1.223607e+00	1.223654e+00	1.223683e+00	1.223758e+00	1.223763e+00	1.223772e+00	1.223753e+00	1.223784e+00	1.223805e+00	1.223842e+00	1.223864e+00	1.223886e+00	1.223929e+00	1.223907e+00	1.223976e+00	1.223900e+00	1.223989e+00	1.223902e+00	1.223917e+00	1.223915e+00	1.223896e+00	1.223880e+00	1.223838e+00	1.223832e+00	1.223747e+00	1.223827e+00	1.223049e+00	1.224817e+00	1.220548e+00	1.223886e+00	1.223492e+00	1.223526e+00	1.223481e+00	1.223437e+00	1.223414e+00	1.223416e+00	1.223421e+00	1.223444e+00	1.223474e+00	1.223413e+00	1.223629e+00	1.223415e+00	1.223518e+00	1.223439e+00	1.223374e+00	1.223330e+00	1.223301e+00	1.223209e+00	1.223248e+00	1.223243e+00	1.223368e+00	1.222898e+00	1.223487e+00	1.223173e+00	1.222970e+00	1.222849e+00	1.222944e+00	1.223082e+00	1.223108e+00	1.223236e+00	1.223279e+00	1.223367e+00	1.223423e+00	1.223503e+00	1.223558e+00	1.223593e+00	1.223595e+00	1.223299e+00	1.223743e+00	1.223794e+00	1.223185e+00	1.223461e+00	1.223789e+00	1.223849e+00	1.223295e+00	1.223651e+00	1.223304e+00	1.223530e+00	1.223311e+00	1.223447e+00	1.223877e+00	1.223909e+00	1.223409e+00	1.223570e+00	1.223629e+00	1.223529e+00	1.223921e+00	1.223048e+00	1.223747e+00	1.223617e+00	1.223114e+00	1.223941e+00	1.223501e+00	1.223289e+00	1.223740e+00	1.222984e+00	1.222965e+00	1.223128e+00	1.223126e+00	1.223086e+00	1.223064e+00	1.223051e+00	1.223288e+00	1.222957e+00	1.222988e+00	1.223036e+00	1.223184e+00	1.222939e+00	1.223214e+00	1.223168e+00	1.223271e+00	1.223210e+00	1.223257e+00	1.223471e+00	1.223355e+00	1.223166e+00	1.223043e+00	1.223278e+00	1.222987e+00	1.223183e+00	1.223435e+00	1.223529e+00	1.223546e+00	1.223489e+00	1.223630e+00	1.223687e+00	1.223587e+00	1.223678e+00	1.223664e+00	1.223275e+00	1.223260e+00	1.223303e+00	1.223550e+00	1.223338e+00	1.223251e+00	1.222227e+00	1.222161e+00	1.222874e+00	1.223064e+00	1.223431e+00	1.223726e+00	1.223724e+00	1.223774e+00	1.223774e+00	1.223792e+00	1.223686e+00	1.223230e+00	1.223072e+00	1.223333e+00	1.223552e+00	1.223207e+00	1.221969e+00	1.223274e+00	1.223129e+00	1.223050e+00	1.222837e+00	1.223268e+00	1.223244e+00	1.223159e+00	1.223179e+00	1.223750e+00	1.223763e+00	1.223821e+00	1.223803e+00	1.223695e+00	1.222956e+00	1.223505e+00	1.223487e+00	1.223448e+00	1.223378e+00	1.223151e+00	1.223328e+00	1.223380e+00	1.223285e+00	1.223675e+00	1.223153e+00	1.223419e+00	1.223097e+00	1.223749e+00	1.223847e+00	1.223869e+00	1.223907e+00	1.223756e+00	1.223658e+00	1.223711e+00	1.223420e+00	1.223479e+00	1.223266e+00	1.223881e+00	1.223348e+00	1.223038e+00	1.223178e+00	1.222956e+00	1.222949e+00	1.223055e+00	1.223018e+00	1.222995e+00	1.223923e+00	1.223596e+00	1.223551e+00	1.223536e+00	1.223601e+00	1.223578e+00	1.223641e+00	1.223871e+00	1.223212e+00	1.223498e+00	1.223495e+00	1.223370e+00	1.223391e+00	1.223411e+00	1.223645e+00	1.223170e+00	1.223421e+00	1.223852e+00	1.223380e+00	1.223407e+00	1.223441e+00	1.223722e+00	1.223099e+00	1.223098e+00	1.222941e+00	1.223306e+00	1.223308e+00	1.223663e+00	1.223454e+00	1.223372e+00	1.223028e+00	1.223708e+00	1.223956e+00	1.223414e+00	1.223877e+00	1.223919e+00	1.223304e+00	1.222949e+00	1.223570e+00	1.223608e+00	1.222782e+00	1.223693e+00	1.223115e+00	1.223824e+00	1.223855e+00	1.223725e+00	1.223820e+00	1.223764e+00	1.223274e+00	1.223513e+00	1.223356e+00	1.223453e+00	1.223705e+00	1.223553e+00	1.223842e+00	1.223932e+00	1.223362e+00	1.223255e+00	1.223854e+00	1.223006e+00	1.223522e+00	1.223958e+00	1.223568e+00	1.223128e+00	1.223165e+00	1.223489e+00	1.223791e+00	1.223736e+00	1.223047e+00	1.223444e+00	1.223252e+00	1.223227e+00	1.223648e+00	1.223240e+00	1.223800e+00	1.223302e+00	1.223634e+00	1.223968e+00	1.223250e+00	1.223350e+00	1.223842e+00	1.223837e+00	1.223532e+00	1.223710e+00	1.223515e+00	1.223828e+00	1.223443e+00	1.223107e+00	1.223455e+00	1.223907e+00	1.223463e+00	1.223412e+00	1.223835e+00	1.223387e+00	1.223949e+00	1.223820e+00	1.223646e+00	1.222987e+00	1.223133e+00	1.223311e+00	1.224483e+00	1.223306e+00	1.223917e+00	1.223446e+00	1.223479e+00	1.223452e+00	1.223922e+00	1.223659e+00	1.223663e+00	1.223703e+00	1.223534e+00	1.222867e+00	1.223139e+00	1.223491e+00	1.223089e+00	1.223251e+00	1.223311e+00	1.223797e+00	1.223310e+00	1.223243e+00	1.223935e+00	1.223592e+00	1.223524e+00	1.223088e+00	1.223589e+00	1.223172e+00	1.223192e+00	1.223879e+00	1.223331e+00	1.223368e+00	1.223383e+00	1.223377e+00	1.223768e+00	1.223270e+00	1.223319e+00	1.223652e+00	1.223234e+00	1.223758e+00	1.223325e+00	1.222493e+00	1.223785e+00	1.223819e+00	1.223431e+00	1.223459e+00	1.222836e+00	1.223648e+00	1.223189e+00	1.223624e+00	1.223859e+00	1.224947e+00	1.223930e+00	1.223758e+00	1.223379e+00	1.223310e+00	1.223579e+00	1.223440e+00	1.223836e+00	1.223038e+00	1.223937e+00	1.223172e+00	1.223081e+00	1.223602e+00	1.223188e+00	1.223593e+00	1.223345e+00	1.223825e+00	1.223814e+00	1.223715e+00	1.223372e+00	1.223375e+00	1.223951e+00	1.223585e+00	1.223499e+00	1.223152e+00	1.223659e+00	1.222927e+00	1.223477e+00	1.223165e+00	1.223403e+00	1.223493e+00	1.223781e+00	1.223006e+00	1.223495e+00	1.222828e+00	1.223327e+00	1.223102e+00	1.223756e+00	1.223025e+00	
SCALARS X-Momentum float 1
LOOKUP_TABLE default
8.092561e+00	2.608470e-01	4.986074e+00	6.113133e-01	-6.005484e-01	-5.072970e+00	1.647766e+01	1.001253e+01	9.854585e+00	9.614916e+00	9.321568e+00	8.980415e+00	8.646483e+00	8.316732e+00	7.914628e+00	7.573571e+00	7.060371e+00	6.419783e+00	5.706020e+00	4.914844e+00	4.065099e+00	3.271748e+00	2.415940e+00	1.614650e+00	8.617843e-01	-1.497769e-02	8.109304e-02	2.198078e-01	3.595523e-01	5.226829e-01	7.068813e-01	9.073559e-01	1.131972e+00	1.370283e+00	1.557333e+00	1.609615e+00	1.461068e+00	4.664618e+00	8.623538e-01	8.061046e-01	9.174796e-01	9.246812e-01	9.035209e-01	8.528631e-01	7.468165e-01	6.067038e-01	4.681278e-01	3.135747e-01	1.952735e-01	1.265773e-01	-1.877135e+00	-3.399327e+00	-4.722219e+00	-5.958392e+00	-6.995389e+00	-7.772780e+00	-8.348415e+00	-8.637121e+00	-8.175884e+00	-7.372423e+00	-6.562878e+00	-1.385759e+00	4.007025e+00	9.482514e+00	1.363747e+01	1.585016e+01	1.653634e+01	1.581719e+01	1.490005e+01	1.387400e+01	1.299744e+01	1.224949e+01	1.157643e+01	1.097985e+01	1.049433e+01	1.016847e+01	2.192476e+00	1.446693e+00	6.922180e+00	-5.911109e+00	8.861622e-01	1.830924e+00	4.681595e+00	-5.616717e+00	9.231692e+00	1.202909e+01	1.109712e+01	1.382694e+01	1.509682e-01	1.153931e+00	2.855407e+00	-4.158850e+00	1.253502e+00	2.266100e+00	-4.370910e-01	8.004395e-01	6.552239e-01	8.324098e+00	1.013476e+01	1.562450e+01	1.179030e+00	-1.951429e+00	-3.402659e+00	7.941312e+00	6.887361e+00	1.052085e+01	1.373494e+01	1.257493e+01	8.678683e+00	1.138396e+01	1.404692e+01	1.309222e+01	1.010595e+01	1.180738e+01	8.617325e+00	1.011621e+01	1.305043e+01	1.200207e+01	1.369457e+01	1.314812e+01	1.365524e+01	1.304660e+01	1.293139e+01	1.202982e+01	6.868670e+00	1.474152e+01	1.358623e+01	5.251564e+00	4.204018e+00	1.196876e+01	1.103696e+01	1.069335e+01	1.007281e+01	9.418431e+00	9.282881e+00	9.792778e+00	8.445348e+00	8.654961e+00	5.061310e+00	2.949893e+00	2.132825e+00	1.118583e+01	1.447566e+00	1.250609e+01	5.431289e+00	2.641396e+00	6.205711e+00	4.583173e+00	1.196140e+01	7.856312e+00	8.224552e+00	7.344096e+00	6.885225e+00	6.222415e+00	8.844643e+00	3.918095e-01	9.809730e-01	1.454190e-01	9.640692e+00	1.521130e+01	8.191157e+00	9.149481e+00	2.252133e+00	4.123975e+00	6.964830e+00	2.589764e+00	-1.080402e+00	-4.421571e-01	9.685078e+00	6.402145e+00	5.282642e+00	5.275689e+00	4.219043e+00	8.497683e+00	6.319040e+00	1.127207e+01	1.193071e+01	1.109824e+00	6.078472e-02	1.079487e+01	-1.111135e+00	-1.002145e+00	1.501342e+01	8.998604e+00	1.519188e+01	-2.291825e+00	-3.256943e+00	7.944374e+00	4.469835e+00	5.235776e+00	3.535445e+00	5.262116e+00	6.732151e+00	8.707739e+00	9.664750e-01	1.694176e+00	-2.453449e+00	3.141863e+00	1.425810e+01	-1.742935e+00	8.978469e-01	-1.013312e+00	2.316287e+00	5.332815e-01	9.309686e+00	8.731370e+00	3.794908e+00	8.458441e+00	1.060501e+01	1.079910e+01	1.023532e+01	1.042589e+01	9.870668e+00	2.487362e+00	1.022078e+01	1.129213e+01	8.616804e+00	1.278377e+01	1.260552e+01	1.355390e+01	9.383460e+00	3.575760e+00	1.184060e+01	4.244088e+00	-1.951336e+00	-7.080250e-01	-1.418813e+00	7.989419e+00	6.468956e+00	1.545551e+01	7.856045e+00	1.508044e+01	1.436331e+01	9.424001e+00	1.140879e-01	1.601691e-01	-6.096466e+00	3.939003e+00	2.271057e+00	1.285352e+01	2.931076e+00	2.023666e+00	2.167647e+00	3.411788e+00	1.016068e+01	9.770685e+00	1.111472e+01	8.690442e+00	9.271399e+00	6.280526e+00	6.839752e+00	7.397606e+00	6.168323e+00	6.884398e+00	1.530871e+01	1.174058e+01	2.129558e+00	9.190166e+00	4.453725e+00	1.783676e+00	3.105009e+00	3.784759e+00	-5.024497e+00	-5.850092e+00	5.529900e+00	-5.058308e+00	-3.113154e+00	1.964813e+00	1.055374e+01	1.177632e+01	1.614055e+01	7.796117e-01	7.500762e+00	7.955121e+00	4.293390e+00	1.228357e+00	1.868455e+00	1.464678e+01	9.514844e+00	1.471002e+01	2.654797e+00	1.193772e+00	9.816378e+00	2.398487e+00	-3.950132e+00	1.382202e+01	5.318501e+00	2.064001e+00	1.355111e+00	8.384071e+00	1.077382e+00	1.677901e+00	6.443694e-01	2.729727e+00	4.010123e-01	9.412664e-01	-1.127587e-01	-5.043914e-01	1.414242e+00	-1.605492e+00	1.470961e+00	5.962966e+00	7.558824e+00	-2.198820e-01	6.155432e+00	4.625632e+00	7.300500e+00	-1.116623e+00	4.543513e+00	1.551045e+00	5.424563e+00	-7.153280e-01	6.532985e-01	9.117760e+00	9.406562e+00	7.459922e+00	1.094703e+01	9.945221e+00	6.484237e+00	1.134422e+01	2.969510e+00	1.442944e+01	1.340354e+01	7.538728e+00	1.571354e+01	1.471979e+01	1.858784e+00	1.039568e+01	1.172037e+01	1.473979e+01	9.920275e+00	3.953049e+00	1.400323e+01	2.389088e+00	-3.352106e+00	1.424277e+01	-2.641541e+00	1.274035e+01	8.215947e+00	-3.810701e+00	1.205786e+01	9.306920e+00	2.696170e+00	7.391311e+00	-3.009740e+00	-3.603872e+00	8.136633e+00	3.278041e+00	4.017610e+00	1.038029e+01	7.639875e+00	8.158547e+00	1.069868e+01	9.775933e+00	3.208515e+00	3.010725e+00	1.654455e+00	7.791334e+00	-8.049618e-01	1.148897e+01	9.974257e+00	1.221944e+01	3.528432e+00	1.621052e+01	1.383632e+00	-3.774538e+00	-2.214547e+00	9.951538e+00	-2.425180e+00	1.060970e+01	1.102634e+01	5.797788e+00	5.811676e+00	9.016946e+00	-8.222282e-02	6.003174e-01	5.259884e-01	-8.919910e-01	1.255335e+01	1.405590e+01	3.010052e+00	1.216694e+01	7.933584e+00	1.528875e+01	9.662336e-01	1.138415e+01	6.341967e+00	7.176827e+00	1.530694e+00	5.442835e+00	1.322074e+01	7.259515e+00	2.494830e+00	7.478702e+00	
SCALARS Y-Momentum float 1
LOOKUP_TABLE default
-2.346795e-02	2.566190e-01	6.765240e+00	-4.374876e-01	5.779044e-01	2.227188e-01	6.690376e-02	-1.329224e-02	2.039459e-02	5.004928e-02	7.072344e-02	9.264756e-02	8.074377e-02	1.982181e-02	-3.903663e-03	1.531594e-04	5.823092e-03	3.746784e-03	9.487046e-03	1.107292e-02	-8.642551e-03	4.901574e-03	-1.305014e-03	6.773086e-03	-2.058993e-02	8.119420e-01	1.459882e+00	2.141109e+00	2.907240e+00	3.704769e+00	4.497833e+00	5.288341e+00	6.092850e+00	6.953861e+00	7.684381e+00	8.021554e+00	8.520371e+00	-8.681728e-01	1.984174e+00	2.961963e+00	3.785509e+00	4.359840e+00	4.691201e+00	4.821944e+00	4.726946e+00	4.423167e+00	3.965439e+00	3.345251e+00	2.588702e+00	1.625022e+00	-4.252688e-03	2.716232e-02	2.877540e-02	1.176611e-02	8.938760e-03	1.905174e-02	2.082709e-02	2.226039e-03	-5.307084e-02	-7.366535e-02	-9.771852e-02	-4.991747e-01	-5.413152e-01	-1.757124e-01	4.614879e-01	7.227380e-01	4.521127e-01	1.530255e-02	5.769722e-03	-2.160604e-03	-3.690263e-02	-2.315447e-02	-2.057890e-03	-4.671248e-03	4.214473e-03	-1.804458e-03	8.486678e+00	3.309704e+00	5.043449e-01	-2.268637e-01	4.508771e+00	5.335681e+00	7.496238e-01	6.214967e-01	4.336407e-01	2.263970e-01	5.135950e-01	8.909976e-01	3.847180e+00	3.095430e+00	7.364327e-01	8.662133e-01	4.156448e+00	6.829734e+00	2.674561e+00	1.721632e+00	-7.929654e-01	3.649492e-01	2.933374e-01	8.292139e-01	5.827325e-01	9.948459e-01	-5.955479e-01	2.741669e-01	-4.835826e-01	1.059607e-01	8.829088e-01	1.007114e+00	2.753109e-01	1.216142e+00	1.915778e+00	2.187545e+00	1.574750e+00	2.507546e+00	2.053852e+00	2.914320e+00	3.496788e+00	3.978921e+00	4.373621e+00	4.936416e+00	4.774691e+00	5.444626e+00	4.573814e+00	5.214283e+00	2.406239e+00	2.663274e+00	3.991302e+00	1.898964e+00	2.495218e+00	3.872446e+00	3.990905e+00	5.346557e+00	3.816427e+00	4.604369e+00	3.362958e+00	2.919848e+00	3.800232e+00	2.754555e+00	2.856813e+00	3.172124e+00	2.651319e+00	2.978722e+00	3.304832e+00	5.592580e+00	1.399078e+00	1.282047e+00	2.644258e+00	2.330554e+00	2.815215e+00	2.865930e+00	2.163493e+00	3.916297e+00	2.616978e+00	3.499511e+00	2.057421e+00	2.557896e+00	1.948256e+00	3.063992e+00	6.454921e+00	2.162057e+00	6.128809e+00	5.421830e+00	2.724199e+00	3.056534e+00	3.351080e+00	3.597701e+00	1.692423e+00	1.033685e+00	8.282656e+00	4.933525e+00	4.353384e+00	3.098238e+00	3.711637e+00	1.601065e+00	3.267458e+00	2.146991e+00	1.902588e+00	3.780158e+00	3.419950e+00	7.271522e+00	2.644996e+00	2.935346e+00	2.528358e+00	1.497893e+00	1.952389e+00	2.091086e+00	7.413895e-01	1.580762e+00	2.546544e+00	2.168495e+00	2.771347e+00	6.239396e+00	6.725019e+00	1.048789e+00	4.036658e+00	4.204025e+00	1.832662e+00	3.723009e+00	3.792771e+00	3.374602e-01	4.531500e-01	-6.622919e-02	-6.676912e-02	-6.018434e-01	3.983917e+00	3.511772e+00	1.845383e+00	5.163916e+00	2.241341e+00	1.612698e+00	1.656960e+00	1.166664e+00	1.157901e+00	2.835162e+00	8.571243e+00	7.630407e+00	9.469357e+00	2.606759e+00	1.491840e+00	2.226990e+00	1.862380e+00	3.404383e+00	1.116388e+00	5.137452e+00	2.333977e+00	3.224702e+00	2.562193e+00	9.647630e+00	9.879737e+00	1.732641e+00	7.582325e-01	9.687388e-01	1.917693e+00	1.332159e+00	3.733166e+00	3.943455e+00	1.330656e-01	6.629744e+00	3.812708e+00	7.076638e-01	1.996966e+00	2.010241e+00	3.884120e+00	-7.942211e-01	7.156683e-01	6.768065e-01	4.449885e+00	5.123094e-01	3.194048e+00	5.985646e-01	1.093476e+00	8.803466e-01	1.347940e+00	1.743497e+00	1.457492e+00	6.250733e+00	4.147431e+00	8.260198e+00	7.865387e+00	4.059946e+00	5.750479e+00	8.855016e-01	7.384994e-01	4.455030e-01	6.855954e-01	-4.227704e-01	1.002688e+00	6.896746e-01	3.859192e-01	6.452607e+00	9.757151e-01	4.176973e+00	4.102788e-01	7.057979e-01	6.326180e-01	4.254921e+00	3.674420e+00	3.244261e+00	4.051274e-01	8.070658e-01	4.724657e+00	2.446681e+00	3.046333e-01	7.783797e+00	1.112470e+00	3.179475e+00	1.393426e+00	6.060310e+00	3.733222e+00	7.634293e-01	4.402514e+00	4.590197e+00	4.437185e+00	1.338675e+00	4.206880e+00	2.397287e+00	3.344591e+00	3.268335e+00	3.808848e+00	2.002330e+00	1.350363e+00	2.518408e+00	8.516784e+00	-8.271402e-01	3.108068e+00	-3.821351e-01	4.435795e+00	2.244667e+00	1.592707e+00	4.137792e+00	1.037956e+01	1.859034e+00	1.066965e+00	1.084614e+00	8.386679e-01	5.339275e+00	1.054776e+00	5.016779e+00	1.346115e+00	1.441824e+00	2.093553e+00	2.689302e+00	1.435690e+00	2.045613e+00	1.393922e+00	1.448531e+00	3.190219e+00	2.952492e+00	5.093929e-01	1.607262e+00	2.222722e+00	3.389114e+00	3.065034e+00	1.372594e+00	1.511095e+00	3.829607e+00	1.752696e+00	3.571862e+00	1.138623e+00	1.322697e+00	6.718460e+00	2.509189e+00	3.860865e+00	1.400508e+00	-4.290590e-01	-4.486366e-01	1.246443e-01	8.011109e+00	9.456279e+00	7.861480e+00	3.499102e+00	6.814725e+00	3.873326e+00	1.621016e+00	1.356607e+00	1.000505e+01	2.569152e+00	1.109042e+00	2.795845e+00	5.153095e+00	1.242804e-01	7.038981e-01	4.532903e+00	4.816498e-01	1.995681e+00	1.903648e-02	-7.145377e-01	5.009887e-01	1.513148e+00	7.713191e-01	6.885415e+00	1.878087e+00	8.344366e+00	6.787785e-01	3.727328e+00	4.210144e+00	4.899283e-01	9.470545e-01	6.163105e+00	4.274897e+00	6.934213e+00	4.535533e+00	4.495499e+00	1.400047e+00	4.338891e+00	8.878204e-01	2.005176e+00	-3.999240e-01	4.226285e+00	1.489517e-01	3.345376e+00	8.512062e+00	5.385050e+00	2.768682e+00	
SCALARS Energy float 1
LOOKUP_TABLE default