# vtk DataFile Version 3.0
vtk output
ASCII
DATASET UNSTRUCTURED_GRID
POINTS 394 float
-3.000000e+00	0.000000e+00	0.0	-5.000000e-02	5.344820e-17	0.0	4.726301e-01	1.035503e+00	0.0	5.726824e-01	9.641822e-01	0.0	5.000000e-02	-1.023782e-17	0.0	3.000000e+00	0.000000e+00	0.0	3.000000e+00	4.000000e+00	0.0	-3.000000e+00	4.000000e+00	0.0	-3.000000e+00	3.428571e+00	0.0	-3.000000e+00	2.857143e+00	0.0	-3.000000e+00	2.285714e+00	0.0	-3.000000e+00	1.714286e+00	0.0	-3.000000e+00	1.142857e+00	0.0	-3.000000e+00	5.714286e-01	0.0	-2.473871e+00	0.000000e+00	0.0	-2.029066e+00	0.000000e+00	0.0	-1.653013e+00	0.000000e+00	0.0	-1.335087e+00	0.000000e+00	0.0	-1.066302e+00	0.000000e+00	0.0	-8.390627e-01	0.000000e+00	0.0	-6.469477e-01	0.000000e+00	0.0	-4.845277e-01	0.000000e+00	0.0	-3.472127e-01	0.000000e+00	0.0	-2.311224e-01	0.000000e+00	0.0	-1.329760e-01	0.000000e+00	0.0	-4.353892e-02	8.364558e-02	0.0	-2.793647e-02	1.665908e-01	0.0	-3.687524e-03	2.486585e-01	0.0	2.787239e-02	3.299155e-01	0.0	6.553162e-02	4.104147e-01	0.0	1.081485e-01	4.902075e-01	0.0	1.546652e-01	5.693601e-01	0.0	2.041430e-01	6.479559e-01	0.0	2.557871e-01	7.260903e-01	0.0	3.089552e-01	8.038428e-01	0.0	3.630943e-01	8.812931e-01	0.0	4.178190e-01	9.584553e-01	0.0	5.226574e-01	9.998889e-01	0.0	5.177655e-01	8.873425e-01	0.0	4.631020e-01	8.106343e-01	0.0	4.089539e-01	7.342063e-01	0.0	3.557941e-01	6.581048e-01	0.0	3.041550e-01	5.823949e-01	0.0	2.546836e-01	5.071592e-01	0.0	2.081722e-01	4.324915e-01	0.0	1.655606e-01	3.584769e-01	0.0	1.279056e-01	2.851820e-01	0.0	9.635003e-02	2.126590e-01	0.0	7.211080e-02	1.409522e-01	0.0	5.642646e-02	7.009135e-02	0.0	1.329760e-01	0.000000e+00	0.0	2.311224e-01	0.000000e+00	0.0	3.472127e-01	0.000000e+00	0.0	4.845277e-01	0.000000e+00	0.0	6.469477e-01	0.000000e+00	0.0	8.390627e-01	0.000000e+00	0.0	1.066302e+00	0.000000e+00	0.0	1.335087e+00	0.000000e+00	0.0	1.653013e+00	0.000000e+00	0.0	2.029066e+00	0.000000e+00	0.0	2.473871e+00	0.000000e+00	0.0	3.000000e+00	5.714286e-01	0.0	3.000000e+00	1.142857e+00	0.0	3.000000e+00	1.714286e+00	0.0	3.000000e+00	2.285714e+00	0.0	3.000000e+00	2.857143e+00	0.0	3.000000e+00	3.428571e+00	0.0	2.400000e+00	4.000000e+00	0.0	1.800000e+00	4.000000e+00	0.0	1.200000e+00	4.000000e+00	0.0	6.000000e-01	4.000000e+00	0.0	0.000000e+00	4.000000e+00	0.0	-6.000000e-01	4.000000e+00	0.0	-1.200000e+00	4.000000e+00	0.0	-1.800000e+00	4.000000e+00	0.0	-2.400000e+00	4.000000e+00	0.0	2.868246e-01	9.442663e-01	0.0	5.379400e-01	8.314301e-01	0.0	-1.459432e+00	2.959905e-01	0.0	1.547891e+00	1.787411e-01	0.0	3.234313e-01	5.245998e-01	0.0	8.851474e-02	6.337993e-01	0.0	-7.224695e-01	2.086515e-01	0.0	7.887616e-01	1.122525e-01	0.0	-2.533862e+00	2.110072e+00	0.0	2.623238e+00	1.899942e+00	0.0	-8.125019e-01	3.528994e+00	0.0	1.066679e+00	3.444296e+00	0.0	2.058153e-01	3.098357e-01	0.0	-3.393504e-02	3.849239e-01	0.0	-3.989975e-01	1.429999e-01	0.0	4.403746e-01	8.197623e-02	0.0	4.286816e-01	6.736882e-01	0.0	1.823936e-01	7.919926e-01	0.0	1.582903e-01	1.713948e-01	0.0	-8.885007e-02	2.203074e-01	0.0	2.579892e+00	7.482933e-01	0.0	-2.474727e+00	8.284634e-01	0.0	-2.007366e+00	3.476554e+00	0.0	2.143071e+00	3.413600e+00	0.0	-1.767469e-01	8.835160e-02	0.0	1.939520e-01	6.218519e-02	0.0	2.271004e+00	3.402036e-01	0.0	-2.236115e+00	3.853499e-01	0.0	2.579252e+00	1.336336e+00	0.0	2.266265e+00	1.623940e+00	0.0	2.252101e+00	2.054274e+00	0.0	1.962701e+00	1.776489e+00	0.0	1.930694e+00	1.356277e+00	0.0	1.700497e+00	1.561962e+00	0.0	1.677069e+00	1.925272e+00	0.0	1.469958e+00	1.708566e+00	0.0	1.469074e+00	1.395637e+00	0.0	1.281265e+00	1.525442e+00	0.0	1.277378e+00	1.265208e+00	0.0	1.108656e+00	1.353062e+00	0.0	1.089631e+00	1.632388e+00	0.0	9.422392e-01	1.493082e+00	0.0	8.981242e-01	1.741573e+00	0.0	7.547425e-01	1.631512e+00	0.0	6.966743e-01	1.854233e+00	0.0	5.586875e-01	1.742980e+00	0.0	4.745466e-01	1.968226e+00	0.0	3.252564e-01	1.813664e+00	0.0	1.123617e+00	1.130829e+00	0.0	1.412776e+00	2.061762e+00	0.0	6.708282e-01	2.122396e+00	0.0	1.235920e+00	1.008619e+00	0.0	1.077677e+00	9.386886e-01	0.0	2.066267e-01	2.095794e+00	0.0	-7.841388e-03	1.957042e+00	0.0	1.141374e-01	1.684527e+00	0.0	-2.475921e-01	1.821770e+00	0.0	-1.688092e-01	1.589235e+00	0.0	-4.868199e-01	1.670781e+00	0.0	-5.161610e-01	1.903306e+00	0.0	-4.284671e-01	1.436023e+00	0.0	-7.608612e-01	1.506943e+00	0.0	9.826980e-01	1.030959e+00	0.0	9.372371e-01	8.574796e-01	0.0	1.022444e+00	7.599400e-01	0.0	-1.097634e-01	2.243079e+00	0.0	8.667407e-01	6.832511e-01	0.0	6.174078e-01	1.510927e+00	0.0	5.286431e-01	1.053852e+00	0.0	5.893034e-01	1.012089e+00	0.0	5.580213e-01	1.100185e+00	0.0	6.236196e-01	1.079430e+00	0.0	1.392431e-01	2.409103e+00	0.0	-7.254754e-01	1.245493e+00	0.0	-1.055352e+00	1.319309e+00	0.0	-4.063816e-01	1.175769e+00	0.0	-7.638280e-01	9.657234e-01	0.0	-4.655153e-01	9.465523e-01	0.0	-1.095760e+00	1.616103e+00	0.0	9.517610e-01	5.876243e-01	0.0	1.120556e+00	6.565354e-01	0.0	7.884185e-01	5.300032e-01	0.0	1.025058e-01	1.457582e+00	0.0	1.627283e+00	2.297838e+00	0.0	4.802188e-01	1.120363e+00	0.0	5.196877e-01	1.180738e+00	0.0	6.420775e-01	9.835606e-01	0.0	6.935350e-01	1.056764e+00	0.0	6.622958e-01	1.154119e+00	0.0	7.053774e-01	9.496280e-01	0.0	1.044962e+00	4.846249e-01	0.0	1.250405e+00	5.741349e-01	0.0	4.173345e-01	1.200661e+00	0.0	-2.039952e-01	1.061672e+00	0.0	-2.507971e-01	8.834284e-01	0.0	-4.710504e-01	7.410480e-01	0.0	-2.616347e-01	7.073870e-01	0.0	-1.406568e+00	1.402720e+00	0.0	7.549047e-01	1.141255e+00	0.0	-2.193620e-01	2.560618e+00	0.0	4.821529e-02	2.769826e+00	0.0	7.126342e-01	6.081888e-01	0.0	6.314011e-01	4.722182e-01	0.0	4.698933e-01	1.279550e+00	0.0	7.077879e-01	3.955907e-01	0.0	5.493094e-01	3.481131e-01	0.0	1.328315e+00	2.450569e+00	0.0	-1.458936e+00	1.733723e+00	0.0	1.555074e+00	2.693260e+00	0.0	6.232273e-01	2.741444e-01	0.0	1.147874e+00	3.284673e-01	0.0	-1.353119e+00	1.107077e+00	0.0	-4.616697e-01	5.561016e-01	0.0	-6.300268e-01	5.863478e-01	0.0	-3.106026e-01	5.149816e-01	0.0	-1.097386e-02	1.001036e+00	0.0	-6.329428e-04	1.149389e+00	0.0	-1.882062e+00	1.497158e+00	0.0	5.633443e-01	5.479588e-01	0.0	6.544360e-01	6.831094e-01	0.0	7.930120e-01	3.160906e-01	0.0	-1.521491e-01	6.120680e-01	0.0	1.026025e+00	1.919486e+00	0.0	1.382527e+00	4.904348e-01	0.0	1.454876e+00	6.955362e-01	0.0	1.606589e+00	5.621078e-01	0.0	1.694882e+00	8.314062e-01	0.0	1.911185e+00	7.043413e-01	0.0	7.010430e-01	1.253176e+00	0.0	8.103138e-01	1.237341e+00	0.0	-4.583868e-01	3.798460e-01	0.0	-1.558275e-01	1.398164e+00	0.0	-4.881122e-01	2.361092e+00	0.0	-6.237888e-01	2.707574e+00	0.0	-9.224024e-01	2.496546e+00	0.0	-1.050053e+00	2.845646e+00	0.0	-1.433443e+00	2.531675e+00	0.0	-1.818918e-01	4.553109e-01	0.0	3.429398e-01	1.296768e+00	0.0	3.911205e-01	1.397288e+00	0.0	2.950006e-01	1.208100e+00	0.0	4.517696e-01	2.566438e+00	0.0	3.581657e-01	3.030400e+00	0.0	7.405017e-01	2.764379e+00	0.0	-1.137854e+00	1.944336e+00	0.0	8.619246e-01	9.483461e-01	0.0	-1.097249e-01	3.184107e+00	0.0	-8.355122e-02	8.426728e-01	0.0	4.691147e-01	2.365406e-01	0.0	3.802611e-01	3.014684e-01	0.0	3.315613e-01	2.087304e-01	0.0	3.693761e-01	1.133753e+00	0.0	2.535075e-01	1.117838e+00	0.0	1.888166e+00	2.543070e+00	0.0	1.631473e+00	1.238351e+00	0.0	2.559079e+00	2.475315e+00	0.0	1.154070e+00	2.879631e+00	0.0	-1.522211e+00	2.095392e+00	0.0	4.645749e-01	4.162480e-01	0.0	3.340291e-01	3.803111e-01	0.0	1.253544e+00	1.590768e-01	0.0	7.447320e-02	9.083012e-01	0.0	-7.098351e-02	5.361296e-01	0.0	5.060076e-01	3.524840e+00	0.0	-3.147249e-01	3.546227e-01	0.0	-2.023133e-01	3.173245e-01	0.0	7.993297e-01	7.863919e-01	0.0	2.249656e+00	9.750191e-01	0.0	-1.557229e+00	3.054472e+00	0.0	-1.917997e+00	2.708249e+00	0.0	7.476753e-01	1.370437e+00	0.0	-2.438612e+00	1.353310e+00	0.0	9.582436e-01	1.284568e+00	0.0	-1.170952e+00	2.684556e-01	0.0	-1.252288e+00	5.560068e-01	0.0	-1.543023e+00	6.042480e-01	0.0	-9.765045e-01	5.354298e-01	0.0	-1.050714e+00	8.015776e-01	0.0	1.812909e+00	3.007402e+00	0.0	3.356931e-01	1.630065e+00	0.0	7.084308e-01	8.240667e-01	0.0	2.043819e-01	1.306528e+00	0.0	1.237325e-01	9.962481e-01	0.0	5.837371e-01	7.528582e-01	0.0	3.932659e-02	7.805045e-01	0.0	-5.396205e-01	2.120074e-01	0.0	5.967307e-01	9.070550e-02	0.0	1.015798e+00	1.455517e-01	0.0	-9.303517e-01	2.409895e-01	0.0	1.873896e+00	2.251009e-01	0.0	3.096032e-01	7.181854e-02	0.0	-2.728576e-01	1.144930e-01	0.0	-1.408222e+00	3.545165e+00	0.0	5.313236e-01	1.378561e+00	0.0	2.581515e+00	3.089914e+00	0.0	4.421666e-01	4.963708e-01	0.0	-1.812366e+00	3.382269e-01	0.0	-1.921073e+00	7.570121e-01	0.0	1.546032e+00	9.612762e-01	0.0	4.799213e-01	5.987502e-01	0.0	6.347520e-01	8.741943e-01	0.0	1.118931e+00	2.205229e+00	0.0	-2.478866e+00	2.555446e+00	0.0	1.559819e+00	3.496512e+00	0.0	-2.134825e-02	6.659262e-01	0.0	5.884114e-01	9.225279e-01	0.0	-2.409437e+00	3.090792e+00	0.0	2.329873e-01	8.672572e-01	0.0	9.136373e-01	2.360532e-01	0.0	7.946942e-01	2.407499e+00	0.0	-7.740409e-01	4.044424e-01	0.0	1.317521e-01	7.138968e-01	0.0	4.819644e-01	7.498164e-01	0.0	-2.081209e+00	1.124857e+00	0.0	3.743090e-01	6.024377e-01	0.0	3.738412e-02	5.628635e-01	0.0	2.814883e-01	4.510450e-01	0.0	1.316081e+00	8.061906e-01	0.0	2.399834e-01	3.776343e-01	0.0	-6.149241e-02	3.002277e-01	0.0	1.755870e-01	2.403808e-01	0.0	2.669079e-01	2.605289e-01	0.0	-4.243636e-03	4.715881e-01	0.0	2.497650e-01	1.345200e-01	0.0	-1.867388e-01	2.019496e-01	0.0	-6.818214e-01	7.565951e-01	0.0	1.556843e-01	1.200284e+00	0.0	2.205352e+00	6.472284e-01	0.0	8.773132e-01	1.113209e+00	0.0	1.965340e+00	1.032229e+00	0.0	4.762859e-01	1.073873e+00	0.0	8.739553e-01	4.457609e-01	0.0	-6.003693e-01	3.946667e-01	0.0	5.179059e-01	6.941367e-01	0.0	3.331824e-01	1.064101e+00	0.0	1.305002e-01	1.024185e-01	0.0	-1.036397e-01	1.310445e-01	0.0	-1.808853e+00	1.866337e+00	0.0	-1.967027e+00	2.238944e+00	0.0	-1.554345e-01	1.226345e+00	0.0	-7.296032e-01	3.095380e+00	0.0	5.765821e-01	1.250432e+00	0.0	1.418041e+00	1.111524e+00	0.0	-3.517216e-01	2.935233e+00	0.0	1.157457e+00	8.303617e-01	0.0	1.032408e+00	2.541062e+00	0.0	7.744864e-01	3.128984e+00	0.0	-1.051328e+00	1.044224e+00	0.0	2.206525e+00	2.818882e+00	0.0	1.444863e+00	3.104180e+00	0.0	-9.375067e-02	4.461
[...]
POINT_DATA 394

SCALARS Density float 1
LOOKUP_TABLE default
1.223705e+00	1.223909e+00	1.221454e+00	1.221987e+00	1.223415e+00	1.223601e+00	1.223278e+00	1.223582e+00	1.223567e+00	1.223578e+00	1.223619e+00	1.223643e+00	1.223706e+00	1.223712e+00	1.223720e+00	1.223709e+00	1.223737e+00	1.223754e+00	1.223794e+00	1.223818e+00	1.223834e+00	1.223904e+00	1.223867e+00	1.223984e+00	1.223855e+00	1.224033e+00	1.223860e+00	1.223862e+00	1.223840e+00	1.223788e+00	1.223754e+00	1.223693e+00	1.223680e+00	1.223585e+00	1.223669e+00	1.222899e+00	1.224766e+00	1.219668e+00	1.223810e+00	1.223336e+00	1.223398e+00	1.223393e+00	1.223347e+00	1.223320e+00	1.223311e+00	1.223308e+00	1.223321e+00	1.223348e+00	1.223277e+00	1.223467e+00	1.223276e+00	1.223366e+00	1.223303e+00	1.223249e+00	1.223207e+00	1.223171e+00	1.223090e+00	1.223074e+00	1.223077e+00	1.223217e+00	1.222747e+00	1.223336e+00	1.223076e+00	1.222895e+00	1.222828e+00	1.222950e+00	1.223092e+00	1.223110e+00	1.223252e+00	1.223288e+00	1.223369e+00	1.223414e+00	1.223489e+00	1.223538e+00	1.223569e+00	1.223571e+00	1.222883e+00	1.223745e+00	1.223745e+00	1.223027e+00	1.223360e+00	1.223669e+00	1.223821e+00	1.223140e+00	1.223614e+00	1.223312e+00	1.223508e+00	1.223304e+00	1.223321e+00	1.223813e+00	1.223892e+00	1.223248e+00	1.223483e+00	1.223466e+00	1.223391e+00	1.223881e+00	1.223016e+00	1.223702e+00	1.223589e+00	1.223126e+00	1.223941e+00	1.223347e+00	1.223151e+00	1.223694e+00	1.222993e+00	1.222877e+00	1.223101e+00	1.223103e+00	1.223018e+00	1.223007e+00	1.223012e+00	1.223274e+00	1.222790e+00	1.222853e+00	1.222948e+00	1.223054e+00	1.222836e+00	1.223133e+00	1.223125e+00	1.223245e+00	1.223155e+00	1.223218e+00	1.223425e+00	1.223307e+00	1.222867e+00	1.223019e+00	1.223242e+00	1.222771e+00	1.222947e+00	1.223394e+00	1.223487e+00	1.223487e+00	1.223421e+00	1.223559e+00	1.223628e+00	1.223525e+00	1.223599e+00	1.223610e+00	1.223081e+00	1.223002e+00	1.223126e+00	1.223491e+00	1.223170e+00	1.223169e+00	1.221050e+00	1.221578e+00	1.222764e+00	1.222723e+00	1.223407e+00	1.223679e+00	1.223664e+00	1.223711e+00	1.223728e+00	1.223737e+00	1.223628e+00	1.223078e+00	1.222890e+00	1.223187e+00	1.223496e+00	1.223187e+00	1.221663e+00	1.223122e+00	1.222584e+00	1.222699e+00	1.222495e+00	1.222966e+00	1.223113e+00	1.223011e+00	1.223130e+00	1.223670e+00	1.223723e+00	1.223749e+00	1.223721e+00	1.223662e+00	1.222578e+00	1.223458e+00	1.223451e+00	1.223321e+00	1.223245e+00	1.223046e+00	1.223211e+00	1.223273e+00	1.223284e+00	1.223630e+00	1.223169e+00	1.223249e+00	1.223015e+00	1.223704e+00	1.223792e+00	1.223815e+00	1.223895e+00	1.223578e+00	1.223533e+00	1.223670e+00	1.223304e+00	1.223386e+00	1.223156e+00	1.223767e+00	1.223361e+00	1.222864e+00	1.223056e+00	1.222824e+00	1.222798e+00	1.222954e+00	1.222783e+00	1.222789e+00	1.223847e+00	1.223488e+00	1.223521e+00	1.223503e+00	1.223561e+00	1.223549e+00	1.223601e+00	1.223806e+00	1.223098e+00	1.223464e+00	1.223415e+00	1.223331e+00	1.223367e+00	1.223386e+00	1.223604e+00	1.222843e+00	1.223407e+00	1.223732e+00	1.223253e+00	1.223274e+00	1.223313e+00	1.223569e+00	1.223091e+00	1.223099e+00	1.222793e+00	1.223287e+00	1.223301e+00	1.223623e+00	1.223349e+00	1.223225e+00	1.222899e+00	1.223549e+00	1.223887e+00	1.223407e+00	1.223865e+00	1.223890e+00	1.223071e+00	1.222792e+00	1.223545e+00	1.223582e+00	1.222607e+00	1.223651e+00	1.222850e+00	1.223782e+00	1.223800e+00	1.223677e+00	1.223774e+00	1.223698e+00	1.223266e+00	1.223438e+00	1.223140e+00	1.223380e+00	1.223642e+00	1.223412e+00	1.223738e+00	1.223921e+00	1.223226e+00	1.223117e+00	1.223816e+00	1.222887e+00	1.223376e+00	1.223952e+00	1.223548e+00	1.223031e+00	1.223165e+00	1.223383e+00	1.223745e+00	1.223696e+00	1.222942e+00	1.223336e+00	1.222995e+00	1.223213e+00	1.223618e+00	1.223244e+00	1.223687e+00	1.223081e+00	1.223603e+00	1.223963e+00	1.223116e+00	1.223345e+00	1.223775e+00	1.223728e+00	1.223356e+00	1.223667e+00	1.223414e+00	1.223715e+00	1.223341e+00	1.222934e+00	1.223337e+00	1.223865e+00	1.223329e+00	1.223257e+00	1.223743e+00	1.223232e+00	1.223918e+00	1.223723e+00	1.223519e+00	1.222806e+00	1.222898e+00	1.223201e+00	1.225585e+00	1.223163e+00	1.223853e+00	1.223281e+00	1.223383e+00	1.223300e+00	1.223899e+00	1.223617e+00	1.223624e+00	1.223583e+00	1.223503e+00	1.222684e+00	1.222993e+00	1.223466e+00	1.222879e+00	1.223234e+00	1.223290e+00	1.223732e+00	1.223298e+00	1.223245e+00	1.223841e+00	1.223539e+00	1.223504e+00	1.223080e+00	1.223542e+00	1.222802e+00	1.223150e+00	1.223836e+00	1.223207e+00	1.223360e+00	1.223263e+00	1.223354e+00	1.223709e+00	1.223171e+00	1.223261e+00	1.223611e+00	1.222912e+00	1.223712e+00	1.223175e+00	1.222313e+00	1.223727e+00	1.223653e+00	1.223120e+00	1.223348e+00	1.222319e+00	1.223578e+00	1.223104e+00	1.223578e+00	1.223757e+00	1.225517e+00	1.223846e+00	1.223704e+00	1.223257e+00	1.223172e+00	1.223562e+00	1.223415e+00	1.223711e+00	1.223039e+00	1.223875e+00	1.223017e+00	1.222924e+00	1.223564e+00	1.222990e+00	1.223559e+00	1.223278e+00	1.223768e+00	1.223694e+00	1.223676e+00	1.223263e+00	1.223273e+00	1.223924e+00	1.223455e+00	1.223489e+00	1.223127e+00	1.223446e+00	1.222685e+00	1.223360e+00	1.223153e+00	1.223293e+00	1.223457e+00	1.223717e+00	1.222926e+00	1.223392e+00	1.222678e+00	1.223270e+00	1.222872e+00	1.223557e+00	1.222773e+00	
SCALARS X-Momentum float 1
LOOKUP_TABLE default
8.885628e+00	4.423624e-01	7.068141e+00	-4.315203e-02	-5.646231e-01	-4.096885e+00	1.615795e+01	1.036767e+01	1.024425e+01	1.005296e+01	9.816756e+00	9.543846e+00	9.289928e+00	9.048841e+00	8.743606e+00	8.456896e+00	8.026119e+00	7.463158e+00	6.818505e+00	6.071849e+00	5.214355e+00	4.364057e+00	3.352559e+00	2.335104e+00	1.312782e+00	1.215586e-01	5.888223e-01	1.239728e+00	1.971426e+00	2.743140e+00	3.483669e+00	4.171615e+00	4.827796e+00	5.439360e+00	5.864842e+00	5.820365e+00	5.424126e+00	3.765496e+00	1.066082e+00	1.268230e+00	1.758654e+00	2.056983e+00	2.225790e+00	2.272335e+00	2.144409e+00	1.867738e+00	1.496406e+00	1.052829e+00	6.317516e-01	2.865810e-01	-1.875902e+00	-3.412424e+00	-4.701677e+00	-5.828143e+00	-6.721439e+00	-7.392075e+00	-7.854565e+00	-8.072215e+00	-7.617993e+00	-6.717669e+00	-5.751003e+00	-2.585895e-01	5.158194e+00	1.038877e+01	1.411794e+01	1.592395e+01	1.634592e+01	1.547169e+01	1.461016e+01	1.366561e+01	1.287520e+01	1.221803e+01	1.165339e+01	1.116010e+01	1.075649e+01	1.048985e+01	6.050164e+00	2.089705e+00	7.928833e+00	-5.427758e+00	2.181610e+00	5.053599e+00	5.944170e+00	-5.186741e+00	9.759139e+00	1.246068e+01	1.132520e+01	1.376435e+01	1.198874e+00	3.047123e+00	4.029957e+00	-3.889651e+00	2.309421e+00	6.050385e+00	1.125353e-01	1.778311e+00	1.389206e+00	9.057211e+00	1.048996e+01	1.541931e+01	1.892115e+00	-1.785768e+00	-2.777206e+00	8.758827e+00	7.476950e+00	1.076899e+01	1.389076e+01	1.268875e+01	8.752510e+00	1.139052e+01	1.414347e+01	1.318571e+01	1.002687e+01	1.189247e+01	8.421430e+00	1.014039e+01	1.347260e+01	1.256176e+01	1.441621e+01	1.411493e+01	1.449235e+01	1.413178e+01	1.373757e+01	1.303681e+01	6.558862e+00	1.493062e+01	1.417505e+01	4.937926e+00	4.006772e+00	1.265245e+01	1.183393e+01	1.185167e+01	1.096911e+01	1.061836e+01	1.025261e+01	1.056602e+01	9.724589e+00	9.623977e+00	4.792427e+00	3.007810e+00	2.285968e+00	1.175987e+01	2.007756e+00	1.379659e+01	5.513635e+00	2.269319e+00	6.482925e+00	4.479037e+00	1.243209e+01	9.023923e+00	9.153814e+00	8.924303e+00	8.211773e+00	7.946155e+00	9.630857e+00	8.996583e-01	1.149371e+00	9.871015e-01	1.122373e+01	1.529283e+01	9.748828e+00	1.058309e+01	2.115741e+00	3.935745e+00	7.263876e+00	2.661084e+00	-6.589795e-01	-2.373992e-01	1.179826e+01	8.519459e+00	7.530978e+00	7.036490e+00	6.424863e+00	9.282667e+00	6.261857e+00	1.169759e+01	1.225316e+01	2.074314e+00	1.092838e+00	1.265111e+01	-2.539474e-01	-8.551665e-02	1.515471e+01	9.671724e+00	1.520525e+01	-1.580663e+00	-2.838389e+00	8.844327e+00	6.143032e+00	6.709693e+00	5.406382e+00	8.022872e+00	9.095932e+00	9.390497e+00	2.096149e+00	2.701820e+00	-1.777529e+00	5.496115e+00	1.477129e+01	-1.456480e+00	9.910270e-01	-7.569101e-01	2.423195e+00	8.424279e-01	9.979453e+00	8.979277e+00	5.304813e+00	9.998770e+00	1.112928e+01	1.120491e+01	1.072236e+01	1.082729e+01	1.035434e+01	4.440803e+00	1.229203e+01	1.307652e+01	1.107226e+01	1.314362e+01	1.278674e+01	1.374534e+01	1.003698e+01	3.470790e+00	1.205347e+01	7.024485e+00	-1.251536e+00	2.059125e-01	-7.689907e-01	1.056946e+01	9.394116e+00	1.544967e+01	7.757652e+00	1.520422e+01	1.441717e+01	1.000043e+01	1.209651e+00	1.305609e+00	-5.606075e+00	7.226877e+00	4.685531e+00	1.287182e+01	4.491431e+00	3.527555e+00	2.714672e+00	3.770252e+00	1.055205e+01	1.022224e+01	1.200096e+01	9.339351e+00	9.375057e+00	7.387473e+00	7.907642e+00	8.346082e+00	7.382666e+00	8.032791e+00	1.521684e+01	1.302872e+01	2.798859e+00	1.127166e+01	7.803026e+00	2.703845e+00	6.333185e+00	5.081748e+00	-4.663320e+00	-5.406692e+00	6.733802e+00	-4.546716e+00	-2.909030e+00	2.946482e+00	1.085002e+01	1.341067e+01	1.601728e+01	1.974211e+00	8.407028e+00	8.783943e+00	4.224066e+00	2.381502e+00	2.428910e+00	1.498097e+01	9.989656e+00	1.455167e+01	5.510857e+00	1.445377e+00	1.023052e+01	6.368210e+00	-3.431629e+00	1.418398e+01	6.642374e+00	5.593780e+00	2.174882e+00	9.116602e+00	2.282886e+00	4.511015e+00	1.946014e+00	2.622757e+00	1.619213e+00	2.352297e+00	7.026254e-01	3.510206e-01	3.788418e+00	-1.195581e+00	2.531596e+00	7.426515e+00	1.000849e+01	2.192335e-01	5.936340e+00	4.780524e+00	8.454366e+00	-4.272948e-01	5.959450e+00	2.581555e+00	8.582477e+00	-4.201771e-01	1.257519e+00	9.721093e+00	9.935356e+00	9.317066e+00	1.126475e+01	1.119017e+01	6.278292e+00	1.165790e+01	2.848546e+00	1.463415e+01	1.346994e+01	8.598125e+00	1.564234e+01	1.466017e+01	3.928649e+00	1.107293e+01	1.185670e+01	1.480862e+01	1.054496e+01	3.759689e+00	1.429663e+01	3.652143e+00	-2.848079e+00	1.472630e+01	-2.194778e+00	1.330877e+01	9.010960e+00	-3.267202e+00	1.357499e+01	1.009031e+01	2.894228e+00	8.389982e+00	-2.614733e+00	-2.734994e+00	8.916887e+00	7.009413e+00	7.473488e+00	1.220224e+01	8.341756e+00	1.011534e+01	1.123462e+01	1.032957e+01	4.568901e+00	6.719770e+00	3.358869e+00	8.677995e+00	-1.582017e-01	1.279292e+01	1.034355e+01	1.232057e+01	6.223066e+00	1.594173e+01	2.722374e+00	-3.364022e+00	-1.764744e+00	1.035673e+01	-1.874157e+00	1.094169e+01	1.255018e+01	7.146290e+00	8.728683e+00	9.605034e+00	9.688046e-01	1.821856e+00	9.005065e-01	-7.781173e-01	1.383572e+01	1.468887e+01	6.609200e+00	1.305653e+01	9.502787e+00	1.532380e+01	2.192928e+00	1.161983e+01	7.634723e+00	7.426747e+00	2.618030e+00	5.429913e+00	1.368012e+01	9.403970e+00	5.684613e+00	7.232050e+00	
SCALARS Y-Momentum float 1
LOOKUP_TABLE default
-1.791530e-02	4.365529e-01	4.876879e+00	-8.631415e-01	5.329217e-01	2.341002e-01	6.226374e-02	-1.208177e-02	1.374742e-02	3.980410e-02	5.515673e-02	7.199187e-02	6.031821e-02	1.077600e-02	-3.341868e-03	-7.139508e-05	7.062404e-03	6.181272e-03	1.224982e-02	1.486049e-02	1.681333e-03	3.006210e-02	1.350879e-02	8.487681e-03	-3.483818e-02	1.422309e+00	2.539615e+00	3.560438e+00	4.553787e+00	5.435035e+00	6.191892e+00	6.847953e+00	7.446353e+00	8.056653e+00	8.441834e+00	8.427182e+00	8.364864e+00	-2.726110e+00	9.096169e-01	1.639622e+00	2.343820e+00	2.909639e+00	3.285717e+00	3.510553e+00	3.554375e+00	3.423560e+00	3.146271e+00	2.720943e+00	2.182260e+00	1.433483e+00	-4.208303e-05	3.759685e-02	2.534709e-02	8.951833e-03	2.366588e-03	6.349509e-03	9.788055e-03	3.873751e-03	-3.913945e-02	-6.364617e-02	-1.014907e-01	-5.249498e-01	-4.768926e-01	3.225276e-02	7.111112e-01	8.971300e-01	5.140756e-01	9.906492e-03	-6.039891e-04	-9.083615e-03	-3.906005e-02	-2.611034e-02	-5.595860e-03	-5.793716e-03	1.440708e-03	-3.405838e-03	8.691906e+00	2.095650e+00	4.938498e-01	-2.053206e-01	3.134912e+00	6.560822e+00	9.043736e-01	4.129750e-01	3.677141e-01	3.669424e-01	4.175638e-01	8.357957e-01	2.922422e+00	4.513814e+00	1.042109e+00	5.990877e-01	2.703852e+00	7.652617e+00	2.123443e+00	2.790453e+00	-8.487233e-01	3.133902e-01	2.384002e-01	8.321711e-01	9.275843e-01	8.200200e-01	-6.274864e-01	2.405168e-01	-4.600155e-01	7.288252e-02	9.172499e-01	8.404980e-01	3.856065e-02	8.030523e-01	1.642147e+00	1.643600e+00	9.410792e-01	1.710938e+00	1.235116e+00	1.843125e+00	2.660665e+00	2.901475e+00	3.688929e+00	4.167293e+00	4.321852e+00	4.994060e+00	4.236136e+00	4.856889e+00	1.493261e+00	2.334148e+00	3.665026e+00	1.294121e+00	1.881438e+00	3.542503e+00	3.627179e+00	4.965125e+00	3.435627e+00	4.221736e+00	3.023112e+00	2.566627e+00	3.512880e+00	2.493428e+00	2.009274e+00	2.601114e+00	2.202277e+00	2.641684e+00	2.719519e+00	4.828245e+00	-4.095548e-02	2.774394e-01	1.080952e+00	9.778060e-01	2.524232e+00	2.694403e+00	1.970876e+00	3.781075e+00	2.557163e+00	3.532325e+00	1.822158e+00	2.078110e+00	1.648492e+00	2.323629e+00	6.045207e+00	2.014227e+00	4.868178e+00	4.203505e+00	1.858130e+00	1.896710e+00	1.859417e+00	2.846184e+00	1.381619e+00	8.854274e-01	7.507021e+00	4.883849e+00	4.552277e+00	3.325172e+00	4.207166e+00	1.421101e+00	1.897713e+00	1.857669e+00	1.661471e+00	2.893155e+00	2.434021e+00	6.519936e+00	1.870322e+00	2.023563e+00	2.348990e+00	1.307795e+00	1.876592e+00	1.412489e+00	5.903051e-01	1.433820e+00	2.941835e+00	2.397100e+00	3.414705e+00	6.304156e+00	6.478355e+00	9.127755e-01	2.851312e+00	3.193878e+00	1.290157e+00	4.559313e+00	3.259325e+00	2.908786e-01	3.153706e-01	-9.234204e-02	-1.908703e-01	-6.651092e-01	2.559683e+00	2.101183e+00	2.292780e+00	4.799251e+00	1.926276e+00	1.363406e+00	1.401533e+00	9.754573e-01	9.780798e-01	3.770558e+00	8.092458e+00	7.142226e+00	9.008834e+00	2.363345e+00	1.319927e+00	2.048210e+00	1.616382e+00	2.667095e+00	9.447319e-01	5.563755e+00	1.622389e+00	2.309131e+00	1.888565e+00	8.915516e+00	9.516850e+00	1.707671e+00	3.531863e-01	1.095900e+00	1.804961e+00	1.143202e+00	2.603488e+00	2.813211e+00	9.131290e-02	6.983410e+00	4.925192e+00	6.267992e-01	2.644007e+00	2.873312e+00	3.214525e+00	-9.043596e-01	5.943185e-01	5.720159e-01	3.243396e+00	4.372351e-01	1.895622e+00	6.214415e-01	1.078155e+00	8.261809e-01	1.406663e+00	1.702729e+00	1.437451e+00	5.872410e+00	3.372451e+00	7.836733e+00	7.946756e+00	2.867943e+00	6.478438e+00	1.147563e+00	4.827842e-01	3.037818e-01	7.614611e-01	-3.993992e-01	7.636172e-01	1.037485e+00	3.141581e-01	5.707272e+00	1.039797e+00	2.874898e+00	3.788316e-01	6.319117e-01	3.521819e-01	2.869691e+00	2.809844e+00	2.923602e+00	3.408746e-01	7.841527e-01	5.708159e+00	1.670897e+00	2.529580e-01	8.372037e+00	7.999093e-01	2.922555e+00	1.568646e+00	7.098120e+00	2.328620e+00	6.651441e-01	2.958161e+00	5.918900e+00	3.180932e+00	1.041185e+00	3.113866e+00	3.706884e+00	2.604768e+00	2.446437e+00	5.217871e+00	1.546666e+00	2.082689e+00	2.603517e+00	8.131460e+00	-8.870282e-01	1.970242e+00	-5.406915e-01	2.578737e+00	1.686244e+00	1.893002e+00	2.750883e+00	9.915848e+00	1.541839e+00	1.774168e+00	9.355384e-01	7.145367e-01	5.093272e+00	8.774104e-01	3.770991e+00	8.286815e-01	1.217200e+00	1.681452e+00	2.503357e+00	1.310760e+00	1.920318e+00	1.427724e+00	1.402004e+00	4.382435e+00	2.586522e+00	4.165585e-01	1.536004e+00	1.917890e+00	2.451611e+00	2.484457e+00	1.954110e+00	1.015627e+00	3.476532e+00	1.255753e+00	3.281193e+00	1.006387e+00	8.802181e-01	6.243145e+00	2.211644e+00	3.211723e+00	1.313790e+00	-4.158631e-01	-4.896087e-01	1.057831e-01	8.365335e+00	9.445599e+00	7.442202e+00	1.994642e+00	6.420247e+00	2.579895e+00	1.382888e+00	1.821361e+00	9.856549e+00	3.712213e+00	1.007089e+00	2.137306e+00	4.054117e+00	9.995457e-02	5.964487e-01	5.225851e+00	4.945454e-01	3.045396e+00	3.132166e-02	-7.233824e-01	4.170527e-01	1.138782e+00	6.340866e-01	6.483031e+00	2.004256e+00	8.132130e+00	5.821983e-01	2.732225e+00	2.919995e+00	8.163653e-01	8.203029e-01	5.741610e+00	3.825171e+00	7.545065e+00	3.461798e+00	4.229542e+00	1.445723e+00	2.944472e+00	7.296374e-01	2.032305e+00	-5.304965e-01	2.961469e+00	-8.719547e-02	3.077167e+00	7.106890e+00	6.368010e+00	1.644974e+00	
SCALARS Energy float 1
LOOKUP_TABLE default