# vtk DataFile Version 3.0
vtk output
ASCII
DATASET UNSTRUCTURED_GRID
POINTS 394 float
-3.000000e+00	0.000000e+00	0.0	-5.000000e-02	2.656956e-17	0.0	2.785933e-01	1.021774e+00	0.0	3.786497e-01	9.790384e-01	0.0	5.000000e-02	-1.211658e-17	0.0	3.000000e+00	0.000000e+00	0.0	3.000000e+00	4.000000e+00	0.0	-3.000000e+00	4.000000e+00	0.0	-3.000000e+00	3.428571e+00	0.0	-3.000000e+00	2.857143e+00	0.0	-3.000000e+00	2.285714e+00	0.0	-3.000000e+00	1.714286e+00	0.0	-3.000000e+00	1.142857e+00	0.0	-3.000000e+00	5.714286e-01	0.0	-2.473871e+00	0.000000e+00	0.0	-2.029066e+00	0.000000e+00	0.0	-1.653013e+00	0.000000e+00	0.0	-1.335087e+00	0.000000e+00	0.0	-1.066302e+00	0.000000e+00	0.0	-8.390627e-01	0.000000e+00	0.0	-6.469477e-01	0.000000e+00	0.0	-4.845277e-01	0.000000e+00	0.0	-3.472127e-01	0.000000e+00	0.0	-2.311224e-01	0.000000e+00	0.0	-1.329760e-01	0.000000e+00	0.0	-4.520649e-02	8.179965e-02	0.0	-3.404820e-02	1.628890e-01	0.0	-1.715493e-02	2.431760e-01	0.0	4.271946e-03	3.227478e-01	0.0	2.919473e-02	4.016952e-01	0.0	5.671695e-02	4.801148e-01	0.0	8.609809e-02	5.581117e-01	0.0	1.167679e-01	6.357902e-01	0.0	1.483128e-01	7.132423e-01	0.0	1.804532e-01	7.905336e-01	0.0	2.129723e-01	8.677158e-01	0.0	2.457899e-01	9.447739e-01	0.0	3.286223e-01	1.000456e+00	0.0	3.457217e-01	9.021497e-01	0.0	3.129586e-01	8.252957e-01	0.0	2.804223e-01	7.485466e-01	0.0	2.482855e-01	6.719123e-01	0.0	2.167428e-01	5.954386e-01	0.0	1.860777e-01	5.191956e-01	0.0	1.567014e-01	4.432763e-01	0.0	1.291847e-01	3.677862e-01	0.0	1.042667e-01	2.928305e-01	0.0	8.284422e-02	2.185061e-01	0.0	6.595961e-02	1.448981e-01	0.0	5.474070e-02	7.206913e-02	0.0	1.329760e-01	0.000000e+00	0.0	2.311224e-01	0.000000e+00	0.0	3.472127e-01	0.000000e+00	0.0	4.845277e-01	0.000000e+00	0.0	6.469477e-01	0.000000e+00	0.0	8.390627e-01	0.000000e+00	0.0	1.066302e+00	0.000000e+00	0.0	1.335087e+00	0.000000e+00	0.0	1.653013e+00	0.000000e+00	0.0	2.029066e+00	0.000000e+00	0.0	2.473871e+00	0.000000e+00	0.0	3.000000e+00	5.714286e-01	0.0	3.000000e+00	1.142857e+00	0.0	3.000000e+00	1.714286e+00	0.0	3.000000e+00	2.285714e+00	0.0	3.000000e+00	2.857143e+00	0.0	3.000000e+00	3.428571e+00	0.0	2.400000e+00	4.000000e+00	0.0	1.800000e+00	4.000000e+00	0.0	1.200000e+00	4.000000e+00	0.0	6.000000e-01	4.000000e+00	0.0	0.000000e+00	4.000000e+00	0.0	-6.000000e-01	4.000000e+00	0.0	-1.200000e+00	4.000000e+00	0.0	-1.800000e+00	4.000000e+00	0.0	-2.400000e+00	4.000000e+00	0.0	1.360392e-01	9.227106e-01	0.0	3.765228e-01	8.540893e-01	0.0	-1.466696e+00	2.793486e-01	0.0	1.527167e+00	1.973937e-01	0.0	2.452600e-01	5.436197e-01	0.0	1.254858e-02	6.120141e-01	0.0	-7.297476e-01	1.913281e-01	0.0	7.715462e-01	1.287592e-01	0.0	-2.552161e+00	2.096979e+00	0.0	2.580117e+00	1.915643e+00	0.0	-8.547063e-01	3.519166e+00	0.0	1.004537e+00	3.447306e+00	0.0	1.736245e-01	3.228347e-01	0.0	-6.336729e-02	3.704627e-01	0.0	-4.036169e-01	1.310125e-01	0.0	4.309472e-01	9.148175e-02	0.0	3.110034e-01	6.953328e-01	0.0	6.961074e-02	7.685255e-01	0.0	1.451479e-01	1.797309e-01	0.0	-9.987555e-02	2.111153e-01	0.0	2.554358e+00	7.750152e-01	0.0	-2.483988e+00	8.133897e-01	0.0	-2.025038e+00	3.466622e+00	0.0	2.110263e+00	3.422454e+00	0.0	-1.788981e-01	8.345868e-02	0.0	1.902271e-01	6.646989e-02	0.0	2.249602e+00	3.632833e-01	0.0	-2.240484e+00	3.750103e-01	0.0	2.531434e+00	1.361845e+00	0.0	2.191302e+00	1.656012e+00	0.0	2.175389e+00	2.075281e+00	0.0	1.862455e+00	1.807469e+00	0.0	1.836146e+00	1.400428e+00	0.0	1.579724e+00	1.600553e+00	0.0	1.556797e+00	1.953104e+00	0.0	1.330109e+00	1.740205e+00	0.0	1.333004e+00	1.436687e+00	0.0	1.127644e+00	1.557726e+00	0.0	1.127711e+00	1.306108e+00	0.0	9.398315e-01	1.386170e+00	0.0	9.217434e-01	1.653411e+00	0.0	7.594867e-01	1.511274e+00	0.0	7.245914e-01	1.750896e+00	0.0	5.707136e-01	1.637481e+00	0.0	5.224718e-01	1.854975e+00	0.0	3.766099e-01	1.735173e+00	0.0	3.047729e-01	1.959818e+00	0.0	1.472917e-01	1.796100e+00	0.0	9.655092e-01	1.170804e+00	0.0	1.279216e+00	2.084230e+00	0.0	5.102539e-01	2.121646e+00	0.0	1.098011e+00	1.056279e+00	0.0	9.346229e-01	9.818544e-01	0.0	5.175998e-02	2.078708e+00	0.0	-1.570497e-01	1.927441e+00	0.0	-5.844647e-02	1.652442e+00	0.0	-3.813245e-01	1.778800e+00	0.0	-3.123510e-01	1.539320e+00	0.0	-6.047438e-01	1.622177e+00	0.0	-6.327790e-01	1.858400e+00	0.0	-5.485849e-01	1.378225e+00	0.0	-8.536020e-01	1.456287e+00	0.0	8.213753e-01	1.066722e+00	0.0	7.910242e-01	8.970483e-01	0.0	8.985377e-01	8.038445e-01	0.0	-2.429578e-01	2.214196e+00	0.0	7.465149e-01	7.251215e-01	0.0	4.262915e-01	1.508264e+00	0.0	3.323135e-01	1.050499e+00	0.0	3.924876e-01	1.023397e+00	0.0	3.611038e-01	1.099077e+00	0.0	4.282154e-01	1.087566e+00	0.0	1.824722e-03	2.389378e+00	0.0	-8.069799e-01	1.193459e+00	0.0	-1.119256e+00	1.270904e+00	0.0	-5.144823e-01	1.117892e+00	0.0	-8.164846e-01	9.142665e-01	0.0	-5.398434e-01	8.902186e-01	0.0	-1.169595e+00	1.569323e+00	0.0	8.536276e-01	6.322760e-01	0.0	1.017304e+00	7.042185e-01	0.0	6.964226e-01	5.712320e-01	0.0	-6.961772e-02	1.417535e+00	0.0	1.515632e+00	2.317965e+00	0.0	2.843059e-01	1.107267e+00	0.0	3.230273e-01	1.173215e+00	0.0	4.522448e-01	1.000909e+00	0.0	5.030513e-01	1.073036e+00	0.0	4.664503e-01	1.162377e+00	0.0	5.258714e-01	9.735141e-01	0.0	9.669523e-01	5.310910e-01	0.0	1.166231e+00	6.199987e-01	0.0	2.272130e-01	1.182183e+00	0.0	-3.179769e-01	1.006765e+00	0.0	-3.353876e-01	8.288331e-01	0.0	-5.222237e-01	6.942402e-01	0.0	-3.214311e-01	6.588649e-01	0.0	-1.457891e+00	1.358241e+00	0.0	5.655144e-01	1.157839e+00	0.0	-3.321301e-01	2.534419e+00	0.0	-6.146849e-02	2.748912e+00	0.0	6.022479e-01	6.496269e-01	0.0	5.496502e-01	5.090564e-01	0.0	2.766190e-01	1.265760e+00	0.0	6.417260e-01	4.310924e-01	0.0	4.953482e-01	3.780717e-01	0.0	1.205527e+00	2.463431e+00	0.0	-1.517598e+00	1.693336e+00	0.0	1.456720e+00	2.708291e+00	0.0	5.814128e-01	3.018099e-01	0.0	1.098806e+00	3.670952e-01	0.0	-1.393507e+00	1.063811e+00	0.0	-4.944341e-01	5.190648e-01	0.0	-6.616710e-01	5.479529e-01	0.0	-3.440802e-01	4.798859e-01	0.0	-1.377855e-01	9.504605e-01	0.0	-1.448392e-01	1.100843e+00	0.0	-1.918954e+00	1.463237e+00	0.0	4.641565e-01	5.867500e-01	0.0	5.259420e-01	7.227617e-01	0.0	7.409141e-01	3.493746e-01	0.0	-2.067423e-01	5.729019e-01	0.0	8.622655e-01	1.929144e+00	0.0	1.316127e+00	5.311675e-01	0.0	1.369386e+00	7.434972e-01	0.0	1.543515e+00	6.052986e-01	0.0	1.609736e+00	8.775145e-01	0.0	1.852351e+00	7.454469e-01	0.0	5.084452e-01	1.262196e+00	0.0	6.229596e-01	1.254145e+00	0.0	-4.757624e-01	3.530361e-01	0.0	-2.956592e-01	1.343229e+00	0.0	-5.976543e-01	2.327624e+00	0.0	-7.114032e-01	2.681987e+00	0.0	-1.005081e+00	2.465173e+00	0.0	-1.117517e+00	2.824758e+00	0.0	-1.494588e+00	2.501693e+00	0.0	-2.125401e-01	4.259920e-01	0.0	1.581184e-01	1.272168e+00	0.0	2.033787e-01	1.376460e+00	0.0	1.160726e-01	1.179336e+00	0.0	3.128357e-01	2.559535e+00	0.0	2.620240e-01	3.020680e+00	0.0	6.191847e-01	2.765001e+00	0.0	-1.214833e+00	1.902492e+00	0.0	6.953123e-01	9.825995e-01	0.0	-1.824175e-01	3.165768e+00	0.0	-1.768609e-01	7.930499e-01	0.0	4.389572e-01	2.581515e-01	0.0	3.421601e-01	3.271178e-01	0.0	3.090392e-01	2.265106e-01	0.0	1.854271e-01	1.111167e+00	0.0	8.491328e-02	1.086496e+00	0.0	1.801122e+00	2.562163e+00	0.0	1.516184e+00	1.285067e+00	0.0	2.512821e+00	2.486018e+00	0.0	1.049501e+00	2.887259e+00	0.0	-1.581417e+00	2.058210e+00	0.0	3.982354e-01	4.506084e-01	0.0	2.832440e-01	4.045264e-01	0.0	1.232645e+00	1.778311e-01	0.0	-4.740731e-02	8.666438e-01	0.0	-1.183775e-01	5.078116e-01	0.0	4.507227e-01	3.517993e+00	0.0	-3.323333e-01	3.308909e-01	0.0	-2.186417e-01	2.975688e-01	0.0	6.514770e-01	8.238169e-01	0.0	2.189825e+00	1.014677e+00	0.0	-1.598157e+00	3.038848e+00	0.0	-1.954942e+00	2.691257e+00	0.0	5.577121e-01	1.380018e+00	0.0	-2.456031e+00	1.332070e+00	0.0	7.807014e-01	1.310305e+00	0.0	-1.178285e+00	2.510767e-01	0.0	-1.271810e+00	5.246997e-01	0.0	-1.560577e+00	5.747197e-01	0.0	-9.982090e-01	4.983239e-01	0.0	-1.084011e+00	7.575652e-01	0.0	1.740099e+00	3.019451e+00	0.0	1.517124e-01	1.609171e+00	0.0	5.495335e-01	8.551049e-01	0.0	2.931621e-02	1.271554e+00	0.0	-1.535213e-02	9.560984e-01	0.0	4.406098e-01	7.854881e-01	0.0	-5.579899e-02	7.428214e-01	0.0	-5.461252e-01	1.932117e-01	0.0	5.847686e-01	1.027293e-01	0.0	9.940033e-01	1.671029e-01	0.0	-9.371271e-01	2.223917e-01	0.0	1.853226e+00	2.458001e-01	0.0	3.029983e-01	7.831905e-02	0.0	-2.761952e-01	1.064532e-01	0.0	-1.436273e+00	3.536453e+00	0.0	3.382021e-01	1.370046e+00	0.0	2.556342e+00	3.095013e+00	0.0	3.608341e-01	5.286156e-01	0.0	-1.818184e+00	3.231356e-01	0.0	-1.938468e+00	7.282272e-01	0.0	1.442204e+00	1.008155e+00	0.0	3.749708e-01	6.292778e-01	0.0	4.608482e-01	8.993041e-01	0.0	9.713591e-01	2.213777e+00	0.0	-2.496818e+00	2.543419e+00	0.0	1.510280e+00	3.501816e+00	0.0	-9.383154e-02	6.310099e-01	0.0	4.013032e-01	9.417403e-01	0.0	-2.427150e+00	3.084639e+00	0.0	1.019331e-01	8.446513e-01	0.0	8.753662e-01	2.666793e-01	0.0	6.484149e-01	2.407332e+00	0.0	-7.908121e-01	3.743570e-01	0.0	3.891933e-02	6.907860e-01	0.0	3.442463e-01	7.721105e-01	0.0	-2.104351e+00	1.095400e+00	0.0	2.766072e-01	6.226096e-01	0.0	-2.235220e-02	5.411173e-01	0.0	2.207092e-01	4.688684e-01	0.0	1.206213e+00	8.570042e-01	0.0	1.955575e-01	3.930017e-01	0.0	-8.041184e-02	2.888417e-01	0.0	1.543326e-01	2.507210e-01	0.0	2.390652e-01	2.773672e-01	0.0	-4.683579e-02	4.536105e-01	0.0	2.375680e-01	1.451150e-01	0.0	-1.952079e-01	1.898261e-01	0.0	-7.225792e-01	7.111949e-01	0.0	-8.531151e-03	1.160729e+00	0.0	2.165557e+00	6.830458e-01	0.0	6.997711e-01	1.140315e+00	0.0	1.884168e+00	1.077232e+00	0.0	2.817969e-01	1.060961e+00	0.0	7.999547e-01	4.860893e-01	0.0	-6.179438e-01	3.654286e-01	0.0	3.904040e-01	7.230105e-01	0.0	1.598826e-01	1.041810e+00	0.0	1.251952e-01	1.068391e-01	0.0	-1.079174e-01	1.259552e-01	0.0	-1.855026e+00	1.832606e+00	0.0	-2.006760e+00	2.211107e+00	0.0	-2.883568e-01	1.173557e+00	0.0	-7.952279e-01	3.078786e+00	0.0	3.794195e-01	1.247059e+00	0.0	1.290325e+00	1.157503e+00	0.0	-4.351573e-01	2.914535e+00	0.0	1.032680e+00	8.783532e-01	0.0	9.019002e-01	2.546976e+00	0.0	6.828606e-01	3.127683e+00	0.0	-1.098293e+00	9.971666e-01	0.0	2.146435e+00	2.834418e+00	0.0	1.366526e+00	3.114637e+00	0.0	-1.281292e-
[...]
POINT_DATA 394

SCALARS Density float 1
LOOKUP_TABLE default
1.223720e+00	1.223966e+00	1.221581e+00	1.221668e+00	1.223222e+00	1.223554e+00	1.223276e+00	1.223586e+00	1.223570e+00	1.223583e+00	1.223626e+00	1.223655e+00	1.223723e+00	1.223729e+00	1.223741e+00	1.223732e+00	1.223764e+00	1.223787e+00	1.223830e+00	1.223857e+00	1.223879e+00	1.223941e+00	1.223916e+00	1.224015e+00	1.223914e+00	1.224050e+00	1.223923e+00	1.223937e+00	1.223929e+00	1.223894e+00	1.223873e+00	1.223824e+00	1.223810e+00	1.223716e+00	1.223799e+00	1.222941e+00	1.224928e+00	1.219627e+00	1.223662e+00	1.223189e+00	1.223199e+00	1.223171e+00	1.223113e+00	1.223080e+00	1.223071e+00	1.223073e+00	1.223095e+00	1.223133e+00	1.223063e+00	1.223290e+00	1.223077e+00	1.223189e+00	1.223115e+00	1.223055e+00	1.223014e+00	1.222986e+00	1.222900e+00	1.222923e+00	1.222942e+00	1.223096e+00	1.222634e+00	1.223288e+00	1.223017e+00	1.222861e+00	1.222809e+00	1.222949e+00	1.223101e+00	1.223104e+00	1.223236e+00	1.223269e+00	1.223351e+00	1.223406e+00	1.223489e+00	1.223543e+00	1.223576e+00	1.223575e+00	1.223025e+00	1.223524e+00	1.223775e+00	1.222878e+00	1.223120e+00	1.223774e+00	1.223852e+00	1.222950e+00	1.223624e+00	1.223280e+00	1.223510e+00	1.223306e+00	1.223097e+00	1.223890e+00	1.223928e+00	1.223057e+00	1.223260e+00	1.223556e+00	1.223187e+00	1.223945e+00	1.222892e+00	1.223722e+00	1.223596e+00	1.223132e+00	1.223974e+00	1.223159e+00	1.223042e+00	1.223715e+00	1.222909e+00	1.222837e+00	1.223089e+00	1.223060e+00	1.222927e+00	1.222953e+00	1.222997e+00	1.223222e+00	1.222742e+00	1.222818e+00	1.222831e+00	1.222981e+00	1.222830e+00	1.223145e+00	1.223107e+00	1.223258e+00	1.223173e+00	1.223234e+00	1.223450e+00	1.223326e+00	1.222804e+00	1.223007e+00	1.223258e+00	1.222629e+00	1.222801e+00	1.223413e+00	1.223501e+00	1.223511e+00	1.223447e+00	1.223594e+00	1.223663e+00	1.223551e+00	1.223641e+00	1.223637e+00	1.222957e+00	1.222856e+00	1.222941e+00	1.223509e+00	1.222965e+00	1.223190e+00	1.221383e+00	1.221574e+00	1.222623e+00	1.222711e+00	1.223409e+00	1.223708e+00	1.223697e+00	1.223751e+00	1.223761e+00	1.223780e+00	1.223657e+00	1.222866e+00	1.222693e+00	1.222968e+00	1.223526e+00	1.223198e+00	1.221601e+00	1.223127e+00	1.222637e+00	1.222635e+00	1.222496e+00	1.222880e+00	1.222904e+00	1.222827e+00	1.223111e+00	1.223731e+00	1.223764e+00	1.223808e+00	1.223782e+00	1.223679e+00	1.222571e+00	1.223473e+00	1.223456e+00	1.223106e+00	1.223022e+00	1.223085e+00	1.222983e+00	1.223044e+00	1.223283e+00	1.223651e+00	1.223175e+00	1.223055e+00	1.222790e+00	1.223729e+00	1.223843e+00	1.223861e+00	1.223929e+00	1.223684e+00	1.223606e+00	1.223688e+00	1.223076e+00	1.223144e+00	1.222926e+00	1.223867e+00	1.223357e+00	1.222694e+00	1.222883e+00	1.222656e+00	1.222665e+00	1.222805e+00	1.222771e+00	1.222739e+00	1.223913e+00	1.223532e+00	1.223528e+00	1.223511e+00	1.223576e+00	1.223555e+00	1.223617e+00	1.223872e+00	1.223142e+00	1.223476e+00	1.223453e+00	1.223332e+00	1.223370e+00	1.223404e+00	1.223623e+00	1.222726e+00	1.223404e+00	1.223830e+00	1.223035e+00	1.223057e+00	1.223095e+00	1.223706e+00	1.223054e+00	1.223093e+00	1.222705e+00	1.223292e+00	1.223291e+00	1.223639e+00	1.223117e+00	1.223005e+00	1.222705e+00	1.223637e+00	1.223972e+00	1.223401e+00	1.223905e+00	1.223940e+00	1.222894e+00	1.222715e+00	1.223550e+00	1.223587e+00	1.222612e+00	1.223667e+00	1.222855e+00	1.223813e+00	1.223836e+00	1.223705e+00	1.223809e+00	1.223740e+00	1.223258e+00	1.223505e+00	1.222966e+00	1.223429e+00	1.223670e+00	1.223224e+00	1.223835e+00	1.223952e+00	1.223027e+00	1.222929e+00	1.223851e+00	1.222727e+00	1.223186e+00	1.223988e+00	1.223551e+00	1.223032e+00	1.223165e+00	1.223161e+00	1.223770e+00	1.223716e+00	1.222779e+00	1.223106e+00	1.222835e+00	1.223221e+00	1.223626e+00	1.223237e+00	1.223781e+00	1.222918e+00	1.223611e+00	1.224004e+00	1.222921e+00	1.223341e+00	1.223824e+00	1.223807e+00	1.223192e+00	1.223686e+00	1.223190e+00	1.223817e+00	1.223110e+00	1.222778e+00	1.223103e+00	1.223928e+00	1.223110e+00	1.223047e+00	1.223833e+00	1.223034e+00	1.223969e+00	1.223786e+00	1.223599e+00	1.222717e+00	1.222810e+00	1.223105e+00	1.225145e+00	1.222952e+00	1.223906e+00	1.223092e+00	1.223414e+00	1.223099e+00	1.223947e+00	1.223635e+00	1.223639e+00	1.223669e+00	1.223510e+00	1.222657e+00	1.222873e+00	1.223468e+00	1.222713e+00	1.223239e+00	1.223278e+00	1.223772e+00	1.223306e+00	1.223244e+00	1.223935e+00	1.223558e+00	1.223504e+00	1.223061e+00	1.223559e+00	1.222736e+00	1.223153e+00	1.223890e+00	1.223000e+00	1.223361e+00	1.223054e+00	1.223369e+00	1.223739e+00	1.222949e+00	1.223320e+00	1.223627e+00	1.222794e+00	1.223740e+00	1.223036e+00	1.222219e+00	1.223748e+00	1.223798e+00	1.223254e+00	1.223404e+00	1.222464e+00	1.223611e+00	1.223067e+00	1.223596e+00	1.223833e+00	1.225399e+00	1.223939e+00	1.223732e+00	1.223040e+00	1.223211e+00	1.223562e+00	1.223415e+00	1.223799e+00	1.223031e+00	1.223946e+00	1.222861e+00	1.222806e+00	1.223576e+00	1.222807e+00	1.223571e+00	1.223302e+00	1.223810e+00	1.223784e+00	1.223691e+00	1.223027e+00	1.223035e+00	1.223976e+00	1.223263e+00	1.223464e+00	1.223146e+00	1.223596e+00	1.222729e+00	1.223421e+00	1.223157e+00	1.223057e+00	1.223466e+00	1.223765e+00	1.222833e+00	1.223187e+00	1.222574e+00	1.223280e+00	1.222921e+00	1.223713e+00	1.222706e+00	
SCALARS X-Momentum float 1
LOOKUP_TABLE default
8.636975e+00	3.552227e-01	6.256545e+00	-2.469294e-01	-6.385462e-01	-4.639204e+00	1.620201e+01	1.032440e+01	1.018419e+01	9.969523e+00	9.704372e+00	9.396474e+00	9.102308e+00	8.823837e+00	8.482386e+00	8.172262e+00	7.701984e+00	7.096571e+00	6.406583e+00	5.621437e+00	4.743600e+00	3.898200e+00	2.939264e+00	2.007131e+00	1.100694e+00	4.971331e-02	3.222354e-01	7.013719e-01	1.113399e+00	1.548126e+00	1.969630e+00	2.375418e+00	2.780005e+00	3.174513e+00	3.487025e+00	3.483587e+00	3.230919e+00	4.269174e+00	5.291152e-01	7.508288e-01	1.184208e+00	1.456543e+00	1.633793e+00	1.712901e+00	1.642191e+00	1.451029e+00	1.180498e+00	8.372864e-01	5.099693e-01	2.483753e-01	-2.065374e+00	-3.724903e+00	-5.112591e+00	-6.341194e+00	-7.328118e+00	-8.051264e+00	-8.553763e+00	-8.775734e+00	-8.237869e+00	-7.288346e+00	-6.305394e+00	-7.446568e-01	4.817896e+00	1.024808e+01	1.413383e+01	1.600354e+01	1.641226e+01	1.552116e+01	1.466685e+01	1.374723e+01	1.298250e+01	1.233722e+01	1.174759e+01	1.120912e+01	1.076296e+01	1.046403e+01	4.018807e+00	1.474793e+00	7.572902e+00	-5.953063e+00	1.647392e+00	3.346408e+00	5.426210e+00	-5.764904e+00	9.630236e+00	1.256754e+01	1.135372e+01	1.384693e+01	8.241220e-01	2.067549e+00	3.509413e+00	-4.336474e+00	1.738288e+00	4.058168e+00	-1.212108e-01	1.288808e+00	1.132797e+00	8.829301e+00	1.045080e+01	1.551424e+01	1.556966e+00	-2.034087e+00	-3.161446e+00	8.496375e+00	7.465195e+00	1.099389e+01	1.413375e+01	1.301897e+01	9.049381e+00	1.180071e+01	1.449324e+01	1.360095e+01	1.046100e+01	1.233997e+01	8.847667e+00	1.058945e+01	1.381268e+01	1.287361e+01	1.458008e+01	1.419333e+01	1.448416e+01	1.400400e+01	1.360767e+01	1.280240e+01	6.918686e+00	1.521312e+01	1.414383e+01	5.194509e+00	4.100062e+00	1.248540e+01	1.160451e+01	1.148910e+01	1.068960e+01	1.020859e+01	9.933709e+00	1.033546e+01	9.264647e+00	9.293634e+00	4.954497e+00	2.850149e+00	2.103892e+00	1.161628e+01	1.595984e+00	1.374039e+01	5.665037e+00	2.250032e+00	6.647671e+00	4.600961e+00	1.233769e+01	8.594103e+00	8.830799e+00	8.305310e+00	7.690077e+00	7.229836e+00	9.380625e+00	5.211961e-01	9.544203e-01	4.808585e-01	1.066816e+01	1.553440e+01	9.492519e+00	1.045273e+01	1.883066e+00	3.990416e+00	7.466403e+00	2.354582e+00	-1.030215e+00	-4.684734e-01	1.129743e+01	7.638593e+00	6.543751e+00	6.277106e+00	5.408840e+00	9.025605e+00	6.507483e+00	1.162522e+01	1.222599e+01	1.516971e+00	5.616255e-01	1.233580e+01	-7.665450e-01	-5.739513e-01	1.530480e+01	9.472006e+00	1.534851e+01	-2.074342e+00	-3.280436e+00	8.529103e+00	5.404473e+00	6.087653e+00	4.533822e+00	6.802786e+00	8.122979e+00	9.183129e+00	1.548085e+00	2.102285e+00	-2.289517e+00	4.347670e+00	1.495346e+01	-1.753357e+00	9.102890e-01	-9.706273e-01	2.441681e+00	7.172173e-01	1.019395e+01	9.305275e+00	4.633720e+00	9.430728e+00	1.101264e+01	1.114798e+01	1.062603e+01	1.077346e+01	1.025551e+01	3.482261e+00	1.169908e+01	1.265374e+01	1.020466e+01	1.310026e+01	1.281169e+01	1.377152e+01	9.853362e+00	3.382930e+00	1.208041e+01	5.730576e+00	-1.700708e+00	-2.245626e-01	-1.142807e+00	9.704703e+00	8.167441e+00	1.564803e+01	8.107311e+00	1.535603e+01	1.449890e+01	9.851337e+00	7.202664e-01	8.468646e-01	-6.188214e+00	5.661773e+00	3.462410e+00	1.295238e+01	3.767106e+00	2.801308e+00	2.264331e+00	3.763371e+00	1.049907e+01	1.013600e+01	1.219919e+01	9.148650e+00	9.774739e+00	6.975181e+00	7.511335e+00	8.012936e+00	6.906566e+00	7.591399e+00	1.534154e+01	1.270509e+01	2.223988e+00	1.052549e+01	6.251298e+00	2.089195e+00	4.723832e+00	4.523694e+00	-5.192536e+00	-5.983106e+00	6.262661e+00	-4.997985e+00	-3.263569e+00	2.497869e+00	1.084369e+01	1.322240e+01	1.613188e+01	1.457219e+00	8.102359e+00	8.509600e+00	4.385554e+00	1.833688e+00	1.813511e+00	1.512486e+01	9.888610e+00	1.463885e+01	4.064499e+00	8.820181e-01	1.016059e+01	4.307411e+00	-3.955505e+00	1.419384e+01	6.100588e+00	3.727108e+00	1.612517e+00	8.885189e+00	1.726120e+00	3.017573e+00	1.448451e+00	2.675425e+00	1.174759e+00	1.632794e+00	4.014907e-01	-1.592846e-02	2.546684e+00	-1.495466e+00	2.024183e+00	6.823326e+00	9.032986e+00	3.894079e-02	6.188059e+00	4.904350e+00	8.314180e+00	-9.047724e-01	5.354902e+00	2.014985e+00	7.223448e+00	-5.928228e-01	9.620410e-01	9.554703e+00	9.807857e+00	8.590469e+00	1.125223e+01	1.119140e+01	6.590444e+00	1.164306e+01	2.862746e+00	1.470398e+01	1.352697e+01	8.205953e+00	1.579591e+01	1.475811e+01	2.879467e+00	1.088555e+01	1.192232e+01	1.509026e+01	1.038101e+01	3.750436e+00	1.462722e+01	3.070522e+00	-3.324140e+00	1.478953e+01	-2.595645e+00	1.320556e+01	8.747919e+00	-3.791183e+00	1.328686e+01	9.848783e+00	2.555599e+00	8.025443e+00	-2.955202e+00	-3.194355e+00	8.672425e+00	5.181366e+00	5.825631e+00	1.162540e+01	8.445548e+00	9.361614e+00	1.156059e+01	1.019741e+01	3.962031e+00	4.865482e+00	2.505129e+00	8.371180e+00	-4.695239e-01	1.282344e+01	1.029438e+01	1.238884e+01	4.919535e+00	1.601792e+01	2.061373e+00	-3.789997e+00	-2.058223e+00	1.029404e+01	-2.345182e+00	1.092161e+01	1.209784e+01	6.597115e+00	7.462608e+00	9.445217e+00	5.537497e-01	1.323361e+00	7.208408e-01	-9.080200e-01	1.361756e+01	1.476189e+01	4.809575e+00	1.325554e+01	8.912632e+00	1.554018e+01	1.666964e+00	1.164472e+01	7.118677e+00	7.596868e+00	2.050375e+00	5.648845e+00	1.361934e+01	8.746270e+00	4.054525e+00	7.625435e+00	
SCALARS Y-Momentum float 1
LOOKUP_TABLE default
-2.099262e-02	3.492775e-01	6.632001e+00	-9.075812e-01	6.081335e-01	2.338122e-01	5.857017e-02	-1.278736e-02	1.730154e-02	4.550840e-02	6.264782e-02	8.021221e-02	6.737600e-02	1.265811e-02	-4.043561e-03	-2.675160e-04	6.036973e-03	5.032610e-03	1.081521e-02	1.338349e-02	-2.868900e-03	1.760792e-02	5.312254e-03	7.305383e-03	-2.869512e-02	1.128174e+00	2.029836e+00	2.912615e+00	3.835907e+00	4.723780e+00	5.561595e+00	6.371120e+00	7.195752e+00	8.081911e+00	8.826601e+00	9.160227e+00	9.557609e+00	-2.077290e+00	1.470788e+00	2.431117e+00	3.299123e+00	3.965000e+00	4.385199e+00	4.597405e+00	4.565305e+00	4.320362e+00	3.905931e+00	3.318872e+00	2.604055e+00	1.668995e+00	-2.878625e-03	3.465931e-02	2.620989e-02	7.706716e-03	1.953820e-03	8.874828e-03	1.298169e-02	1.716175e-03	-4.904939e-02	-7.362342e-02	-1.028461e-01	-5.624691e-01	-5.857215e-01	-1.313667e-01	5.574757e-01	7.964803e-01	4.762865e-01	1.294643e-02	-1.991452e-05	-1.118413e-02	-4.098829e-02	-2.594780e-02	-4.660254e-03	-4.931109e-03	2.982766e-03	-2.761424e-03	9.427611e+00	2.878999e+00	5.081060e-01	-2.592502e-01	4.181439e+00	6.236627e+00	8.563531e-01	5.172095e-01	4.041402e-01	2.323240e-01	4.614138e-01	8.161450e-01	3.686638e+00	3.908739e+00	9.160587e-01	7.494670e-01	3.717807e+00	7.742702e+00	2.592386e+00	2.298849e+00	-9.275584e-01	3.382544e-01	2.681224e-01	8.038336e-01	7.715286e-01	9.675456e-01	-6.847952e-01	2.565397e-01	-5.801791e-01	-1.607912e-02	8.380779e-01	8.331383e-01	2.303349e-02	8.946299e-01	1.712845e+00	1.844091e+00	1.132999e+00	2.040185e+00	1.515982e+00	2.312419e+00	3.102574e+00	3.519087e+00	4.140646e+00	4.732309e+00	4.656232e+00	5.390588e+00	4.446536e+00	5.122412e+00	1.824573e+00	2.462018e+00	3.844963e+00	1.472030e+00	2.118029e+00	3.685410e+00	3.790708e+00	5.225896e+00	3.608729e+00	4.429554e+00	3.189344e+00	2.728740e+00	3.680609e+00	2.644736e+00	2.353358e+00	2.912997e+00	2.447248e+00	2.767183e+00	3.135235e+00	5.506156e+00	7.253479e-01	7.063265e-01	2.041835e+00	1.674635e+00	2.618994e+00	2.822914e+00	2.100538e+00	3.912070e+00	2.647893e+00	3.602411e+00	1.963250e+00	2.394160e+00	1.795502e+00	2.836580e+00	6.407528e+00	2.034694e+00	6.154922e+00	5.341245e+00	2.295999e+00	2.483251e+00	2.738348e+00	3.288962e+00	1.562939e+00	9.226603e-01	8.669553e+00	5.022325e+00	4.591215e+00	3.309929e+00	4.098161e+00	1.534167e+00	2.598400e+00	1.962732e+00	1.727424e+00	3.549210e+00	3.113484e+00	7.526162e+00	2.371683e+00	2.621811e+00	2.392689e+00	1.421711e+00	1.857634e+00	1.822513e+00	6.500673e-01	1.533725e+00	2.833268e+00	2.355262e+00	3.195842e+00	6.514722e+00	6.807005e+00	9.919650e-01	3.696933e+00	3.955716e+00	1.615906e+00	4.287770e+00	3.570590e+00	2.543866e-01	2.913374e-01	-1.745561e-01	-2.604326e-01	-7.646205e-01	3.458337e+00	2.847431e+00	2.136044e+00	5.039825e+00	2.060571e+00	1.475309e+00	1.531086e+00	1.074357e+00	1.078482e+00	3.402675e+00	8.931550e+00	7.865301e+00	9.922401e+00	2.422491e+00	1.346556e+00	2.070408e+00	1.755465e+00	3.039904e+00	9.945000e-01	5.567642e+00	2.073782e+00	2.951561e+00	2.358759e+00	1.020332e+01	1.041999e+01	1.670859e+00	4.094374e-01	1.000186e+00	1.797769e+00	1.252835e+00	3.397442e+00	3.652432e+00	8.874153e-02	7.163859e+00	4.514501e+00	6.268778e-01	2.392125e+00	2.508109e+00	3.704479e+00	-9.940652e-01	6.606314e-01	6.319361e-01	4.048465e+00	4.762027e-01	2.508866e+00	6.260672e-01	1.110320e+00	8.661616e-01	1.416809e+00	1.765762e+00	1.393687e+00	6.264691e+00	3.952627e+00	8.435365e+00	8.352352e+00	3.719306e+00	6.423995e+00	1.051145e+00	6.160137e-01	3.654539e-01	7.467304e-01	-4.690460e-01	9.235645e-01	8.863844e-01	3.516254e-01	6.544909e+00	9.881742e-01	3.805445e+00	3.978619e-01	6.741012e-01	3.629643e-01	3.852968e+00	3.401424e+00	3.075487e+00	3.770885e-01	7.560760e-01	5.428702e+00	2.101952e+00	2.817568e-01	8.758658e+00	9.690573e-01	3.014545e+00	1.530264e+00	6.965930e+00	3.257989e+00	7.192967e-01	4.012759e+00	5.464650e+00	4.165680e+00	1.103968e+00	3.994670e+00	3.121479e+00	3.228503e+00	3.071491e+00	4.661457e+00	1.886539e+00	1.756014e+00	2.634029e+00	8.729062e+00	-9.853344e-01	2.484633e+00	-6.081903e-01	3.983125e+00	2.044287e+00	1.802032e+00	3.720972e+00	1.116967e+01	1.835039e+00	1.443179e+00	1.022602e+00	7.859452e-01	5.308576e+00	9.589900e-01	4.796046e+00	9.463372e-01	1.301929e+00	1.832912e+00	2.545752e+00	1.306253e+00	2.023852e+00	1.372192e+00	1.363496e+00	3.893231e+00	2.739447e+00	4.482591e-01	1.515515e+00	2.067477e+00	2.915630e+00	2.761112e+00	1.710200e+00	1.298457e+00	3.678190e+00	1.568921e+00	3.397699e+00	1.086122e+00	1.125056e+00	6.828902e+00	2.368609e+00	3.621878e+00	1.383932e+00	-5.100801e-01	-5.184577e-01	1.133649e-01	8.778995e+00	1.020593e+01	8.025773e+00	3.001669e+00	6.800838e+00	3.312661e+00	1.514030e+00	1.637995e+00	1.102018e+01	3.219138e+00	1.073414e+00	2.643926e+00	4.948625e+00	1.128848e-01	6.178591e-01	5.069088e+00	4.777526e-01	2.576239e+00	-3.021638e-02	-8.265659e-01	4.641976e-01	1.357130e+00	7.044283e-01	6.934227e+00	2.000194e+00	8.662557e+00	6.361986e-01	3.487940e+00	3.865511e+00	6.633276e-01	9.558752e-01	6.205832e+00	4.117051e+00	7.686586e+00	4.176375e+00	4.408818e+00	1.380850e+00	3.955729e+00	7.924754e-01	2.075749e+00	-6.016933e-01	3.870756e+00	-1.143092e-01	3.171182e+00	8.729636e+00	6.150209e+00	2.099309e+00	
SCALARS Energy float 1
LOOKUP_TABLE default