# vtk DataFile Version 3.0
vtk output
ASCII
DATASET UNSTRUCTURED_GRID
POINTS 394 float
-3.000000e+00	0.000000e+00	0.0	-5.000000e-02	5.183384e-17	0.0	4.740908e-01	1.035794e+00	0.0	5.741456e-01	9.646750e-01	0.0	5.000000e-02	-1.035765e-17	0.0	3.000000e+00	0.000000e+00	0.0	3.000000e+00	4.000000e+00	0.0	-3.000000e+00	4.000000e+00	0.0	-3.000000e+00	3.428571e+00	0.0	-3.000000e+00	2.857143e+00	0.0	-3.000000e+00	2.285714e+00	0.0	-3.000000e+00	1.714286e+00	0.0	-3.000000e+00	1.142857e+00	0.0	-3.000000e+00	5.714286e-01	0.0	-2.473871e+00	0.000000e+00	0.0	-2.029066e+00	0.000000e+00	0.0	-1.653013e+00	0.000000e+00	0.0	-1.335087e+00	0.000000e+00	0.0	-1.066302e+00	0.000000e+00	0.0	-8.390627e-01	0.000000e+00	0.0	-6.469477e-01	0.000000e+00	0.0	-4.845277e-01	0.000000e+00	0.0	-3.472127e-01	0.000000e+00	0.0	-2.311224e-01	0.000000e+00	0.0	-1.329760e-01	0.000000e+00	0.0	-4.331165e-02	8.387299e-02	0.0	-2.731832e-02	1.669569e-01	0.0	-2.616604e-03	2.490786e-01	0.0	2.934175e-02	3.303286e-01	0.0	6.728600e-02	4.107958e-01	0.0	1.100746e-01	4.905593e-01	0.0	1.566786e-01	5.696943e-01	0.0	2.061843e-01	6.482781e-01	0.0	2.578008e-01	7.263972e-01	0.0	3.108797e-01	8.041332e-01	0.0	3.648786e-01	8.815755e-01	0.0	4.194426e-01	9.587400e-01	0.0	5.241193e-01	1.000283e+00	0.0	5.193834e-01	8.878331e-01	0.0	4.648786e-01	8.111077e-01	0.0	4.108682e-01	7.346413e-01	0.0	3.577956e-01	6.584848e-01	0.0	3.061828e-01	5.827142e-01	0.0	2.566814e-01	5.074147e-01	0.0	2.100804e-01	4.326711e-01	0.0	1.672951e-01	3.585608e-01	0.0	1.293533e-01	2.851578e-01	0.0	9.739791e-02	2.125412e-01	0.0	7.270456e-02	1.407920e-01	0.0	5.662533e-02	6.996693e-02	0.0	1.329760e-01	0.000000e+00	0.0	2.311224e-01	0.000000e+00	0.0	3.472127e-01	0.000000e+00	0.0	4.845277e-01	0.000000e+00	0.0	6.469477e-01	0.000000e+00	0.0	8.390627e-01	0.000000e+00	0.0	1.066302e+00	0.000000e+00	0.0	1.335087e+00	0.000000e+00	0.0	1.653013e+00	0.000000e+00	0.0	2.029066e+00	0.000000e+00	0.0	2.473871e+00	0.000000e+00	0.0	3.000000e+00	5.714286e-01	0.0	3.000000e+00	1.142857e+00	0.0	3.000000e+00	1.714286e+00	0.0	3.000000e+00	2.285714e+00	0.0	3.000000e+00	2.857143e+00	0.0	3.000000e+00	3.428571e+00	0.0	2.400000e+00	4.000000e+00	0.0	1.800000e+00	4.000000e+00	0.0	1.200000e+00	4.000000e+00	0.0	6.000000e-01	4.000000e+00	0.0	0.000000e+00	4.000000e+00	0.0	-6.000000e-01	4.000000e+00	0.0	-1.200000e+00	4.000000e+00	0.0	-1.800000e+00	4.000000e+00	0.0	-2.400000e+00	4.000000e+00	0.0	2.884921e-01	9.446156e-01	0.0	5.395555e-01	8.319527e-01	0.0	-1.459292e+00	2.962146e-01	0.0	1.548140e+00	1.786932e-01	0.0	3.253287e-01	5.248990e-01	0.0	9.034130e-02	6.342068e-01	0.0	-7.222365e-01	2.089903e-01	0.0	7.891021e-01	1.121894e-01	0.0	-2.533664e+00	2.110192e+00	0.0	2.623566e+00	1.899939e+00	0.0	-8.121540e-01	3.529069e+00	0.0	1.067131e+00	3.444341e+00	0.0	2.072930e-01	3.098367e-01	0.0	-3.256867e-02	3.854340e-01	0.0	-3.987588e-01	1.433425e-01	0.0	4.407155e-01	8.187739e-02	0.0	4.305062e-01	6.741324e-01	0.0	1.842046e-01	7.923582e-01	0.0	1.591246e-01	1.712637e-01	0.0	-8.809807e-02	2.207551e-01	0.0	2.580167e+00	7.481931e-01	0.0	-2.474599e+00	8.286278e-01	0.0	-2.007203e+00	3.476635e+00	0.0	2.143316e+00	3.413589e+00	0.0	-1.765754e-01	8.860833e-02	0.0	1.942030e-01	6.206797e-02	0.0	2.271247e+00	3.401176e-01	0.0	-2.236045e+00	3.854718e-01	0.0	2.579652e+00	1.336302e+00	0.0	2.266865e+00	1.623918e+00	0.0	2.252671e+00	2.054300e+00	0.0	1.963464e+00	1.776517e+00	0.0	1.931481e+00	1.356245e+00	0.0	1.701426e+00	1.562006e+00	0.0	1.677953e+00	1.925337e+00	0.0	1.470985e+00	1.708662e+00	0.0	1.470123e+00	1.395722e+00	0.0	1.282395e+00	1.525581e+00	0.0	1.278526e+00	1.265354e+00	0.0	1.109889e+00	1.353262e+00	0.0	1.090822e+00	1.632569e+00	0.0	9.435151e-01	1.493315e+00	0.0	8.993457e-01	1.741774e+00	0.0	7.560359e-01	1.631738e+00	0.0	6.979135e-01	1.854426e+00	0.0	5.599941e-01	1.743198e+00	0.0	4.757829e-01	1.968414e+00	0.0	3.265773e-01	1.813872e+00	0.0	1.124840e+00	1.131039e+00	0.0	1.413739e+00	2.061850e+00	0.0	6.719798e-01	2.122561e+00	0.0	1.237067e+00	1.008763e+00	0.0	1.078885e+00	9.388994e-01	0.0	2.078091e-01	2.095994e+00	0.0	-6.627618e-03	1.957294e+00	0.0	1.155139e-01	1.684771e+00	0.0	-2.463836e-01	1.822097e+00	0.0	-1.674599e-01	1.589583e+00	0.0	-4.856512e-01	1.671144e+00	0.0	-5.150659e-01	1.903647e+00	0.0	-4.271706e-01	1.436426e+00	0.0	-7.598472e-01	1.507373e+00	0.0	9.839695e-01	1.031236e+00	0.0	9.385077e-01	8.577688e-01	0.0	1.023615e+00	7.601342e-01	0.0	-1.086816e-01	2.243326e+00	0.0	8.680010e-01	6.834876e-01	0.0	6.187635e-01	1.511185e+00	0.0	5.300785e-01	1.054255e+00	0.0	5.907344e-01	1.012567e+00	0.0	5.594404e-01	1.100571e+00	0.0	6.250250e-01	1.079844e+00	0.0	1.402953e-01	2.409307e+00	0.0	-7.244765e-01	1.245986e+00	0.0	-1.054571e+00	1.319797e+00	0.0	-4.050453e-01	1.176220e+00	0.0	-7.629933e-01	9.663522e-01	0.0	-4.643220e-01	9.471552e-01	0.0	-1.094947e+00	1.616528e+00	0.0	9.528759e-01	5.877437e-01	0.0	1.121606e+00	6.566362e-01	0.0	7.896382e-01	5.301530e-01	0.0	1.039726e-01	1.457855e+00	0.0	1.628090e+00	2.297898e+00	0.0	4.816587e-01	1.120707e+00	0.0	5.211105e-01	1.181079e+00	0.0	6.434986e-01	9.840365e-01	0.0	6.949248e-01	1.057180e+00	0.0	6.636800e-01	1.154490e+00	0.0	7.067826e-01	9.500772e-01	0.0	1.045913e+00	4.846417e-01	0.0	1.251289e+00	5.741695e-01	0.0	4.187974e-01	1.200975e+00	0.0	-2.025037e-01	1.062104e+00	0.0	-2.493354e-01	8.839851e-01	0.0	-4.700233e-01	7.416948e-01	0.0	-2.602498e-01	7.080271e-01	0.0	-1.405945e+00	1.403168e+00	0.0	7.562635e-01	1.141616e+00	0.0	-2.184500e-01	2.560842e+00	0.0	4.906037e-02	2.770027e+00	0.0	7.140491e-01	6.084493e-01	0.0	6.327423e-01	4.723835e-01	0.0	4.713239e-01	1.279855e+00	0.0	7.088783e-01	3.956512e-01	0.0	5.504802e-01	3.481328e-01	0.0	1.329190e+00	2.450657e+00	0.0	-1.458291e+00	1.734096e+00	0.0	1.555783e+00	2.693304e+00	0.0	6.241076e-01	2.740987e-01	0.0	1.148530e+00	3.284027e-01	0.0	-1.352566e+00	1.107561e+00	0.0	-4.608360e-01	5.567609e-01	0.0	-6.293239e-01	5.869597e-01	0.0	-3.095740e-01	5.156729e-01	0.0	-9.317077e-03	1.001394e+00	0.0	9.362854e-04	1.149716e+00	0.0	-1.881624e+00	1.497498e+00	0.0	5.649536e-01	5.482555e-01	0.0	6.559899e-01	6.834762e-01	0.0	7.938622e-01	3.160856e-01	0.0	-1.506641e-01	6.126809e-01	0.0	1.027172e+00	1.919662e+00	0.0	1.383233e+00	4.904259e-01	0.0	1.455715e+00	6.955306e-01	0.0	1.607243e+00	5.620496e-01	0.0	1.695663e+00	8.313842e-01	0.0	1.911763e+00	7.042605e-01	0.0	7.024080e-01	1.253501e+00	0.0	8.116477e-01	1.237655e+00	0.0	-4.578185e-01	3.804484e-01	0.0	-1.543997e-01	1.398542e+00	0.0	-4.871672e-01	2.361354e+00	0.0	-6.230433e-01	2.707781e+00	0.0	-9.216522e-01	2.496796e+00	0.0	-1.049457e+00	2.845810e+00	0.0	-1.432856e+00	2.531920e+00	0.0	-1.806856e-01	4.560112e-01	0.0	3.444088e-01	1.297057e+00	0.0	3.925533e-01	1.397564e+00	0.0	2.965121e-01	1.208397e+00	0.0	4.527827e-01	2.566581e+00	0.0	3.588808e-01	3.030536e+00	0.0	7.413764e-01	2.764484e+00	0.0	-1.137071e+00	1.944693e+00	0.0	8.632602e-01	9.487046e-01	0.0	-1.091577e-01	3.184275e+00	0.0	-8.188937e-02	8.431670e-01	0.0	4.699990e-01	2.364113e-01	0.0	3.815619e-01	3.013430e-01	0.0	3.325128e-01	2.085540e-01	0.0	3.708788e-01	1.134072e+00	0.0	2.550732e-01	1.118146e+00	0.0	1.888800e+00	2.543093e+00	0.0	1.632419e+00	1.238374e+00	0.0	2.559412e+00	2.475333e+00	0.0	1.154819e+00	2.879699e+00	0.0	-1.521599e+00	2.095717e+00	0.0	4.661442e-01	4.163572e-01	0.0	3.356403e-01	3.803332e-01	0.0	1.253830e+00	1.590261e-01	0.0	7.619600e-02	9.086577e-01	0.0	-6.944840e-02	5.367254e-01	0.0	5.064120e-01	3.524932e+00	0.0	-3.140207e-01	3.552530e-01	0.0	-2.014805e-01	3.179610e-01	0.0	8.006937e-01	7.867654e-01	0.0	2.250207e+00	9.749365e-01	0.0	-1.556856e+00	3.054600e+00	0.0	-1.917640e+00	2.708392e+00	0.0	7.490159e-01	1.370718e+00	0.0	-2.438393e+00	1.353529e+00	0.0	9.595297e-01	1.284825e+00	0.0	-1.170788e+00	2.687160e-01	0.0	-1.251930e+00	5.564221e-01	0.0	-1.542730e+00	6.046136e-01	0.0	-9.760367e-01	5.359657e-01	0.0	-1.050139e+00	8.021496e-01	0.0	1.813435e+00	3.007428e+00	0.0	3.370759e-01	1.630299e+00	0.0	7.098637e-01	8.245110e-01	0.0	2.058849e-01	1.306809e+00	0.0	1.254058e-01	9.965829e-01	0.0	5.853733e-01	7.533086e-01	0.0	4.109812e-02	7.809419e-01	0.0	-5.393339e-01	2.124561e-01	0.0	5.970480e-01	9.062155e-02	0.0	1.016156e+00	1.454848e-01	0.0	-9.301592e-01	2.413074e-01	0.0	1.874135e+00	2.250332e-01	0.0	3.099220e-01	7.172242e-02	0.0	-2.726468e-01	1.147940e-01	0.0	-1.407979e+00	3.545231e+00	0.0	5.327216e-01	1.378846e+00	0.0	2.581697e+00	3.089922e+00	0.0	4.438999e-01	4.965963e-01	0.0	-1.812261e+00	3.384164e-01	0.0	-1.920809e+00	7.573418e-01	0.0	1.546942e+00	9.613023e-01	0.0	4.816694e-01	5.991018e-01	0.0	6.362244e-01	8.747043e-01	0.0	1.119966e+00	2.205369e+00	0.0	-2.478682e+00	2.555553e+00	0.0	1.560177e+00	3.496539e+00	0.0	-1.964048e-02	6.664028e-01	0.0	5.898824e-01	9.230640e-01	0.0	-2.409269e+00	3.090841e+00	0.0	2.347392e-01	8.676166e-01	0.0	9.142499e-01	2.360006e-01	0.0	7.957341e-01	2.407643e+00	0.0	-7.736137e-01	4.049524e-01	0.0	1.335942e-01	7.142977e-01	0.0	4.836969e-01	7.502946e-01	0.0	-2.080902e+00	1.125173e+00	0.0	3.761948e-01	6.028125e-01	0.0	3.913848e-02	5.633149e-01	0.0	2.833274e-01	4.512433e-01	0.0	1.317096e+00	8.062590e-01	0.0	2.416700e-01	3.777110e-01	0.0	-6.042067e-02	3.007162e-01	0.0	1.767617e-01	2.402997e-01	0.0	2.681327e-01	2.604187e-01	0.0	-2.657647e-03	4.720903e-01	0.0	2.504234e-01	1.343686e-01	0.0	-1.862005e-01	2.024257e-01	0.0	-6.810448e-01	7.572377e-01	0.0	1.572384e-01	1.200583e+00	0.0	2.205767e+00	6.471145e-01	0.0	8.786337e-01	1.113531e+00	0.0	1.966059e+00	1.032179e+00	0.0	4.777338e-01	1.074229e+00	0.0	8.749631e-01	4.458129e-01	0.0	-5.998658e-01	3.952335e-01	0.0	5.196076e-01	6.945677e-01	0.0	3.347395e-01	1.064435e+00	0.0	1.309032e-01	1.022804e-01	0.0	-1.032898e-01	1.313690e-01	0.0	-1.808348e+00	1.866647e+00	0.0	-1.966610e+00	2.239192e+00	0.0	-1.539658e-01	1.226716e+00	0.0	-7.290535e-01	3.095515e+00	0.0	5.779809e-01	1.250758e+00	0.0	1.419086e+00	1.111613e+00	0.0	-3.510466e-01	2.935413e+00	0.0	1.158585e+00	8.305075e-01	0.0	1.033335e+00	2.541171e+00	0.0	7.751504e-01	3.129076e+00	0.0	-1.050653e+00	1.044776e+00	0.0	2.206965e+00	2.818880e+00	0.0	1.445431e+00	3.104211e+00	0.0	-9.240162e-02	4.4672
[...]
POINT_DATA 394

SCALARS Density float 1
LOOKUP_TABLE default
1.223703e+00	1.223919e+00	1.221358e+00	1.221895e+00	1.223341e+00	1.223566e+00	1.223280e+00	1.223579e+00	1.223564e+00	1.223575e+00	1.223615e+00	1.223640e+00	1.223703e+00	1.223709e+00	1.223719e+00	1.223709e+00	1.223738e+00	1.223756e+00	1.223798e+00	1.223823e+00	1.223839e+00	1.223911e+00	1.223875e+00	1.223994e+00	1.223865e+00	1.224048e+00	1.223873e+00	1.223875e+00	1.223854e+00	1.223802e+00	1.223770e+00	1.223711e+00	1.223696e+00	1.223603e+00	1.223689e+00	1.222900e+00	1.224821e+00	1.219530e+00	1.223779e+00	1.223305e+00	1.223350e+00	1.223348e+00	1.223293e+00	1.223262e+00	1.223245e+00	1.223238e+00	1.223250e+00	1.223276e+00	1.223202e+00	1.223395e+00	1.223196e+00	1.223287e+00	1.223222e+00	1.223168e+00	1.223128e+00	1.223095e+00	1.223016e+00	1.223004e+00	1.223012e+00	1.223160e+00	1.222693e+00	1.223304e+00	1.223049e+00	1.222877e+00	1.222821e+00	1.222950e+00	1.223096e+00	1.223108e+00	1.223250e+00	1.223285e+00	1.223365e+00	1.223411e+00	1.223488e+00	1.223537e+00	1.223568e+00	1.223569e+00	1.222865e+00	1.223711e+00	1.223747e+00	1.222963e+00	1.223297e+00	1.223684e+00	1.223827e+00	1.223062e+00	1.223612e+00	1.223306e+00	1.223506e+00	1.223304e+00	1.223250e+00	1.223827e+00	1.223900e+00	1.223167e+00	1.223433e+00	1.223470e+00	1.223317e+00	1.223894e+00	1.222979e+00	1.223701e+00	1.223587e+00	1.223129e+00	1.223952e+00	1.223270e+00	1.223101e+00	1.223693e+00	1.222971e+00	1.222857e+00	1.223096e+00	1.223091e+00	1.222988e+00	1.222988e+00	1.223004e+00	1.223264e+00	1.222757e+00	1.222827e+00	1.222914e+00	1.223019e+00	1.222821e+00	1.223128e+00	1.223114e+00	1.223249e+00	1.223152e+00	1.223220e+00	1.223427e+00	1.223307e+00	1.222810e+00	1.223013e+00	1.223242e+00	1.222709e+00	1.222890e+00	1.223395e+00	1.223486e+00	1.223487e+00	1.223420e+00	1.223560e+00	1.223631e+00	1.223524e+00	1.223601e+00	1.223612e+00	1.223037e+00	1.222935e+00	1.223064e+00	1.223490e+00	1.223109e+00	1.223166e+00	1.220954e+00	1.221493e+00	1.222703e+00	1.222668e+00	1.223405e+00	1.223682e+00	1.223665e+00	1.223715e+00	1.223732e+00	1.223743e+00	1.223629e+00	1.223014e+00	1.222822e+00	1.223118e+00	1.223500e+00	1.223188e+00	1.221600e+00	1.223101e+00	1.222526e+00	1.222633e+00	1.222444e+00	1.222910e+00	1.223051e+00	1.222948e+00	1.223118e+00	1.223678e+00	1.223732e+00	1.223756e+00	1.223729e+00	1.223662e+00	1.222518e+00	1.223457e+00	1.223449e+00	1.223263e+00	1.223176e+00	1.223042e+00	1.223143e+00	1.223201e+00	1.223285e+00	1.223630e+00	1.223172e+00	1.223176e+00	1.222947e+00	1.223705e+00	1.223798e+00	1.223820e+00	1.223903e+00	1.223584e+00	1.223538e+00	1.223669e+00	1.223244e+00	1.223324e+00	1.223081e+00	1.223781e+00	1.223366e+00	1.222798e+00	1.223002e+00	1.222763e+00	1.222745e+00	1.222903e+00	1.222741e+00	1.222746e+00	1.223855e+00	1.223486e+00	1.223520e+00	1.223502e+00	1.223561e+00	1.223547e+00	1.223601e+00	1.223816e+00	1.223093e+00	1.223465e+00	1.223417e+00	1.223328e+00	1.223365e+00	1.223388e+00	1.223605e+00	1.222767e+00	1.223405e+00	1.223744e+00	1.223177e+00	1.223203e+00	1.223237e+00	1.223585e+00	1.223082e+00	1.223098e+00	1.222756e+00	1.223287e+00	1.223299e+00	1.223623e+00	1.223285e+00	1.223158e+00	1.222828e+00	1.223554e+00	1.223900e+00	1.223406e+00	1.223875e+00	1.223901e+00	1.223006e+00	1.222752e+00	1.223543e+00	1.223580e+00	1.222579e+00	1.223649e+00	1.222814e+00	1.223785e+00	1.223802e+00	1.223679e+00	1.223778e+00	1.223701e+00	1.223264e+00	1.223448e+00	1.223077e+00	1.223385e+00	1.223644e+00	1.223367e+00	1.223752e+00	1.223929e+00	1.223148e+00	1.223047e+00	1.223820e+00	1.222826e+00	1.223297e+00	1.223961e+00	1.223547e+00	1.223016e+00	1.223165e+00	1.223329e+00	1.223746e+00	1.223696e+00	1.222895e+00	1.223280e+00	1.222932e+00	1.223214e+00	1.223616e+00	1.223242e+00	1.223699e+00	1.223004e+00	1.223601e+00	1.223980e+00	1.223046e+00	1.223345e+00	1.223779e+00	1.223737e+00	1.223310e+00	1.223667e+00	1.223360e+00	1.223732e+00	1.223280e+00	1.222874e+00	1.223265e+00	1.223878e+00	1.223255e+00	1.223182e+00	1.223758e+00	1.223155e+00	1.223928e+00	1.223728e+00	1.223526e+00	1.222755e+00	1.222849e+00	1.223162e+00	1.225639e+00	1.223093e+00	1.223858e+00	1.223231e+00	1.223389e+00	1.223222e+00	1.223911e+00	1.223616e+00	1.223623e+00	1.223592e+00	1.223502e+00	1.222647e+00	1.222947e+00	1.223465e+00	1.222824e+00	1.223233e+00	1.223284e+00	1.223735e+00	1.223300e+00	1.223245e+00	1.223855e+00	1.223538e+00	1.223503e+00	1.223075e+00	1.223541e+00	1.222735e+00	1.223148e+00	1.223845e+00	1.223131e+00	1.223362e+00	1.223187e+00	1.223357e+00	1.223709e+00	1.223097e+00	1.223271e+00	1.223610e+00	1.222848e+00	1.223714e+00	1.223118e+00	1.222262e+00	1.223725e+00	1.223671e+00	1.223114e+00	1.223349e+00	1.222277e+00	1.223581e+00	1.223085e+00	1.223578e+00	1.223764e+00	1.225590e+00	1.223859e+00	1.223705e+00	1.223182e+00	1.223164e+00	1.223559e+00	1.223412e+00	1.223722e+00	1.223037e+00	1.223886e+00	1.222953e+00	1.222871e+00	1.223562e+00	1.222921e+00	1.223558e+00	1.223276e+00	1.223773e+00	1.223704e+00	1.223675e+00	1.223191e+00	1.223210e+00	1.223935e+00	1.223381e+00	1.223483e+00	1.223128e+00	1.223458e+00	1.222652e+00	1.223363e+00	1.223154e+00	1.223231e+00	1.223455e+00	1.223722e+00	1.222896e+00	1.223348e+00	1.222633e+00	1.223265e+00	1.222850e+00	1.223570e+00	1.222725e+00	
SCALARS X-Momentum float 1
LOOKUP_TABLE default
8.926053e+00	4.454709e-01	7.013136e+00	-3.710779e-01	-5.771444e-01	-4.159586e+00	1.616287e+01	1.041350e+01	1.028950e+01	1.009747e+01	9.860043e+00	9.585490e+00	9.329971e+00	9.088954e+00	8.784600e+00	8.497734e+00	8.065895e+00	7.500692e+00	6.852347e+00	6.101103e+00	5.238512e+00	4.383388e+00	3.366724e+00	2.344581e+00	1.318359e+00	1.265819e-01	6.071029e-01	1.272118e+00	2.011934e+00	2.783005e+00	3.516640e+00	4.194153e+00	4.835057e+00	5.422765e+00	5.827060e+00	5.752860e+00	5.321350e+00	3.586164e+00	7.766443e-01	1.049042e+00	1.607027e+00	1.971229e+00	2.195348e+00	2.285196e+00	2.182688e+00	1.920578e+00	1.550386e+00	1.097201e+00	6.600754e-01	2.987867e-01	-1.917430e+00	-3.476798e+00	-4.774419e+00	-5.899671e+00	-6.789552e+00	-7.460714e+00	-7.931022e+00	-8.164266e+00	-7.718045e+00	-6.813769e+00	-5.835173e+00	-2.773569e-01	5.194471e+00	1.046262e+01	1.419634e+01	1.597994e+01	1.637120e+01	1.547228e+01	1.461424e+01	1.367950e+01	1.290174e+01	1.225770e+01	1.170087e+01	1.120927e+01	1.080473e+01	1.053663e+01	6.011324e+00	1.863377e+00	7.966479e+00	-5.502679e+00	2.185047e+00	5.072884e+00	5.973146e+00	-5.226045e+00	9.801659e+00	1.254636e+01	1.137430e+01	1.379720e+01	1.245302e+00	3.083253e+00	4.051967e+00	-3.929560e+00	2.217253e+00	6.046572e+00	1.340080e-01	1.804696e+00	1.383209e+00	9.096760e+00	1.053690e+01	1.544757e+01	1.905555e+00	-1.814517e+00	-2.831938e+00	8.798609e+00	7.530260e+00	1.084709e+01	1.398263e+01	1.278195e+01	8.807005e+00	1.147238e+01	1.425062e+01	1.329457e+01	1.008280e+01	1.198808e+01	8.435395e+00	1.020098e+01	1.361121e+01	1.270171e+01	1.457106e+01	1.428263e+01	1.462512e+01	1.426514e+01	1.382822e+01	1.312253e+01	6.515274e+00	1.504472e+01	1.426416e+01	4.884301e+00	3.913334e+00	1.270893e+01	1.188616e+01	1.191809e+01	1.101973e+01	1.067450e+01	1.030233e+01	1.061341e+01	9.777686e+00	9.669552e+00	4.677576e+00	2.876937e+00	2.205306e+00	1.180503e+01	1.934251e+00	1.397315e+01	5.428269e+00	2.048930e+00	6.456721e+00	4.362394e+00	1.247832e+01	9.068387e+00	9.194371e+00	8.974395e+00	8.251644e+00	7.989257e+00	9.673071e+00	8.655546e-01	1.101855e+00	9.774514e-01	1.129364e+01	1.538840e+01	9.830503e+00	1.070855e+01	1.862824e+00	3.776497e+00	7.266884e+00	2.430962e+00	-6.791477e-01	-2.734042e-01	1.193923e+01	8.571348e+00	7.574994e+00	7.073682e+00	6.460425e+00	9.322005e+00	6.201480e+00	1.174306e+01	1.229844e+01	2.031333e+00	1.110491e+00	1.282077e+01	-2.315505e-01	-5.126815e-02	1.523761e+01	9.712855e+00	1.527139e+01	-1.562021e+00	-2.870159e+00	8.882182e+00	6.174873e+00	6.742369e+00	5.436886e+00	8.070393e+00	9.153114e+00	9.430335e+00	2.085889e+00	2.613552e+00	-1.768406e+00	5.527565e+00	1.490465e+01	-1.495577e+00	9.564156e-01	-7.962148e-01	2.406673e+00	8.200548e-01	1.007842e+01	9.023404e+00	5.333469e+00	1.005686e+01	1.117524e+01	1.125240e+01	1.076936e+01	1.087547e+01	1.040021e+01	4.471607e+00	1.241882e+01	1.321748e+01	1.116945e+01	1.319264e+01	1.282984e+01	1.379515e+01	1.008066e+01	3.298172e+00	1.209948e+01	7.063048e+00	-1.232714e+00	2.419642e-01	-7.520680e-01	1.066597e+01	9.449901e+00	1.552641e+01	7.786102e+00	1.528088e+01	1.446824e+01	1.004361e+01	1.242820e+00	1.345175e+00	-5.668326e+00	7.256466e+00	4.715847e+00	1.290951e+01	4.519827e+00	3.556856e+00	2.579135e+00	3.782535e+00	1.059949e+01	1.026766e+01	1.215692e+01	9.379261e+00	9.421256e+00	7.422795e+00	7.943716e+00	8.383782e+00	7.416826e+00	8.068564e+00	1.526555e+01	1.312911e+01	2.615549e+00	1.135658e+01	7.837821e+00	2.558937e+00	6.355235e+00	5.107787e+00	-4.701580e+00	-5.453600e+00	6.766170e+00	-4.620265e+00	-2.947346e+00	2.964643e+00	1.089863e+01	1.359567e+01	1.606168e+01	1.985863e+00	8.446101e+00	8.822667e+00	4.207650e+00	2.344062e+00	2.185896e+00	1.508463e+01	1.003372e+01	1.457888e+01	5.537391e+00	1.155717e+00	1.027601e+01	6.357709e+00	-3.448390e+00	1.425348e+01	6.674285e+00	5.602345e+00	2.020193e+00	9.155498e+00	2.244375e+00	4.537797e+00	1.976904e+00	2.576545e+00	1.663185e+00	2.386644e+00	7.407985e-01	3.850379e-01	3.821567e+00	-1.199537e+00	2.554696e+00	7.462699e+00	1.007518e+01	1.951855e-01	5.848152e+00	4.795255e+00	8.461850e+00	-4.266709e-01	5.989301e+00	2.486567e+00	8.615831e+00	-4.179514e-01	1.272751e+00	9.762536e+00	9.978577e+00	9.374465e+00	1.131362e+01	1.133613e+01	6.266753e+00	1.170525e+01	2.777219e+00	1.470224e+01	1.351030e+01	8.636412e+00	1.570171e+01	1.470302e+01	3.960855e+00	1.111938e+01	1.190364e+01	1.490518e+01	1.059094e+01	3.580049e+00	1.442716e+01	3.677007e+00	-2.855821e+00	1.482868e+01	-2.203603e+00	1.337044e+01	9.049258e+00	-3.275254e+00	1.372052e+01	1.013557e+01	2.691678e+00	8.426607e+00	-2.668962e+00	-2.784492e+00	8.957068e+00	7.024075e+00	7.485301e+00	1.230286e+01	8.392151e+00	1.017795e+01	1.135710e+01	1.037490e+01	4.595338e+00	6.691310e+00	3.391435e+00	8.715611e+00	-1.374928e-01	1.298019e+01	1.038955e+01	1.236377e+01	6.255173e+00	1.595978e+01	2.752775e+00	-3.416312e+00	-1.811330e+00	1.040316e+01	-1.880345e+00	1.099073e+01	1.264534e+01	7.179798e+00	8.777727e+00	9.646309e+00	1.011194e+00	1.845907e+00	9.078579e-01	-7.913398e-01	1.396982e+01	1.481399e+01	6.621438e+00	1.322871e+01	9.560068e+00	1.540692e+01	2.188636e+00	1.166844e+01	7.669841e+00	7.474898e+00	2.555894e+00	5.440788e+00	1.374054e+01	9.458094e+00	5.705597e+00	7.197902e+00	
SCALARS Y-Momentum float 1
LOOKUP_TABLE default
-1.814098e-02	4.395655e-01	5.022479e+00	-9.481755e-01	5.448289e-01	2.371460e-01	6.104196e-02	-1.203274e-02	1.430174e-02	4.066706e-02	5.582795e-02	7.215518e-02	6.007954e-02	1.043395e-02	-3.418119e-03	-1.153342e-04	7.071665e-03	6.292233e-03	1.234114e-02	1.508531e-02	2.374061e-03	3.089072e-02	1.401146e-02	8.525974e-03	-3.529654e-02	1.434408e+00	2.559943e+00	3.582506e+00	4.573225e+00	5.448788e+00	6.204334e+00	6.864833e+00	7.477133e+00	8.111048e+00	8.535594e+00	8.571512e+00	8.573901e+00	-2.817002e+00	8.941313e-01	1.632545e+00	2.342757e+00	2.920521e+00	3.308468e+00	3.545991e+00	3.598736e+00	3.475871e+00	3.201454e+00	2.771568e+00	2.225106e+00	1.463279e+00	-2.250185e-04	3.807492e-02	2.525700e-02	8.346452e-03	1.612784e-03	5.512862e-03	9.729411e-03	4.233948e-03	-3.909711e-02	-6.405948e-02	-1.025530e-01	-5.341143e-01	-4.913364e-01	2.042635e-02	7.059832e-01	8.960444e-01	5.138376e-01	1.009725e-02	-1.068865e-03	-1.045021e-02	-4.019098e-02	-2.656708e-02	-5.758548e-03	-5.704676e-03	1.557910e-03	-3.418937e-03	8.836830e+00	2.104256e+00	4.963433e-01	-2.011716e-01	3.157251e+00	6.575033e+00	9.106027e-01	4.163870e-01	3.697005e-01	3.547838e-01	4.162749e-01	8.277671e-01	2.958025e+00	4.524017e+00	1.048385e+00	5.981778e-01	2.717435e+00	7.703266e+00	2.154344e+00	2.806243e+00	-8.657167e-01	3.138890e-01	2.395914e-01	8.296349e-01	9.337877e-01	8.297001e-01	-6.361910e-01	2.408176e-01	-4.792504e-01	5.284182e-02	9.064879e-01	8.215171e-01	1.422266e-02	7.735994e-01	1.627720e+00	1.618611e+00	9.019728e-01	1.673712e+00	1.187802e+00	1.789190e+00	2.649097e+00	2.890823e+00	3.717215e+00	4.212295e+00	4.365239e+00	5.056061e+00	4.261476e+00	4.891079e+00	1.441747e+00	2.329683e+00	3.684137e+00	1.275536e+00	1.874629e+00	3.541964e+00	3.621992e+00	4.985063e+00	3.426148e+00	4.218773e+00	3.016409e+00	2.558634e+00	3.510950e+00	2.495244e+00	1.964234e+00	2.613888e+00	2.239383e+00	2.629195e+00	2.767045e+00	4.907226e+00	-6.110519e-02	2.068769e-01	1.079459e+00	9.162433e-01	2.513267e+00	2.700775e+00	1.978345e+00	3.786192e+00	2.567462e+00	3.541324e+00	1.827621e+00	2.130117e+00	1.691925e+00	2.367205e+00	6.084037e+00	2.008803e+00	5.020373e+00	4.321858e+00	1.802239e+00	1.828199e+00	1.826558e+00	2.815609e+00	1.426210e+00	9.214648e-01	7.714645e+00	4.892218e+00	4.562741e+00	3.336385e+00	4.217128e+00	1.427629e+00	1.827987e+00	1.845907e+00	1.647816e+00	2.934437e+00	2.460567e+00	6.694491e+00	1.897456e+00	2.036990e+00	2.348543e+00	1.313423e+00	1.872091e+00	1.423225e+00	6.150300e-01	1.440876e+00	2.952700e+00	2.409067e+00	3.423830e+00	6.332251e+00	6.509870e+00	9.168246e-01	2.873542e+00	3.227526e+00	1.312239e+00	4.566351e+00	3.275287e+00	3.157766e-01	3.328589e-01	-8.096509e-02	-1.923045e-01	-6.725074e-01	2.552952e+00	2.046482e+00	2.302993e+00	4.803646e+00	1.917849e+00	1.358722e+00	1.401306e+00	9.763132e-01	9.815731e-01	3.777423e+00	8.263835e+00	7.286552e+00	9.191246e+00	2.353456e+00	1.307148e+00	2.039293e+00	1.620231e+00	2.639288e+00	9.349212e-01	5.580015e+00	1.627236e+00	2.319343e+00	1.898107e+00	9.151379e+00	9.692979e+00	1.703248e+00	3.263486e-01	1.092134e+00	1.797897e+00	1.148007e+00	2.616963e+00	2.830323e+00	1.003287e-01	7.024283e+00	4.930246e+00	6.180981e-01	2.653768e+00	2.883151e+00	3.243230e+00	-9.253725e-01	5.965187e-01	5.751308e-01	3.258729e+00	4.385898e-01	1.828953e+00	6.252954e-01	1.084197e+00	8.299092e-01	1.415283e+00	1.712369e+00	1.431753e+00	5.941033e+00	3.388495e+00	7.939342e+00	8.018312e+00	2.890985e+00	6.501727e+00	1.154570e+00	4.824611e-01	3.117613e-01	7.666075e-01	-4.013167e-01	7.671812e-01	1.043839e+00	3.148508e-01	5.836922e+00	1.038978e+00	2.889459e+00	3.801191e-01	6.340288e-01	3.477768e-01	2.887601e+00	2.809261e+00	2.932501e+00	3.430722e-01	7.785636e-01	5.716460e+00	1.641777e+00	2.546391e-01	8.468761e+00	8.162218e-01	2.926229e+00	1.578542e+00	7.126289e+00	2.337603e+00	6.674447e-01	2.974981e+00	5.926975e+00	3.207897e+00	1.056514e+00	3.144924e+00	3.721205e+00	2.640289e+00	2.466627e+00	5.224900e+00	1.560621e+00	2.093829e+00	2.615332e+00	8.226186e+00	-9.018462e-01	1.899005e+00	-5.577827e-01	2.666464e+00	1.726215e+00	1.903521e+00	2.771501e+00	1.016015e+01	1.566318e+00	1.786684e+00	9.400279e-01	7.182737e-01	5.101632e+00	8.749739e-01	3.847847e+00	8.039520e-01	1.208900e+00	1.702753e+00	2.503321e+00	1.298729e+00	1.929381e+00	1.424677e+00	1.394274e+00	4.388597e+00	2.575089e+00	4.123169e-01	1.527742e+00	1.915142e+00	2.393560e+00	2.476273e+00	1.963696e+00	1.016917e+00	3.497640e+00	1.258435e+00	3.283129e+00	1.010844e+00	8.876839e-01	6.352999e+00	2.211291e+00	3.200541e+00	1.320673e+00	-4.127503e-01	-4.973672e-01	1.056509e-01	8.456994e+00	9.602320e+00	7.550758e+00	2.008246e+00	6.456408e+00	2.553037e+00	1.386011e+00	1.830912e+00	1.009071e+01	3.721170e+00	1.011711e+00	2.158743e+00	4.123496e+00	1.006125e-01	5.882845e-01	5.235005e+00	4.940117e-01	3.057547e+00	4.657200e-02	-7.303805e-01	4.194085e-01	1.170042e+00	6.346936e-01	6.559674e+00	2.015622e+00	8.215192e+00	5.848600e-01	2.752394e+00	2.936661e+00	8.224327e-01	8.347743e-01	5.828638e+00	3.855284e+00	7.595304e+00	3.481916e+00	4.229895e+00	1.441436e+00	2.961416e+00	7.245179e-01	2.043809e+00	-5.537462e-01	2.985162e+00	-1.029948e-01	3.078617e+00	7.316697e+00	6.379943e+00	1.570454e+00	
SCALARS Energy float 1
LOOKUP_TABLE default