# vtk DataFile Version 3.0
vtk output
ASCII
DATASET UNSTRUCTURED_GRID
POINTS 394 float
-3.000000e+00	0.000000e+00	0.0	-5.000000e-02	1.319612e-17	0.0	-3.085781e-03	1.002497e+00	0.0	9.694999e-02	9.986137e-01	0.0	5.000000e-02	-1.711390e-18	0.0	3.000000e+00	0.000000e+00	0.0	3.000000e+00	4.000000e+00	0.0	-3.000000e+00	4.000000e+00	0.0	-3.000000e+00	3.428571e+00	0.0	-3.000000e+00	2.857143e+00	0.0	-3.000000e+00	2.285714e+00	0.0	-3.000000e+00	1.714286e+00	0.0	-3.000000e+00	1.142857e+00	0.0	-3.000000e+00	5.714286e-01	0.0	-2.473871e+00	0.000000e+00	0.0	-2.029066e+00	0.000000e+00	0.0	-1.653013e+00	0.000000e+00	0.0	-1.335087e+00	0.000000e+00	0.0	-1.066302e+00	0.000000e+00	0.0	-8.390627e-01	0.000000e+00	0.0	-6.469477e-01	0.000000e+00	0.0	-4.845277e-01	0.000000e+00	0.0	-3.472127e-01	0.000000e+00	0.0	-2.311224e-01	0.000000e+00	0.0	-1.329760e-01	0.000000e+00	0.0	-4.843950e-02	7.835997e-02	0.0	-4.527802e-02	1.562808e-01	0.0	-4.099710e-02	2.337937e-01	0.0	-3.618520e-02	3.109765e-01	0.0	-3.129564e-02	3.879134e-01	0.0	-2.663915e-02	4.646943e-01	0.0	-2.238499e-02	5.414020e-01	0.0	-1.857800e-02	6.181056e-01	0.0	-1.516689e-02	6.948614e-01	0.0	-1.202564e-02	7.716981e-01	0.0	-9.033965e-03	8.486131e-01	0.0	-6.012466e-03	9.255621e-01	0.0	4.693069e-02	1.000590e+00	0.0	9.391836e-02	9.216724e-01	0.0	9.093855e-02	8.446994e-01	0.0	8.792686e-02	7.676810e-01	0.0	8.478845e-02	6.905813e-01	0.0	8.137771e-02	6.134003e-01	0.0	7.757099e-02	5.361649e-01	0.0	7.331710e-02	4.589281e-01	0.0	6.866407e-02	3.817615e-01	0.0	6.377818e-02	3.047514e-01	0.0	5.897127e-02	2.279920e-01	0.0	5.469868e-02	1.515694e-01	0.0	5.151880e-02	7.555579e-02	0.0	1.329760e-01	0.000000e+00	0.0	2.311224e-01	0.000000e+00	0.0	3.472127e-01	0.000000e+00	0.0	4.845277e-01	0.000000e+00	0.0	6.469477e-01	0.000000e+00	0.0	8.390627e-01	0.000000e+00	0.0	1.066302e+00	0.000000e+00	0.0	1.335087e+00	0.000000e+00	0.0	1.653013e+00	0.000000e+00	0.0	2.029066e+00	0.000000e+00	0.0	2.473871e+00	0.000000e+00	0.0	3.000000e+00	5.714286e-01	0.0	3.000000e+00	1.142857e+00	0.0	3.000000e+00	1.714286e+00	0.0	3.000000e+00	2.285714e+00	0.0	3.000000e+00	2.857143e+00	0.0	3.000000e+00	3.428571e+00	0.0	2.400000e+00	4.000000e+00	0.0	1.800000e+00	4.000000e+00	0.0	1.200000e+00	4.000000e+00	0.0	6.000000e-01	4.000000e+00	0.0	0.000000e+00	4.000000e+00	0.0	-6.000000e-01	4.000000e+00	0.0	-1.200000e+00	4.000000e+00	0.0	-1.800000e+00	4.000000e+00	0.0	-2.400000e+00	4.000000e+00	0.0	-9.087893e-02	8.910922e-01	0.0	1.400524e-01	8.854792e-01	0.0	-1.482391e+00	2.518524e-01	0.0	1.501993e+00	2.254781e-01	0.0	1.238040e-01	5.713903e-01	0.0	-1.076911e-01	5.798017e-01	0.0	-7.454792e-01	1.638474e-01	0.0	7.483266e-01	1.568410e-01	0.0	-2.585778e+00	2.077835e+00	0.0	2.520788e+00	1.944808e+00	0.0	-9.265069e-01	3.509795e+00	0.0	9.167155e-01	3.460120e+00	0.0	1.208331e-01	3.439002e-01	0.0	-1.139522e-01	3.479502e-01	0.0	-4.137335e-01	1.117855e-01	0.0	4.168160e-01	1.083729e-01	0.0	1.344608e-01	7.260263e-01	0.0	-1.031563e-01	7.341020e-01	0.0	1.232406e-01	1.941704e-01	0.0	-1.203753e-01	1.961100e-01	0.0	2.525284e+00	8.135875e-01	0.0	-2.503549e+00	7.882454e-01	0.0	-2.057729e+00	3.452418e+00	0.0	2.066918e+00	3.438320e+00	0.0	-1.836081e-01	7.525775e-02	0.0	1.843114e-01	7.428344e-02	0.0	2.225036e+00	3.961784e-01	0.0	-2.250480e+00	3.570932e-01	0.0	2.469246e+00	1.404371e+00	0.0	2.091968e+00	1.710565e+00	0.0	2.070596e+00	2.115541e+00	0.0	1.727924e+00	1.863131e+00	0.0	1.712552e+00	1.471876e+00	0.0	1.417140e+00	1.667682e+00	0.0	1.392118e+00	2.006618e+00	0.0	1.137634e+00	1.799897e+00	0.0	1.148042e+00	1.507443e+00	0.0	9.144337e-01	1.617896e+00	0.0	9.221874e-01	1.376977e+00	0.0	7.033655e-01	1.446866e+00	0.0	6.841648e-01	1.698308e+00	0.0	4.986717e-01	1.551243e+00	0.0	4.748509e-01	1.779704e+00	0.0	3.039139e-01	1.660888e+00	0.0	2.682114e-01	1.871920e+00	0.0	1.077773e-01	1.738659e+00	0.0	5.352647e-02	1.962830e+00	0.0	-1.192113e-01	1.784451e+00	0.0	7.463716e-01	1.239364e+00	0.0	1.092885e+00	2.131556e+00	0.0	2.749282e-01	2.136405e+00	0.0	9.100965e-01	1.135248e+00	0.0	7.383070e-01	1.053209e+00	0.0	-1.828776e-01	2.067923e+00	0.0	-3.888162e-01	1.896504e+00	0.0	-3.217563e-01	1.617185e+00	0.0	-5.961212e-01	1.725874e+00	0.0	-5.413915e-01	1.474571e+00	0.0	-7.981534e-01	1.557277e+00	0.0	-8.242622e-01	1.800512e+00	0.0	-7.449580e-01	1.296896e+00	0.0	-1.011975e+00	1.383087e+00	0.0	5.966270e-01	1.127409e+00	0.0	5.888523e-01	9.619093e-01	0.0	7.301955e-01	8.752960e-01	0.0	-4.523271e-01	2.185715e+00	0.0	5.805943e-01	7.924741e-01	0.0	1.465325e-01	1.516906e+00	0.0	4.695018e-02	1.047685e+00	0.0	1.072905e-01	1.039611e+00	0.0	7.461270e-02	1.101637e+00	0.0	1.457320e-01	1.102992e+00	0.0	-2.088599e-01	2.375572e+00	0.0	-9.490212e-01	1.115678e+00	0.0	-1.234655e+00	1.197514e+00	0.0	-6.925297e-01	1.034935e+00	0.0	-9.134540e-01	8.337457e-01	0.0	-6.666723e-01	8.058467e-01	0.0	-1.300286e+00	1.500783e+00	0.0	7.201517e-01	7.032178e-01	0.0	8.788575e-01	7.812863e-01	0.0	5.678986e-01	6.363211e-01	0.0	-3.330798e-01	1.367029e+00	0.0	1.360911e+00	2.360227e+00	0.0	-1.973699e-03	1.091868e+00	0.0	3.560414e-02	1.168100e+00	0.0	1.797564e-01	1.027439e+00	0.0	2.298530e-01	1.101281e+00	0.0	1.835332e-01	1.180809e+00	0.0	2.705208e-01	1.011849e+00	0.0	8.621609e-01	6.045014e-01	0.0	1.055698e+00	6.934061e-01	0.0	-5.442667e-02	1.160107e+00	0.0	-5.015512e-01	9.275613e-01	0.0	-4.748511e-01	7.481553e-01	0.0	-6.132935e-01	6.224022e-01	0.0	-4.224002e-01	5.854021e-01	0.0	-1.552871e+00	1.289934e+00	0.0	2.946650e-01	1.189697e+00	0.0	-5.121766e-01	2.509420e+00	0.0	-2.335407e-01	2.732019e+00	0.0	4.438813e-01	7.145934e-01	0.0	4.319789e-01	5.675382e-01	0.0	-8.964735e-03	1.252963e+00	0.0	5.491653e-01	4.879172e-01	0.0	4.167829e-01	4.264118e-01	0.0	1.032328e+00	2.496565e+00	0.0	-1.623766e+00	1.634003e+00	0.0	1.320323e+00	2.741718e+00	0.0	5.219617e-01	3.472380e-01	0.0	1.034426e+00	4.277004e-01	0.0	-1.470312e+00	9.959386e-01	0.0	-5.550909e-01	4.603660e-01	0.0	-7.218335e-01	4.871622e-01	0.0	-4.043180e-01	4.249156e-01	0.0	-3.358819e-01	8.769323e-01	0.0	-3.697734e-01	1.033284e+00	0.0	-1.988815e+00	1.411137e+00	0.0	3.168127e-01	6.473636e-01	0.0	3.387464e-01	7.836116e-01	0.0	6.693530e-01	4.032919e-01	0.0	-2.981012e-01	5.136124e-01	0.0	6.268987e-01	1.959128e+00	0.0	1.230637e+00	5.955410e-01	0.0	1.258402e+00	8.185300e-01	0.0	1.463357e+00	6.714073e-01	0.0	1.499557e+00	9.502093e-01	0.0	1.778940e+00	8.076278e-01	0.0	2.306513e-01	1.284321e+00	0.0	3.551977e-01	1.288293e+00	0.0	-5.094272e-01	3.097248e-01	0.0	-5.186880e-01	1.268147e+00	0.0	-7.765751e-01	2.289713e+00	0.0	-8.566948e-01	2.654242e+00	0.0	-1.145454e+00	2.426076e+00	0.0	-1.231916e+00	2.801161e+00	0.0	-1.601898e+00	2.461272e+00	0.0	-2.664393e-01	3.802710e-01	0.0	-1.190169e-01	1.242800e+00	0.0	-7.734776e-02	1.355021e+00	0.0	-1.533037e-01	1.141409e+00	0.0	1.054528e-01	2.564436e+00	0.0	1.154987e-01	3.018728e+00	0.0	4.420287e-01	2.779509e+00	0.0	-1.349381e+00	1.843629e+00	0.0	4.607874e-01	1.039500e+00	0.0	-3.004513e-01	3.148461e+00	0.0	-3.258037e-01	7.196812e-01	0.0	3.937182e-01	2.943192e-01	0.0	2.824392e-01	3.695991e-01	0.0	2.736694e-01	2.567821e-01	0.0	-8.825854e-02	1.080761e+00	0.0	-1.701959e-01	1.042848e+00	0.0	1.681496e+00	2.599881e+00	0.0	1.362938e+00	1.361515e+00	0.0	2.447968e+00	2.507411e+00	0.0	9.008326e-01	2.910520e+00	0.0	-1.687418e+00	2.004621e+00	0.0	2.969793e-01	5.055299e-01	0.0	2.027539e-01	4.432513e-01	0.0	1.206383e+00	2.064802e-01	0.0	-2.356902e-01	8.055093e-01	0.0	-1.973305e-01	4.647866e-01	0.0	3.659688e-01	3.516053e+00	0.0	-3.656865e-01	2.928108e-01	0.0	-2.490383e-01	2.657533e-01	0.0	4.432895e-01	8.846917e-01	0.0	2.114825e+00	1.075607e+00	0.0	-1.670021e+00	3.019501e+00	0.0	-2.020778e+00	2.668722e+00	0.0	2.836490e-01	1.405143e+00	0.0	-2.490454e+00	1.298438e+00	0.0	5.297024e-01	1.359048e+00	0.0	-1.194083e+00	2.224286e-01	0.0	-1.310600e+00	4.741900e-01	0.0	-1.596006e+00	5.266667e-01	0.0	-1.041163e+00	4.384896e-01	0.0	-1.148196e+00	6.872552e-01	0.0	1.639848e+00	3.044973e+00	0.0	-1.242194e-01	1.590999e+00	0.0	3.248094e-01	9.044843e-01	0.0	-2.365867e-01	1.226277e+00	0.0	-2.291830e-01	8.978624e-01	0.0	2.312998e-01	8.333614e-01	0.0	-2.050533e-01	6.874774e-01	0.0	-5.601985e-01	1.628569e-01	0.0	5.676247e-01	1.238295e-01	0.0	9.657496e-01	2.016577e-01	0.0	-9.520510e-01	1.920875e-01	0.0	1.828640e+00	2.760839e-01	0.0	2.928448e-01	8.996909e-02	0.0	-2.834881e-01	9.331362e-02	0.0	-1.486125e+00	3.526360e+00	0.0	5.391942e-02	1.367345e+00	0.0	2.521749e+00	3.104722e+00	0.0	2.365572e-01	5.782059e-01	0.0	-1.831217e+00	2.976474e-01	0.0	-1.973868e+00	6.811135e-01	0.0	1.305888e+00	1.083628e+00	0.0	2.177789e-01	6.752361e-01	0.0	2.125418e-01	9.368424e-01	0.0	7.593999e-01	2.242215e+00	0.0	-2.529277e+00	2.525911e+00	0.0	1.442588e+00	3.515215e+00	0.0	-2.101174e-01	5.791156e-01	0.0	1.313792e-01	9.680643e-01	0.0	-2.458639e+00	3.077139e+00	0.0	-9.707217e-02	8.115389e-01	0.0	8.240326e-01	3.164363e-01	0.0	4.337151e-01	2.422739e+00	0.0	-8.246178e-01	3.263024e-01	0.0	-1.056512e-01	6.569497e-01	0.0	1.400069e-01	8.037636e-01	0.0	-2.149999e+00	1.048359e+00	0.0	1.275548e-01	6.515967e-01	0.0	-1.188402e-01	5.087318e-01	0.0	1.243250e-01	4.956982e-01	0.0	1.059799e+00	9.386748e-01	0.0	1.236410e-01	4.171512e-01	0.0	-1.141336e-01	2.706637e-01	0.0	1.190650e-01	2.680650e-01	0.0	1.942512e-01	3.056562e-01	0.0	-1.178466e-01	4.262593e-01	0.0	2.181819e-01	1.637340e-01	0.0	-2.117668e-01	1.699505e-01	0.0	-7.988785e-01	6.396389e-01	0.0	-2.596537e-01	1.106755e+00	0.0	2.117627e+00	7.356911e-01	0.0	4.486492e-01	1.188559e+00	0.0	1.779628e+00	1.147727e+00	0.0	-1.083704e-03	1.045004e+00	0.0	6.987300e-01	5.501714e-01	0.0	-6.528845e-01	3.185396e-01	0.0	2.018840e-01	7.655506e-01	0.0	-9.943609e-02	1.010234e+00	0.0	1.162146e-01	1.148272e-01	0.0	-1.163500e-01	1.174110e-01	0.0	-1.939789e+00	1.782717e+00	0.0	-2.079302e+00	2.170133e+00	0.0	-5.004798e-01	1.100141e+00	0.0	-9.047291e-01	3.062261e+00	0.0	9.145431e-02	1.249727e+00	0.0	1.118382e+00	1.233834e+00	0.0	-5.714825e-01	2.894730e+00	0.0	8.635692e-01	9.565485e-01	0.0	7.138949e-01	2.570264e+00	0.0	5.486397e-01	3.136973e+00	0.0	-1.186445e+00	9.239064e-01	0.0	2.064024e+00	2.863475e+00	0.0	1.258179e+0
[...]
POINT_DATA 394

SCALARS Density float 1
LOOKUP_TABLE default
1.223754e+00	1.223961e+00	1.222395e+00	1.222014e+00	1.223550e+00	1.223784e+00	1.223247e+00	1.223612e+00	1.223594e+00	1.223608e+00	1.223657e+00	1.223688e+00	1.223766e+00	1.223772e+00	1.223783e+00	1.223762e+00	1.223796e+00	1.223819e+00	1.223856e+00	1.223879e+00	1.223902e+00	1.223942e+00	1.223923e+00	1.223985e+00	1.223918e+00	1.223997e+00	1.223921e+00	1.223938e+00	1.223939e+00	1.223927e+00	1.223917e+00	1.223883e+00	1.223880e+00	1.223800e+00	1.223881e+00	1.223085e+00	1.224873e+00	1.220687e+00	1.223905e+00	1.223543e+00	1.223554e+00	1.223488e+00	1.223433e+00	1.223404e+00	1.223405e+00	1.223412e+00	1.223440e+00	1.223476e+00	1.223419e+00	1.223645e+00	1.223423e+00	1.223531e+00	1.223446e+00	1.223377e+00	1.223331e+00	1.223300e+00	1.223206e+00	1.223256e+00	1.223251e+00	1.223379e+00	1.222911e+00	1.223506e+00	1.223179e+00	1.222973e+00	1.222849e+00	1.222943e+00	1.223083e+00	1.223105e+00	1.223227e+00	1.223269e+00	1.223356e+00	1.223416e+00	1.223499e+00	1.223557e+00	1.223593e+00	1.223595e+00	1.223419e+00	1.223747e+00	1.223806e+00	1.223191e+00	1.223453e+00	1.223829e+00	1.223863e+00	1.223299e+00	1.223655e+00	1.223298e+00	1.223529e+00	1.223308e+00	1.223445e+00	1.223902e+00	1.223924e+00	1.223416e+00	1.223576e+00	1.223673e+00	1.223533e+00	1.223941e+00	1.223046e+00	1.223756e+00	1.223618e+00	1.223111e+00	1.223954e+00	1.223510e+00	1.223299e+00	1.223750e+00	1.222979e+00	1.222972e+00	1.223128e+00	1.223117e+00	1.223075e+00	1.223055e+00	1.223043e+00	1.223269e+00	1.222957e+00	1.222980e+00	1.223014e+00	1.223174e+00	1.222933e+00	1.223221e+00	1.223155e+00	1.223268e+00	1.223209e+00	1.223258e+00	1.223477e+00	1.223359e+00	1.223184e+00	1.223030e+00	1.223278e+00	1.222980e+00	1.223193e+00	1.223440e+00	1.223535e+00	1.223556e+00	1.223500e+00	1.223644e+00	1.223699e+00	1.223597e+00	1.223695e+00	1.223677e+00	1.223282e+00	1.223269e+00	1.223305e+00	1.223556e+00	1.223346e+00	1.223259e+00	1.222466e+00	1.222238e+00	1.222836e+00	1.223095e+00	1.223430e+00	1.223739e+00	1.223738e+00	1.223792e+00	1.223787e+00	1.223813e+00	1.223697e+00	1.223234e+00	1.223074e+00	1.223334e+00	1.223565e+00	1.223202e+00	1.222019e+00	1.223282e+00	1.223228e+00	1.223086e+00	1.222878e+00	1.223301e+00	1.223245e+00	1.223155e+00	1.223169e+00	1.223771e+00	1.223779e+00	1.223844e+00	1.223832e+00	1.223702e+00	1.222994e+00	1.223509e+00	1.223487e+00	1.223457e+00	1.223383e+00	1.223164e+00	1.223327e+00	1.223380e+00	1.223277e+00	1.223683e+00	1.223147e+00	1.223427e+00	1.223085e+00	1.223760e+00	1.223868e+00	1.223887e+00	1.223915e+00	1.223804e+00	1.223688e+00	1.223718e+00	1.223423e+00	1.223475e+00	1.223264e+00	1.223917e+00	1.223340e+00	1.223039e+00	1.223170e+00	1.222950e+00	1.222954e+00	1.223049e+00	1.223024e+00	1.222997e+00	1.223946e+00	1.223616e+00	1.223552e+00	1.223538e+00	1.223606e+00	1.223578e+00	1.223646e+00	1.223895e+00	1.223231e+00	1.223499e+00	1.223512e+00	1.223368e+00	1.223390e+00	1.223414e+00	1.223652e+00	1.223192e+00	1.223417e+00	1.223881e+00	1.223383e+00	1.223414e+00	1.223441e+00	1.223749e+00	1.223084e+00	1.223086e+00	1.222935e+00	1.223306e+00	1.223297e+00	1.223669e+00	1.223450e+00	1.223375e+00	1.223026e+00	1.223760e+00	1.223976e+00	1.223410e+00	1.223894e+00	1.223939e+00	1.223328e+00	1.222964e+00	1.223571e+00	1.223609e+00	1.222783e+00	1.223701e+00	1.223133e+00	1.223836e+00	1.223869e+00	1.223737e+00	1.223834e+00	1.223782e+00	1.223265e+00	1.223533e+00	1.223387e+00	1.223462e+00	1.223725e+00	1.223585e+00	1.223875e+00	1.223943e+00	1.223367e+00	1.223255e+00	1.223866e+00	1.223006e+00	1.223530e+00	1.223971e+00	1.223566e+00	1.223131e+00	1.223159e+00	1.223486e+00	1.223802e+00	1.223744e+00	1.223034e+00	1.223457e+00	1.223315e+00	1.223223e+00	1.223651e+00	1.223233e+00	1.223835e+00	1.223328e+00	1.223635e+00	1.223973e+00	1.223248e+00	1.223344e+00	1.223862e+00	1.223871e+00	1.223559e+00	1.223719e+00	1.223513e+00	1.223866e+00	1.223438e+00	1.223099e+00	1.223447e+00	1.223928e+00	1.223464e+00	1.223415e+00	1.223868e+00	1.223396e+00	1.223964e+00	1.223847e+00	1.223677e+00	1.223001e+00	1.223136e+00	1.223313e+00	1.224166e+00	1.223308e+00	1.223935e+00	1.223477e+00	1.223509e+00	1.223461e+00	1.223938e+00	1.223666e+00	1.223669e+00	1.223733e+00	1.223534e+00	1.222875e+00	1.223132e+00	1.223489e+00	1.223093e+00	1.223244e+00	1.223301e+00	1.223812e+00	1.223307e+00	1.223236e+00	1.223965e+00	1.223598e+00	1.223521e+00	1.223075e+00	1.223596e+00	1.223214e+00	1.223188e+00	1.223896e+00	1.223330e+00	1.223361e+00	1.223387e+00	1.223378e+00	1.223781e+00	1.223267e+00	1.223334e+00	1.223659e+00	1.223274e+00	1.223769e+00	1.223330e+00	1.222511e+00	1.223796e+00	1.223867e+00	1.223513e+00	1.223477e+00	1.222928e+00	1.223667e+00	1.223180e+00	1.223630e+00	1.223884e+00	1.224816e+00	1.223955e+00	1.223770e+00	1.223380e+00	1.223328e+00	1.223577e+00	1.223437e+00	1.223873e+00	1.223033e+00	1.223957e+00	1.223176e+00	1.223095e+00	1.223606e+00	1.223196e+00	1.223595e+00	1.223348e+00	1.223842e+00	1.223848e+00	1.223720e+00	1.223362e+00	1.223371e+00	1.223966e+00	1.223593e+00	1.223485e+00	1.223148e+00	1.223726e+00	1.222938e+00	1.223504e+00	1.223162e+00	1.223408e+00	1.223493e+00	1.223799e+00	1.223009e+00	1.223500e+00	1.222827e+00	1.223326e+00	1.223139e+00	1.223813e+00	1.223031e+00	
SCALARS X-Momentum float 1
LOOKUP_TABLE default
7.953958e+00	2.319719e-01	4.159641e+00	5.900076e-01	-6.213594e-01	-5.183555e+00	1.644401e+01	1.001328e+01	9.844316e+00	9.588947e+00	9.275987e+00	8.911447e+00	8.551340e+00	8.195883e+00	7.765784e+00	7.409561e+00	6.873447e+00	6.211430e+00	5.477554e+00	4.673648e+00	3.825473e+00	3.044690e+00	2.222839e+00	1.468264e+00	7.750239e-01	-2.138187e-02	4.465679e-02	1.311269e-01	1.932609e-01	2.495985e-01	3.008394e-01	3.441762e-01	3.871513e-01	4.306701e-01	4.477827e-01	4.194896e-01	1.981315e-01	4.668243e+00	4.887022e-01	3.206324e-01	3.464234e-01	3.310276e-01	3.427991e-01	3.649818e-01	3.596674e-01	3.306734e-01	2.923605e-01	2.181039e-01	1.558103e-01	1.192503e-01	-1.937996e+00	-3.498702e+00	-4.848866e+00	-6.110380e+00	-7.166968e+00	-7.954723e+00	-8.540619e+00	-8.822647e+00	-8.328982e+00	-7.502649e+00	-6.678878e+00	-1.496296e+00	3.908312e+00	9.412074e+00	1.359731e+01	1.582348e+01	1.650498e+01	1.580454e+01	1.490913e+01	1.390935e+01	1.305242e+01	1.231434e+01	1.163627e+01	1.102309e+01	1.051978e+01	1.017875e+01	1.099593e+00	9.664408e-01	6.723291e+00	-6.047525e+00	3.846451e-01	1.205007e+00	4.420061e+00	-5.800041e+00	9.175455e+00	1.206097e+01	1.112694e+01	1.387681e+01	-8.442078e-02	8.959314e-01	2.626077e+00	-4.319589e+00	6.792789e-01	1.363877e+00	-5.419034e-01	6.780401e-01	6.132672e-01	8.201941e+00	1.013460e+01	1.564461e+01	1.055731e+00	-2.043070e+00	-3.478138e+00	7.794982e+00	6.904063e+00	1.061947e+01	1.383073e+01	1.271744e+01	8.806997e+00	1.156467e+01	1.421270e+01	1.328888e+01	1.029540e+01	1.201154e+01	8.794117e+00	1.030155e+01	1.321758e+01	1.213372e+01	1.379179e+01	1.319047e+01	1.368424e+01	1.300654e+01	1.290674e+01	1.194336e+01	6.999617e+00	1.489642e+01	1.361340e+01	5.347257e+00	4.209619e+00	1.192168e+01	1.094950e+01	1.053388e+01	9.946500e+00	9.218563e+00	9.127377e+00	9.686602e+00	8.209724e+00	8.486879e+00	5.086995e+00	2.825167e+00	2.012716e+00	1.113839e+01	1.196262e+00	1.245638e+01	5.322158e+00	2.594183e+00	6.121630e+00	4.540938e+00	1.194432e+01	7.631477e+00	8.054998e+00	7.021711e+00	6.611024e+00	5.854842e+00	8.717554e+00	1.884904e-01	8.881385e-01	-1.537794e-01	9.363740e+00	1.533638e+01	7.819782e+00	8.917449e+00	2.096740e+00	4.073080e+00	6.945488e+00	2.391934e+00	-1.238047e+00	-5.222688e-01	9.267557e+00	5.938222e+00	4.788212e+00	4.900279e+00	3.756403e+00	8.364448e+00	6.354450e+00	1.125488e+01	1.193828e+01	7.338705e-01	-2.977132e-01	1.052207e+01	-1.392618e+00	-1.298057e+00	1.511371e+01	8.899853e+00	1.527353e+01	-2.530522e+00	-3.402499e+00	7.777090e+00	4.123507e+00	4.925455e+00	3.169627e+00	4.612768e+00	6.198028e+00	8.602567e+00	5.178058e-01	1.251765e+00	-2.678057e+00	2.685716e+00	1.437560e+01	-1.830626e+00	8.797923e-01	-1.062926e+00	2.345436e+00	5.230903e-01	9.323641e+00	8.821880e+00	3.493871e+00	8.164788e+00	1.056219e+01	1.078526e+01	1.019906e+01	1.041303e+01	9.832576e+00	2.145553e+00	9.847911e+00	1.103575e+01	8.079016e+00	1.279724e+01	1.263941e+01	1.359984e+01	9.296065e+00	3.483469e+00	1.186898e+01	3.618589e+00	-2.180611e+00	-9.853160e-01	-1.614320e+00	7.350997e+00	5.730109e+00	1.554421e+01	8.006419e+00	1.511503e+01	1.442671e+01	9.355955e+00	-2.644323e-01	-1.941814e-01	-6.261358e+00	3.144336e+00	1.845108e+00	1.290511e+01	2.641300e+00	1.776625e+00	1.880656e+00	3.444319e+00	1.015015e+01	9.741282e+00	1.115852e+01	8.593779e+00	9.416938e+00	6.054448e+00	6.624224e+00	7.214482e+00	5.915596e+00	6.649099e+00	1.536414e+01	1.159726e+01	1.767634e+00	8.778442e+00	3.609379e+00	1.288611e+00	2.382727e+00	3.522633e+00	-5.204536e+00	-6.024083e+00	5.279527e+00	-5.162566e+00	-3.244797e+00	1.782662e+00	1.056899e+01	1.161494e+01	1.614945e+01	3.157560e-01	7.329414e+00	7.805384e+00	4.365062e+00	7.046652e-01	1.489018e+00	1.475266e+01	9.477086e+00	1.474775e+01	2.089468e+00	8.886875e-01	9.798674e+00	1.371005e+00	-4.135720e+00	1.386899e+01	5.042185e+00	1.300625e+00	8.123648e-01	8.262188e+00	5.226433e-01	1.184592e+00	2.255032e-01	2.750083e+00	7.605830e-02	7.643251e-01	-2.728470e-01	-7.205303e-01	1.050050e+00	-1.737065e+00	1.301917e+00	5.652292e+00	7.005286e+00	-2.367687e-01	6.217162e+00	4.694890e+00	6.902300e+00	-1.351316e+00	4.251415e+00	1.001889e+00	4.530295e+00	-7.823909e-01	5.701537e-01	9.038237e+00	9.351428e+00	7.073535e+00	1.095569e+01	9.822875e+00	6.612211e+00	1.135232e+01	2.958706e+00	1.450109e+01	1.345292e+01	7.330462e+00	1.576379e+01	1.477662e+01	1.528217e+00	1.031812e+01	1.176542e+01	1.486287e+01	9.848126e+00	3.891487e+00	1.417813e+01	2.160912e+00	-3.549668e+00	1.431471e+01	-2.815302e+00	1.273017e+01	8.076582e+00	-4.012811e+00	1.189879e+01	9.190152e+00	2.483314e+00	7.195276e+00	-3.091611e+00	-3.695531e+00	8.001246e+00	2.315221e+00	3.081410e+00	1.007090e+01	7.539278e+00	7.755825e+00	1.081309e+01	9.718493e+00	2.945393e+00	1.895861e+00	1.397291e+00	7.625300e+00	-9.624949e-01	1.143593e+01	9.970596e+00	1.226542e+01	2.961394e+00	1.620136e+01	1.190337e+00	-3.893748e+00	-2.270706e+00	9.936850e+00	-2.613995e+00	1.061567e+01	1.080618e+01	5.513150e+00	5.093839e+00	8.940841e+00	-3.643418e-01	1.614363e-01	4.664862e-01	-9.367624e-01	1.245374e+01	1.412780e+01	2.137589e+00	1.223795e+01	7.626270e+00	1.537076e+01	4.602388e-01	1.141091e+01	6.069912e+00	7.261610e+00	1.027825e+00	5.543734e+00	1.323459e+01	6.646460e+00	1.832816e+00	7.616818e+00	
SCALARS Y-Momentum float 1
LOOKUP_TABLE default
-2.520736e-02	2.276516e-01	7.318129e+00	-3.142300e-01	5.996262e-01	2.226626e-01	6.342166e-02	-1.368898e-02	2.303450e-02	5.429617e-02	7.661444e-02	9.980947e-02	8.771213e-02	2.321240e-02	-4.070699e-03	2.256919e-04	5.417232e-03	3.271497e-03	9.188498e-03	1.086295e-02	-8.891126e-03	2.502970e-03	-2.131150e-03	6.785147e-03	-1.830700e-02	7.169517e-01	1.283300e+00	1.880998e+00	2.556770e+00	3.267527e+00	3.988340e+00	4.731100e+00	5.521609e+00	6.404441e+00	7.215155e+00	7.688111e+00	8.416956e+00	-2.821706e-01	2.298120e+00	3.359138e+00	4.223716e+00	4.824004e+00	5.169375e+00	5.287854e+00	5.150728e+00	4.793337e+00	4.270379e+00	3.576343e+00	2.742275e+00	1.701907e+00	-5.838859e-03	2.518355e-02	2.845506e-02	1.195018e-02	1.010712e-02	2.240019e-02	2.367411e-02	2.032203e-03	-5.595896e-02	-7.579442e-02	-9.639623e-02	-5.145877e-01	-5.999268e-01	-2.763405e-01	3.531269e-01	6.445735e-01	4.182414e-01	1.668828e-02	6.519862e-03	-3.094047e-03	-3.743295e-02	-2.321602e-02	-2.250409e-03	-4.657624e-03	5.021425e-03	-1.316319e-03	8.298243e+00	3.621516e+00	5.079378e-01	-2.538863e-01	4.957162e+00	4.868097e+00	7.180021e-01	6.620448e-01	4.532731e-01	1.158242e-01	5.302537e-01	8.678874e-01	4.161885e+00	2.761543e+00	6.803550e-01	9.268185e-01	4.580731e+00	6.409822e+00	2.855778e+00	1.528423e+00	-8.428867e-01	3.797276e-01	3.074846e-01	7.954006e-01	5.239489e-01	1.049059e+00	-6.284416e-01	2.834152e-01	-5.762198e-01	-1.679781e-03	7.798503e-01	9.146477e-01	1.807872e-01	1.150831e+00	1.853603e+00	2.171607e+00	1.549703e+00	2.549312e+00	2.082016e+00	3.035228e+00	3.610543e+00	4.181806e+00	4.520617e+00	5.138909e+00	4.896896e+00	5.598045e+00	4.661418e+00	5.325574e+00	2.477102e+00	2.638931e+00	4.054778e+00	1.905065e+00	2.536093e+00	3.938948e+00	4.068847e+00	5.457463e+00	3.898128e+00	4.696071e+00	3.438960e+00	2.994691e+00	3.868689e+00	2.819258e+00	2.947890e+00	3.249408e+00	2.704361e+00	3.038044e+00	3.419433e+00	5.844728e+00	1.842042e+00	1.543855e+00	3.095056e+00	2.670242e+00	2.857304e+00	2.911056e+00	2.215540e+00	3.947456e+00	2.633683e+00	3.482087e+00	2.118613e+00	2.644147e+00	1.967131e+00	3.226766e+00	6.590621e+00	2.100078e+00	6.598409e+00	5.855854e+00	2.932767e+00	3.323952e+00	3.733217e+00	3.769598e+00	1.736850e+00	1.015178e+00	8.655089e+00	4.926544e+00	4.267346e+00	3.029689e+00	3.550374e+00	1.650828e+00	3.565126e+00	2.192819e+00	1.928472e+00	3.984301e+00	3.665654e+00	7.617769e+00	2.824725e+00	3.170204e+00	2.494755e+00	1.549399e+00	1.896273e+00	2.249118e+00	7.494842e-01	1.621913e+00	2.443391e+00	2.113049e+00	2.602084e+00	6.173072e+00	6.781196e+00	1.087026e+00	4.348617e+00	4.439335e+00	1.947651e+00	3.465763e+00	3.872013e+00	2.933804e-01	3.922890e-01	-1.379555e-01	-1.588739e-01	-6.844138e-01	4.347809e+00	3.796225e+00	1.744712e+00	5.255235e+00	2.301397e+00	1.659882e+00	1.713213e+00	1.208688e+00	1.202846e+00	2.599290e+00	8.838771e+00	7.882892e+00	9.720741e+00	2.626074e+00	1.495723e+00	2.219872e+00	1.923972e+00	3.522773e+00	1.133110e+00	4.950284e+00	2.515738e+00	3.491629e+00	2.754794e+00	1.000200e+01	1.005978e+01	1.657340e+00	6.848166e-01	8.763172e-01	1.885012e+00	1.382197e+00	4.055379e+00	4.295661e+00	1.263060e-01	6.427617e+00	3.484845e+00	6.999100e-01	1.853507e+00	1.827229e+00	4.019867e+00	-8.777413e-01	7.451818e-01	7.050950e-01	4.753193e+00	5.339407e-01	3.395178e+00	5.947992e-01	1.099976e+00	8.957607e-01	1.336916e+00	1.757843e+00	1.400290e+00	6.404279e+00	4.316699e+00	8.449006e+00	7.774962e+00	4.346912e+00	5.425883e+00	8.332289e-01	7.921947e-01	4.671926e-01	6.700003e-01	-4.583270e-01	1.064344e+00	6.283958e-01	4.018878e-01	6.758002e+00	9.204436e-01	4.553699e+00	4.188354e-01	7.263308e-01	5.605186e-01	4.647916e+00	3.871895e+00	3.259641e+00	4.239507e-01	7.776891e-01	4.371710e+00	2.627878e+00	3.191871e-01	7.438443e+00	1.171266e+00	3.198557e+00	1.355217e+00	5.603642e+00	4.117810e+00	7.911443e-01	4.851226e+00	4.153883e+00	4.853919e+00	1.306687e+00	4.574452e+00	2.131084e+00	3.594377e+00	3.525837e+00	3.419346e+00	2.135471e+00	1.215495e+00	2.496040e+00	8.668170e+00	-8.941954e-01	3.290741e+00	-4.790347e-01	5.042039e+00	2.358442e+00	1.526111e+00	4.511036e+00	1.060033e+01	1.965007e+00	9.486561e-01	1.126031e+00	8.732326e-01	5.396037e+00	1.087469e+00	5.416329e+00	1.307281e+00	1.475486e+00	2.103775e+00	2.675774e+00	1.418474e+00	2.081162e+00	1.323869e+00	1.402145e+00	2.887383e+00	3.024334e+00	5.193333e-01	1.521526e+00	2.289489e+00	3.574509e+00	3.100920e+00	1.259233e+00	1.625181e+00	3.883694e+00	1.878372e+00	3.621108e+00	1.175625e+00	1.416606e+00	6.935933e+00	2.579229e+00	3.991969e+00	1.425761e+00	-4.860562e-01	-4.639322e-01	1.299417e-01	7.792566e+00	9.441111e+00	8.063826e+00	3.925154e+00	6.933714e+00	4.133566e+00	1.679080e+00	1.263321e+00	1.002768e+01	2.313638e+00	1.137853e+00	2.999673e+00	5.495020e+00	1.309545e-01	7.078028e-01	4.279079e+00	4.603052e-01	1.788472e+00	-2.168653e-02	-7.758379e-01	5.233127e-01	1.580704e+00	8.005808e-01	7.055461e+00	1.849906e+00	8.399140e+00	7.065613e-01	4.042029e+00	4.608699e+00	4.368239e-01	9.924652e-01	6.341022e+00	4.368805e+00	6.616505e+00	4.790951e+00	4.559231e+00	1.310021e+00	4.762630e+00	9.105239e-01	2.001746e+00	-4.974627e-01	4.553336e+00	5.524613e-02	3.378319e+00	9.031504e+00	4.986571e+00	2.897479e+00	
SCALARS Energy float 1
LOOKUP_TABLE default