# vtk DataFile Version 3.0
vtk output
ASCII
DATASET UNSTRUCTURED_GRID
POINTS 394 float
-3.000000e+00	0.000000e+00	0.0	-5.000000e-02	1.249600e-17	0.0	-1.794257e-02	1.001087e+00	0.0	8.209116e-02	9.997846e-01	0.0	5.000000e-02	-1.383079e-18	0.0	3.000000e+00	0.000000e+00	0.0	3.000000e+00	4.000000e+00	0.0	-3.000000e+00	4.000000e+00	0.0	-3.000000e+00	3.428571e+00	0.0	-3.000000e+00	2.857143e+00	0.0	-3.000000e+00	2.285714e+00	0.0	-3.000000e+00	1.714286e+00	0.0	-3.000000e+00	1.142857e+00	0.0	-3.000000e+00	5.714286e-01	0.0	-2.473871e+00	0.000000e+00	0.0	-2.029066e+00	0.000000e+00	0.0	-1.653013e+00	0.000000e+00	0.0	-1.335087e+00	0.000000e+00	0.0	-1.066302e+00	0.000000e+00	0.0	-8.390627e-01	0.000000e+00	0.0	-6.469477e-01	0.000000e+00	0.0	-4.845277e-01	0.000000e+00	0.0	-3.472127e-01	0.000000e+00	0.0	-2.311224e-01	0.000000e+00	0.0	-1.329760e-01	0.000000e+00	0.0	-4.847985e-02	7.829540e-02	0.0	-4.551735e-02	1.561086e-01	0.0	-4.164180e-02	2.334847e-01	0.0	-3.746782e-02	3.105143e-01	0.0	-3.344679e-02	3.873022e-01	0.0	-2.985590e-02	4.639526e-01	0.0	-2.682388e-02	5.405431e-01	0.0	-2.438563e-02	6.171257e-01	0.0	-2.250856e-02	6.937519e-01	0.0	-2.107914e-02	7.704633e-01	0.0	-1.995021e-02	8.472789e-01	0.0	-1.888418e-02	9.241698e-01	0.0	3.207336e-02	1.000469e+00	0.0	8.105275e-02	9.228382e-01	0.0	8.003209e-02	8.458397e-01	0.0	7.888383e-02	7.687630e-01	0.0	7.745700e-02	6.915784e-01	0.0	7.558091e-02	6.143064e-01	0.0	7.314238e-02	5.369876e-01	0.0	7.010919e-02	4.596689e-01	0.0	6.651922e-02	3.824018e-01	0.0	6.250002e-02	3.052644e-01	0.0	5.832711e-02	2.283605e-01	0.0	5.445616e-02	1.517945e-01	0.0	5.147221e-02	7.565247e-02	0.0	1.329760e-01	0.000000e+00	0.0	2.311224e-01	0.000000e+00	0.0	3.472127e-01	0.000000e+00	0.0	4.845277e-01	0.000000e+00	0.0	6.469477e-01	0.000000e+00	0.0	8.390627e-01	0.000000e+00	0.0	1.066302e+00	0.000000e+00	0.0	1.335087e+00	0.000000e+00	0.0	1.653013e+00	0.000000e+00	0.0	2.029066e+00	0.000000e+00	0.0	2.473871e+00	0.000000e+00	0.0	3.000000e+00	5.714286e-01	0.0	3.000000e+00	1.142857e+00	0.0	3.000000e+00	1.714286e+00	0.0	3.000000e+00	2.285714e+00	0.0	3.000000e+00	2.857143e+00	0.0	3.000000e+00	3.428571e+00	0.0	2.400000e+00	4.000000e+00	0.0	1.800000e+00	4.000000e+00	0.0	1.200000e+00	4.000000e+00	0.0	6.000000e-01	4.000000e+00	0.0	0.000000e+00	4.000000e+00	0.0	-6.000000e-01	4.000000e+00	0.0	-1.200000e+00	4.000000e+00	0.0	-1.800000e+00	4.000000e+00	0.0	-2.400000e+00	4.000000e+00	0.0	-1.024471e-01	8.890563e-01	0.0	1.282010e-01	8.873845e-01	0.0	-1.483282e+00	2.503458e-01	0.0	1.500936e+00	2.269684e-01	0.0	1.186801e-01	5.728243e-01	0.0	-1.129869e-01	5.780721e-01	0.0	-7.462772e-01	1.624653e-01	0.0	7.474238e-01	1.583347e-01	0.0	-2.587713e+00	2.076812e+00	0.0	2.517892e+00	1.946572e+00	0.0	-9.305737e-01	3.509453e+00	0.0	9.122565e-01	3.461081e+00	0.0	1.189835e-01	3.448910e-01	0.0	-1.158722e-01	3.469430e-01	0.0	-4.141619e-01	1.108993e-01	0.0	4.163258e-01	1.092091e-01	0.0	1.263212e-01	7.277601e-01	0.0	-1.113669e-01	7.320642e-01	0.0	1.226121e-01	1.947910e-01	0.0	-1.210488e-01	1.955082e-01	0.0	2.524087e+00	8.155868e-01	0.0	-2.504718e+00	7.868263e-01	0.0	-2.059651e+00	3.451671e+00	0.0	2.064815e+00	3.439262e+00	0.0	-1.837613e-01	7.494333e-02	0.0	1.841630e-01	7.460134e-02	0.0	2.224024e+00	3.978754e-01	0.0	-2.251084e+00	3.560684e-01	0.0	2.466349e+00	1.406793e+00	0.0	2.087228e+00	1.713727e+00	0.0	2.065456e+00	2.118021e+00	0.0	1.721388e+00	1.866470e+00	0.0	1.706709e+00	1.475936e+00	0.0	1.409211e+00	1.671681e+00	0.0	1.383952e+00	2.009948e+00	0.0	1.128031e+00	1.803613e+00	0.0	1.138949e+00	1.511683e+00	0.0	9.037146e-01	1.621662e+00	0.0	9.120080e-01	1.381278e+00	0.0	6.913833e-01	1.450687e+00	0.0	6.719704e-01	1.701287e+00	0.0	4.851544e-01	1.553953e+00	0.0	4.618368e-01	1.781813e+00	0.0	2.899027e-01	1.662682e+00	0.0	2.548171e-01	1.873367e+00	0.0	9.347280e-02	1.739298e+00	0.0	4.016549e-02	1.963459e+00	0.0	-1.335179e-01	1.784177e+00	0.0	7.354551e-01	1.243553e+00	0.0	1.083479e+00	2.134619e+00	0.0	2.625203e-01	2.137729e+00	0.0	9.009719e-01	1.139920e+00	0.0	7.287346e-01	1.057464e+00	0.0	-1.954995e-01	2.067746e+00	0.0	-4.014296e-01	1.895124e+00	0.0	-3.359991e-01	1.615465e+00	0.0	-6.079295e-01	1.723192e+00	0.0	-5.538993e-01	1.471107e+00	0.0	-8.088166e-01	1.553820e+00	0.0	-8.348696e-01	1.797523e+00	0.0	-7.556533e-01	1.292374e+00	0.0	-1.020788e+00	1.379065e+00	0.0	5.854081e-01	1.131147e+00	0.0	5.789936e-01	9.658151e-01	0.0	7.222144e-01	8.794670e-01	0.0	-4.637637e-01	2.184558e+00	0.0	5.727985e-01	7.963915e-01	0.0	1.316953e-01	1.517773e+00	0.0	3.183713e-02	1.047489e+00	0.0	9.221862e-02	1.040614e+00	0.0	5.941525e-02	1.101871e+00	0.0	1.308600e-01	1.104028e+00	0.0	-2.202365e-01	2.375285e+00	0.0	-9.569018e-01	1.111359e+00	0.0	-1.241170e+00	1.193473e+00	0.0	-7.021019e-01	1.030308e+00	0.0	-9.187663e-01	8.293348e-01	0.0	-6.733136e-01	8.012351e-01	0.0	-1.307683e+00	1.497053e+00	0.0	7.140356e-01	7.072183e-01	0.0	8.724542e-01	7.856828e-01	0.0	5.620914e-01	6.399670e-01	0.0	-3.472912e-01	1.364256e+00	0.0	1.353161e+00	2.362943e+00	0.0	-1.719829e-02	1.090913e+00	0.0	2.031116e-02	1.167905e+00	0.0	1.656059e-01	1.029120e+00	0.0	2.156464e-01	1.103131e+00	0.0	1.686429e-01	1.182100e+00	0.0	2.575134e-01	1.014277e+00	0.0	8.574807e-01	6.085525e-01	0.0	1.050695e+00	6.975270e-01	0.0	-6.946834e-02	1.158825e+00	0.0	-5.111717e-01	9.230689e-01	0.0	-4.818695e-01	7.437227e-01	0.0	-6.179638e-01	6.185661e-01	0.0	-4.271829e-01	5.815004e-01	0.0	-1.558300e+00	1.286177e+00	0.0	2.806082e-01	1.191830e+00	0.0	-5.220731e-01	2.508472e+00	0.0	-2.429210e-01	2.731549e+00	0.0	4.365347e-01	7.183315e-01	0.0	4.268111e-01	5.707741e-01	0.0	-2.423341e-02	1.252360e+00	0.0	5.451794e-01	4.910000e-01	0.0	4.135380e-01	4.289568e-01	0.0	1.023503e+00	2.498841e+00	0.0	-1.629840e+00	1.630801e+00	0.0	1.313477e+00	2.743901e+00	0.0	5.195346e-01	3.496235e-01	0.0	1.031658e+00	4.309721e-01	0.0	-1.474688e+00	9.922057e-01	0.0	-5.580850e-01	4.573137e-01	0.0	-7.249657e-01	4.839467e-01	0.0	-4.070773e-01	4.221422e-01	0.0	-3.459900e-01	8.726106e-01	0.0	-3.816690e-01	1.029362e+00	0.0	-1.992862e+00	1.408290e+00	0.0	3.101863e-01	6.507912e-01	0.0	3.298454e-01	7.871745e-01	0.0	6.663157e-01	4.062061e-01	0.0	-3.021977e-01	5.105331e-01	0.0	6.146652e-01	1.961319e+00	0.0	1.226826e+00	5.991109e-01	0.0	1.253331e+00	8.227096e-01	0.0	1.459775e+00	6.750162e-01	0.0	1.494467e+00	9.542836e-01	0.0	1.775658e+00	8.109966e-01	0.0	2.160813e-01	1.285895e+00	0.0	3.413016e-01	1.290594e+00	0.0	-5.110089e-01	3.075705e-01	0.0	-5.307439e-01	1.263967e+00	0.0	-7.865012e-01	2.287968e+00	0.0	-8.648132e-01	2.653040e+00	0.0	-1.153364e+00	2.424161e+00	0.0	-1.238365e+00	2.800098e+00	0.0	-1.608016e+00	2.459195e+00	0.0	-2.686512e-01	3.780875e-01	0.0	-1.338802e-01	1.241168e+00	0.0	-9.241964e-02	1.353967e+00	0.0	-1.676986e-01	1.139148e+00	0.0	9.441176e-02	2.565189e+00	0.0	1.076479e-01	3.019030e+00	0.0	4.327487e-01	2.780744e+00	0.0	-1.357007e+00	1.840500e+00	0.0	4.490311e-01	1.043050e+00	0.0	-3.069806e-01	3.147855e+00	0.0	-3.330138e-01	7.155953e-01	0.0	3.919744e-01	2.961284e-01	0.0	2.801911e-01	3.716818e-01	0.0	2.724490e-01	2.582027e-01	0.0	-1.028249e-01	1.078856e+00	0.0	-1.837047e-01	1.040164e+00	0.0	1.675556e+00	2.602238e+00	0.0	1.355591e+00	1.365933e+00	0.0	2.444727e+00	2.508765e+00	0.0	8.932095e-01	2.912182e+00	0.0	-1.693482e+00	2.001758e+00	0.0	2.927758e-01	5.084425e-01	0.0	1.995914e-01	4.451980e-01	0.0	1.205288e+00	2.079999e-01	0.0	-2.450271e-01	8.018856e-01	0.0	-2.006633e-01	4.626621e-01	0.0	3.614444e-01	3.516233e+00	0.0	-3.671301e-01	2.910014e-01	0.0	-2.502050e-01	2.643205e-01	0.0	4.331311e-01	8.884169e-01	0.0	2.111427e+00	1.078935e+00	0.0	-1.674135e+00	3.018572e+00	0.0	-2.024558e+00	2.667580e+00	0.0	2.692855e-01	1.406943e+00	0.0	-2.492471e+00	1.296586e+00	0.0	5.168497e-01	1.362193e+00	0.0	-1.194951e+00	2.208805e-01	0.0	-1.312747e+00	4.714381e-01	0.0	-1.598013e+00	5.240194e-01	0.0	-1.043452e+00	4.352709e-01	0.0	-1.151735e+00	6.834209e-01	0.0	1.634849e+00	3.046613e+00	0.0	-1.390543e-01	1.590277e+00	0.0	3.137369e-01	9.075274e-01	0.0	-2.508507e-01	1.223685e+00	0.0	-2.401198e-01	8.943479e-01	0.0	2.211603e-01	8.361725e-01	0.0	-2.120666e-01	6.843927e-01	0.0	-5.608278e-01	1.613889e-01	0.0	5.669873e-01	1.249235e-01	0.0	9.646125e-01	2.034886e-01	0.0	-9.528352e-01	1.905008e-01	0.0	1.827609e+00	2.776715e-01	0.0	2.925268e-01	9.050928e-02	0.0	-2.837639e-01	9.274795e-02	0.0	-1.489012e+00	3.525904e+00	0.0	3.876222e-02	1.367442e+00	0.0	2.520029e+00	3.105328e+00	0.0	2.312021e-01	5.808756e-01	0.0	-1.831977e+00	2.962233e-01	0.0	-1.975914e+00	6.784905e-01	0.0	1.299482e+00	1.087937e+00	0.0	2.106611e-01	6.778011e-01	0.0	2.000176e-01	9.391686e-01	0.0	7.484118e-01	2.244310e+00	0.0	-2.531138e+00	2.524978e+00	0.0	1.439225e+00	3.516119e+00	0.0	-2.153441e-01	5.763282e-01	0.0	1.173774e-01	9.696813e-01	0.0	-2.460451e+00	3.076778e+00	0.0	-1.068807e-01	8.094993e-01	0.0	8.218975e-01	3.191134e-01	0.0	4.224033e-01	2.424102e+00	0.0	-8.263723e-01	3.237983e-01	0.0	-1.122596e-01	6.550721e-01	0.0	1.301911e-01	8.056256e-01	0.0	-2.152653e+00	1.045756e+00	0.0	1.209685e-01	6.531567e-01	0.0	-1.229217e-01	5.070844e-01	0.0	1.204517e-01	4.970431e-01	0.0	1.052931e+00	9.433507e-01	0.0	1.209278e-01	4.183204e-01	0.0	-1.153318e-01	2.698958e-01	0.0	1.179411e-01	2.688423e-01	0.0	1.926948e-01	3.069884e-01	0.0	-1.207111e-01	4.249595e-01	0.0	2.175949e-01	1.645714e-01	0.0	-2.123512e-01	1.691006e-01	0.0	-8.029464e-01	6.357883e-01	0.0	-2.730181e-01	1.103573e+00	0.0	2.115555e+00	7.384701e-01	0.0	4.358330e-01	1.191650e+00	0.0	1.774776e+00	1.151657e+00	0.0	-1.604261e-02	1.043962e+00	0.0	6.942524e-01	5.536994e-01	0.0	-6.546260e-01	3.161474e-01	0.0	1.929778e-01	7.680108e-01	0.0	-1.131192e-01	1.008206e+00	0.0	1.159939e-01	1.151349e-01	0.0	-1.166008e-01	1.171110e-01	0.0	-1.944672e+00	1.780027e+00	0.0	-2.083481e+00	2.167929e+00	0.0	-5.118461e-01	1.095989e+00	0.0	-9.108659e-01	3.061614e+00	0.0	7.613981e-02	1.250080e+00	0.0	1.110071e+00	1.238323e+00	0.0	-5.790519e-01	2.894001e+00	0.0	8.555066e-01	9.611075e-01	0.0	7.041418e-01	2.572020e+00	0.0	5.416211e-01	3.137850e+00	0.0	-1.191405e+00	9.198986e-01	0.0	2.059947e+00	2.865251e+00	0.0	1.252749e+0
[...]
POINT_DATA 394

SCALARS Density float 1
LOOKUP_TABLE default
1.223755e+00	1.223965e+00	1.222435e+00	1.222005e+00	1.223552e+00	1.223789e+00	1.223245e+00	1.223612e+00	1.223594e+00	1.223609e+00	1.223658e+00	1.223689e+00	1.223768e+00	1.223773e+00	1.223784e+00	1.223764e+00	1.223798e+00	1.223822e+00	1.223859e+00	1.223882e+00	1.223907e+00	1.223945e+00	1.223927e+00	1.223989e+00	1.223922e+00	1.224000e+00	1.223926e+00	1.223943e+00	1.223945e+00	1.223934e+00	1.223927e+00	1.223894e+00	1.223890e+00	1.223811e+00	1.223892e+00	1.223098e+00	1.224887e+00	1.220710e+00	1.223917e+00	1.223552e+00	1.223560e+00	1.223489e+00	1.223432e+00	1.223401e+00	1.223401e+00	1.223410e+00	1.223440e+00	1.223476e+00	1.223420e+00	1.223648e+00	1.223426e+00	1.223534e+00	1.223449e+00	1.223378e+00	1.223332e+00	1.223301e+00	1.223207e+00	1.223259e+00	1.223255e+00	1.223382e+00	1.222915e+00	1.223511e+00	1.223181e+00	1.222974e+00	1.222849e+00	1.222943e+00	1.223083e+00	1.223104e+00	1.223225e+00	1.223267e+00	1.223354e+00	1.223414e+00	1.223498e+00	1.223556e+00	1.223593e+00	1.223595e+00	1.223448e+00	1.223752e+00	1.223809e+00	1.223193e+00	1.223451e+00	1.223839e+00	1.223867e+00	1.223301e+00	1.223656e+00	1.223297e+00	1.223528e+00	1.223307e+00	1.223445e+00	1.223909e+00	1.223928e+00	1.223418e+00	1.223577e+00	1.223683e+00	1.223535e+00	1.223946e+00	1.223047e+00	1.223757e+00	1.223618e+00	1.223110e+00	1.223958e+00	1.223513e+00	1.223302e+00	1.223752e+00	1.222980e+00	1.222975e+00	1.223128e+00	1.223116e+00	1.223074e+00	1.223055e+00	1.223042e+00	1.223266e+00	1.222959e+00	1.222979e+00	1.223011e+00	1.223170e+00	1.222932e+00	1.223221e+00	1.223151e+00	1.223266e+00	1.223208e+00	1.223258e+00	1.223477e+00	1.223359e+00	1.223187e+00	1.223028e+00	1.223278e+00	1.222979e+00	1.223194e+00	1.223441e+00	1.223535e+00	1.223558e+00	1.223502e+00	1.223648e+00	1.223701e+00	1.223598e+00	1.223698e+00	1.223680e+00	1.223283e+00	1.223271e+00	1.223306e+00	1.223557e+00	1.223348e+00	1.223256e+00	1.222506e+00	1.222246e+00	1.222822e+00	1.223093e+00	1.223430e+00	1.223741e+00	1.223741e+00	1.223797e+00	1.223790e+00	1.223818e+00	1.223699e+00	1.223236e+00	1.223076e+00	1.223335e+00	1.223567e+00	1.223201e+00	1.222026e+00	1.223277e+00	1.223244e+00	1.223088e+00	1.222878e+00	1.223304e+00	1.223246e+00	1.223155e+00	1.223164e+00	1.223777e+00	1.223783e+00	1.223849e+00	1.223840e+00	1.223703e+00	1.222995e+00	1.223509e+00	1.223487e+00	1.223459e+00	1.223385e+00	1.223161e+00	1.223328e+00	1.223380e+00	1.223275e+00	1.223685e+00	1.223146e+00	1.223429e+00	1.223084e+00	1.223762e+00	1.223874e+00	1.223891e+00	1.223917e+00	1.223815e+00	1.223695e+00	1.223719e+00	1.223423e+00	1.223472e+00	1.223265e+00	1.223926e+00	1.223338e+00	1.223041e+00	1.223171e+00	1.222951e+00	1.222957e+00	1.223049e+00	1.223017e+00	1.222993e+00	1.223951e+00	1.223621e+00	1.223552e+00	1.223538e+00	1.223606e+00	1.223578e+00	1.223647e+00	1.223902e+00	1.223230e+00	1.223497e+00	1.223514e+00	1.223367e+00	1.223389e+00	1.223414e+00	1.223653e+00	1.223193e+00	1.223416e+00	1.223888e+00	1.223384e+00	1.223416e+00	1.223442e+00	1.223752e+00	1.223080e+00	1.223084e+00	1.222936e+00	1.223305e+00	1.223295e+00	1.223670e+00	1.223449e+00	1.223376e+00	1.223027e+00	1.223773e+00	1.223981e+00	1.223409e+00	1.223899e+00	1.223945e+00	1.223332e+00	1.222969e+00	1.223571e+00	1.223609e+00	1.222778e+00	1.223702e+00	1.223134e+00	1.223839e+00	1.223872e+00	1.223739e+00	1.223837e+00	1.223786e+00	1.223262e+00	1.223535e+00	1.223392e+00	1.223463e+00	1.223732e+00	1.223591e+00	1.223882e+00	1.223946e+00	1.223369e+00	1.223257e+00	1.223870e+00	1.223008e+00	1.223533e+00	1.223974e+00	1.223566e+00	1.223125e+00	1.223158e+00	1.223485e+00	1.223804e+00	1.223745e+00	1.223033e+00	1.223459e+00	1.223328e+00	1.223223e+00	1.223651e+00	1.223231e+00	1.223843e+00	1.223327e+00	1.223636e+00	1.223977e+00	1.223248e+00	1.223342e+00	1.223867e+00	1.223881e+00	1.223561e+00	1.223720e+00	1.223509e+00	1.223875e+00	1.223436e+00	1.223100e+00	1.223445e+00	1.223933e+00	1.223464e+00	1.223416e+00	1.223876e+00	1.223399e+00	1.223968e+00	1.223853e+00	1.223684e+00	1.223005e+00	1.223133e+00	1.223315e+00	1.224102e+00	1.223309e+00	1.223939e+00	1.223486e+00	1.223519e+00	1.223463e+00	1.223943e+00	1.223667e+00	1.223669e+00	1.223739e+00	1.223534e+00	1.222869e+00	1.223133e+00	1.223488e+00	1.223095e+00	1.223243e+00	1.223298e+00	1.223815e+00	1.223306e+00	1.223234e+00	1.223972e+00	1.223600e+00	1.223520e+00	1.223073e+00	1.223597e+00	1.223217e+00	1.223187e+00	1.223901e+00	1.223331e+00	1.223358e+00	1.223388e+00	1.223379e+00	1.223783e+00	1.223268e+00	1.223335e+00	1.223660e+00	1.223281e+00	1.223772e+00	1.223334e+00	1.222516e+00	1.223798e+00	1.223875e+00	1.223530e+00	1.223478e+00	1.222938e+00	1.223673e+00	1.223175e+00	1.223631e+00	1.223890e+00	1.224794e+00	1.223961e+00	1.223773e+00	1.223380e+00	1.223325e+00	1.223577e+00	1.223436e+00	1.223881e+00	1.223032e+00	1.223962e+00	1.223178e+00	1.223099e+00	1.223607e+00	1.223199e+00	1.223595e+00	1.223347e+00	1.223847e+00	1.223855e+00	1.223721e+00	1.223360e+00	1.223370e+00	1.223970e+00	1.223595e+00	1.223482e+00	1.223147e+00	1.223738e+00	1.222935e+00	1.223509e+00	1.223162e+00	1.223410e+00	1.223493e+00	1.223803e+00	1.223012e+00	1.223500e+00	1.222830e+00	1.223325e+00	1.223143e+00	1.223824e+00	1.223031e+00	
SCALARS X-Momentum float 1
LOOKUP_TABLE default
7.932507e+00	2.286248e-01	3.956187e+00	5.289489e-01	-6.244588e-01	-5.194756e+00	1.643445e+01	1.001473e+01	9.844169e+00	9.586411e+00	9.270132e+00	8.901582e+00	8.536923e+00	8.177345e+00	7.742754e+00	7.384262e+00	6.844739e+00	6.179987e+00	5.443732e+00	4.638829e+00	3.792176e+00	3.013906e+00	2.197402e+00	1.449507e+00	7.639268e-01	-1.861801e-02	4.893316e-02	1.326795e-01	1.852730e-01	2.230671e-01	2.475489e-01	2.601805e-01	2.696783e-01	2.753960e-01	2.560262e-01	2.031750e-01	-4.777186e-02	4.593212e+00	3.930087e-01	2.092067e-01	2.265948e-01	2.124094e-01	2.365931e-01	2.769374e-01	2.959312e-01	2.923877e-01	2.738369e-01	2.120765e-01	1.562501e-01	1.207872e-01	-1.946980e+00	-3.512503e+00	-4.866664e+00	-6.132355e+00	-7.192381e+00	-7.981421e+00	-8.568225e+00	-8.847969e+00	-8.347374e+00	-7.516492e+00	-6.690262e+00	-1.507609e+00	3.898092e+00	9.403953e+00	1.359057e+01	1.581625e+01	1.649613e+01	1.579759e+01	1.490517e+01	1.391012e+01	1.305746e+01	1.232226e+01	1.164446e+01	1.102965e+01	1.052438e+01	1.018148e+01	8.913105e-01	8.560055e-01	6.692770e+00	-6.061511e+00	2.885863e-01	1.103978e+00	4.382160e+00	-5.826528e+00	9.167694e+00	1.207000e+01	1.113138e+01	1.387916e+01	-1.156921e-01	8.680453e-01	2.595398e+00	-4.342574e+00	5.554931e-01	1.203834e+00	-5.516921e-01	6.695998e-01	6.166212e-01	8.183041e+00	1.013567e+01	1.564158e+01	1.041702e+00	-2.054826e+00	-3.480637e+00	7.772269e+00	6.916466e+00	1.064489e+01	1.384818e+01	1.274775e+01	8.843811e+00	1.160749e+01	1.424276e+01	1.333064e+01	1.034526e+01	1.206235e+01	8.846125e+00	1.035604e+01	1.326090e+01	1.217932e+01	1.382216e+01	1.321902e+01	1.370066e+01	1.301724e+01	1.291056e+01	1.194008e+01	7.044416e+00	1.492100e+01	1.362093e+01	5.384798e+00	4.227427e+00	1.191817e+01	1.093937e+01	1.051583e+01	9.928098e+00	9.188045e+00	9.102120e+00	9.669829e+00	8.169788e+00	8.458857e+00	5.108629e+00	2.811200e+00	2.002101e+00	1.113220e+01	1.153393e+00	1.247500e+01	5.254765e+00	2.553407e+00	6.088436e+00	4.523548e+00	1.194226e+01	7.593786e+00	8.027366e+00	6.965857e+00	6.566092e+00	5.792048e+00	8.696920e+00	1.591782e-01	8.853169e-01	-2.068345e-01	9.324390e+00	1.535177e+01	7.730881e+00	8.880539e+00	2.051045e+00	4.064529e+00	6.953070e+00	2.350660e+00	-1.255593e+00	-5.212636e-01	9.196211e+00	5.854942e+00	4.701249e+00	4.838544e+00	3.679674e+00	8.343241e+00	6.376213e+00	1.125230e+01	1.193872e+01	6.592290e-01	-3.658285e-01	1.049330e+01	-1.440558e+00	-1.348922e+00	1.512329e+01	8.884352e+00	1.527855e+01	-2.568411e+00	-3.417557e+00	7.750570e+00	4.069947e+00	4.877511e+00	3.114480e+00	4.492020e+00	6.100158e+00	8.586300e+00	4.247461e-01	1.157726e+00	-2.712478e+00	2.613951e+00	1.440089e+01	-1.831343e+00	8.949057e-01	-1.055815e+00	2.369413e+00	5.368111e-01	9.350270e+00	8.862660e+00	3.450310e+00	8.115340e+00	1.055572e+01	1.078321e+01	1.019362e+01	1.041148e+01	9.827266e+00	2.097695e+00	9.795737e+00	1.101298e+01	7.984393e+00	1.279799e+01	1.264227e+01	1.360265e+01	9.282158e+00	3.474778e+00	1.187231e+01	3.506654e+00	-2.215664e+00	-1.029504e+00	-1.641395e+00	7.223299e+00	5.588430e+00	1.555200e+01	8.051294e+00	1.511816e+01	1.442982e+01	9.345627e+00	-3.352019e-01	-2.543384e-01	-6.281546e+00	2.996637e+00	1.781940e+00	1.290996e+01	2.601214e+00	1.745963e+00	1.825945e+00	3.463936e+00	1.014943e+01	9.737822e+00	1.119499e+01	8.579021e+00	9.467815e+00	6.020213e+00	6.591062e+00	7.186079e+00	5.876917e+00	6.612308e+00	1.536530e+01	1.158930e+01	1.692329e+00	8.713849e+00	3.448861e+00	1.179295e+00	2.255044e+00	3.485778e+00	-5.231033e+00	-6.047465e+00	5.242199e+00	-5.170206e+00	-3.262733e+00	1.759888e+00	1.057190e+01	1.161499e+01	1.614586e+01	2.229341e-01	7.302837e+00	7.782032e+00	4.398035e+00	5.931463e-01	1.402796e+00	1.476779e+01	9.472457e+00	1.474717e+01	1.996986e+00	8.047577e-01	9.797288e+00	1.181073e+00	-4.161306e+00	1.387405e+01	5.000715e+00	1.171388e+00	6.905410e-01	8.243242e+00	4.095036e-01	1.110224e+00	1.516114e-01	2.772858e+00	2.527773e-02	7.496776e-01	-2.905216e-01	-7.499715e-01	1.001796e+00	-1.753442e+00	1.283282e+00	5.602446e+00	6.905588e+00	-2.266345e-01	6.246127e+00	4.724241e+00	6.780674e+00	-1.387681e+00	4.208320e+00	8.790866e-01	4.347320e+00	-7.886856e-01	5.639175e-01	9.026185e+00	9.343625e+00	7.004741e+00	1.095706e+01	9.821660e+00	6.655660e+00	1.135327e+01	2.973508e+00	1.450659e+01	1.345606e+01	7.297091e+00	1.576562e+01	1.477797e+01	1.484376e+00	1.030676e+01	1.177136e+01	1.488155e+01	9.836698e+00	3.887456e+00	1.421378e+01	2.131650e+00	-3.579032e+00	1.432720e+01	-2.839668e+00	1.273056e+01	8.054733e+00	-4.042906e+00	1.189538e+01	9.171062e+00	2.444658e+00	7.164628e+00	-3.093024e+00	-3.702219e+00	7.980266e+00	2.132065e+00	2.900069e+00	1.003209e+01	7.525028e+00	7.686909e+00	1.086034e+01	9.709655e+00	2.909247e+00	1.674544e+00	1.366764e+00	7.599330e+00	-9.814148e-01	1.145709e+01	9.971367e+00	1.227071e+01	2.865185e+00	1.619490e+01	1.170183e+00	-3.902592e+00	-2.267736e+00	9.935784e+00	-2.639457e+00	1.061704e+01	1.078453e+01	5.469222e+00	4.958004e+00	8.929582e+00	-4.067777e-01	7.914874e-02	4.605748e-01	-9.420667e-01	1.245724e+01	1.414614e+01	1.975516e+00	1.227757e+01	7.572826e+00	1.538015e+01	3.585631e-01	1.141460e+01	6.027219e+00	7.290089e+00	9.180261e-01	5.580804e+00	1.323621e+01	6.504743e+00	1.720561e+00	7.664104e+00	
SCALARS Y-Momentum float 1
LOOKUP_TABLE default
-2.551351e-02	2.247002e-01	7.385747e+00	-2.505151e-01	6.027113e-01	2.228152e-01	6.295682e-02	-1.374876e-02	2.344875e-02	5.496108e-02	7.757166e-02	1.009896e-01	8.892404e-02	2.387715e-02	-4.095955e-03	2.680634e-04	5.349649e-03	3.193711e-03	9.110665e-03	1.077658e-02	-8.937750e-03	2.201882e-03	-2.184941e-03	6.912836e-03	-1.796343e-02	7.045970e-01	1.257456e+00	1.838671e+00	2.494822e+00	3.185548e+00	3.890515e+00	4.622837e+00	5.405204e+00	6.283645e+00	7.094211e+00	7.579164e+00	8.343951e+00	-1.690731e-01	2.418271e+00	3.485248e+00	4.343078e+00	4.933497e+00	5.271525e+00	5.382495e+00	5.235868e+00	4.867720e+00	4.330977e+00	3.621019e+00	2.770794e+00	1.715293e+00	-6.148025e-03	2.468125e-02	2.842941e-02	1.208401e-02	1.041635e-02	2.305381e-02	2.420308e-02	1.916300e-03	-5.663272e-02	-7.637462e-02	-9.626910e-02	-5.156463e-01	-6.059011e-01	-2.874530e-01	3.405217e-01	6.351164e-01	4.140833e-01	1.688953e-02	6.603282e-03	-3.187117e-03	-3.742659e-02	-2.318407e-02	-2.295250e-03	-4.702987e-03	5.129581e-03	-1.244292e-03	8.238646e+00	3.707274e+00	5.074345e-01	-2.594401e-01	5.050838e+00	4.776904e+00	7.109384e-01	6.689654e-01	4.560417e-01	1.040991e-01	5.321405e-01	8.624465e-01	4.225273e+00	2.700468e+00	6.702828e-01	9.384252e-01	4.678716e+00	6.319019e+00	2.890501e+00	1.497446e+00	-8.493461e-01	3.818084e-01	3.093368e-01	7.904822e-01	5.150639e-01	1.058804e+00	-6.338856e-01	2.846244e-01	-5.865295e-01	-1.258479e-02	7.694584e-01	9.050624e-01	1.696943e-01	1.142145e+00	1.844695e+00	2.165973e+00	1.541914e+00	2.546880e+00	2.075462e+00	3.038256e+00	3.615545e+00	4.197788e+00	4.530609e+00	5.158460e+00	4.905418e+00	5.615908e+00	4.668043e+00	5.341794e+00	2.470553e+00	2.630732e+00	4.054998e+00	1.892992e+00	2.524383e+00	3.945573e+00	4.080769e+00	5.479905e+00	3.912785e+00	4.716316e+00	3.451970e+00	3.006039e+00	3.882160e+00	2.828062e+00	2.940027e+00	3.243034e+00	2.698673e+00	3.045303e+00	3.426366e+00	5.879568e+00	1.927716e+00	1.602286e+00	3.177503e+00	2.727593e+00	2.859967e+00	2.916318e+00	2.220983e+00	3.954012e+00	2.633120e+00	3.477284e+00	2.126029e+00	2.650124e+00	1.960680e+00	3.249370e+00	6.625473e+00	2.089376e+00	6.685559e+00	5.937565e+00	2.974096e+00	3.359381e+00	3.789235e+00	3.790986e+00	1.738738e+00	1.006348e+00	8.735466e+00	4.929596e+00	4.251731e+00	3.014349e+00	3.518892e+00	1.656463e+00	3.596700e+00	2.197724e+00	1.929368e+00	4.013313e+00	3.709057e+00	7.688381e+00	2.855336e+00	3.214970e+00	2.484394e+00	1.555666e+00	1.885473e+00	2.278133e+00	7.481444e-01	1.625848e+00	2.421667e+00	2.099606e+00	2.569261e+00	6.167354e+00	6.803620e+00	1.091896e+00	4.407402e+00	4.474964e+00	1.966443e+00	3.416723e+00	3.873313e+00	2.825766e-01	3.785711e-01	-1.517443e-01	-1.746287e-01	-6.980108e-01	4.396011e+00	3.822771e+00	1.724690e+00	5.278803e+00	2.309167e+00	1.665582e+00	1.720387e+00	1.213882e+00	1.208572e+00	2.555475e+00	8.902966e+00	7.938210e+00	9.784275e+00	2.622990e+00	1.492890e+00	2.212585e+00	1.931790e+00	3.520572e+00	1.133937e+00	4.915806e+00	2.550942e+00	3.545267e+00	2.792519e+00	1.007502e+01	1.010484e+01	1.646947e+00	6.725922e-01	8.659044e-01	1.875433e+00	1.388548e+00	4.119818e+00	4.368056e+00	1.241159e-01	6.391331e+00	3.422530e+00	6.970834e-01	1.826824e+00	1.794793e+00	4.027379e+00	-8.890042e-01	7.489009e-01	7.087720e-01	4.788849e+00	5.369693e-01	3.406902e+00	5.927341e-01	1.098622e+00	8.965993e-01	1.332030e+00	1.756668e+00	1.391174e+00	6.433308e+00	4.336273e+00	8.501288e+00	7.764513e+00	4.403979e+00	5.362448e+00	8.229115e-01	8.021747e-01	4.701546e-01	6.656798e-01	-4.649623e-01	1.075883e+00	6.183190e-01	4.038353e-01	6.812206e+00	9.135388e-01	4.630668e+00	4.195661e-01	7.286814e-01	5.459214e-01	4.729862e+00	3.914132e+00	3.253464e+00	4.265550e-01	7.723790e-01	4.304124e+00	2.688816e+00	3.211375e-01	7.353909e+00	1.180140e+00	3.192518e+00	1.345528e+00	5.510983e+00	4.213010e+00	7.947458e-01	4.948744e+00	4.070153e+00	4.939375e+00	1.293477e+00	4.649239e+00	2.085143e+00	3.643471e+00	3.577245e+00	3.345479e+00	2.160768e+00	1.193427e+00	2.488263e+00	8.713796e+00	-9.049205e-01	3.298127e+00	-4.925390e-01	5.145629e+00	2.374112e+00	1.511630e+00	4.591287e+00	1.063540e+01	1.984322e+00	9.311927e-01	1.131370e+00	8.778388e-01	5.413729e+00	1.091263e+00	5.482867e+00	1.294373e+00	1.478936e+00	2.092174e+00	2.666204e+00	1.412035e+00	2.083398e+00	1.314937e+00	1.392797e+00	2.831095e+00	3.034848e+00	5.201410e-01	1.511382e+00	2.298490e+00	3.586471e+00	3.098118e+00	1.239182e+00	1.646885e+00	3.881439e+00	1.902675e+00	3.621933e+00	1.179966e+00	1.433323e+00	6.976443e+00	2.588899e+00	3.996050e+00	1.427091e+00	-4.968556e-01	-4.660051e-01	1.307000e-01	7.745878e+00	9.436099e+00	8.114816e+00	3.996727e+00	6.969236e+00	4.157084e+00	1.686486e+00	1.245823e+00	1.000540e+01	2.267845e+00	1.140671e+00	3.039408e+00	5.544732e+00	1.318379e-01	7.071380e-01	4.230776e+00	4.574965e-01	1.753297e+00	-3.070794e-02	-7.865807e-01	5.262083e-01	1.589456e+00	8.041122e-01	7.093527e+00	1.841230e+00	8.422257e+00	7.103517e-01	4.105955e+00	4.691052e+00	4.295886e-01	1.000290e+00	6.369446e+00	4.371814e+00	6.552286e+00	4.816737e+00	4.574896e+00	1.299934e+00	4.851604e+00	9.128518e-01	1.997236e+00	-5.084712e-01	4.616364e+00	4.124908e-02	3.374918e+00	9.121471e+00	4.909344e+00	2.896543e+00	
SCALARS Energy float 1
LOOKUP_TABLE default