# vtk DataFile Version 3.0
vtk output
ASCII
DATASET UNSTRUCTURED_GRID
POINTS 394 float
-3.000000e+00	0.000000e+00	0.0	-5.000000e-02	3.289102e-18	0.0	8.784693e-02	1.008253e+00	0.0	1.878926e-01	9.918591e-01	0.0	5.000000e-02	-2.875070e-18	0.0	3.000000e+00	0.000000e+00	0.0	3.000000e+00	4.000000e+00	0.0	-3.000000e+00	4.000000e+00	0.0	-3.000000e+00	3.428571e+00	0.0	-3.000000e+00	2.857143e+00	0.0	-3.000000e+00	2.285714e+00	0.0	-3.000000e+00	1.714286e+00	0.0	-3.000000e+00	1.142857e+00	0.0	-3.000000e+00	5.714286e-01	0.0	-2.473871e+00	0.000000e+00	0.0	-2.029066e+00	0.000000e+00	0.0	-1.653013e+00	0.000000e+00	0.0	-1.335087e+00	0.000000e+00	0.0	-1.066302e+00	0.000000e+00	0.0	-8.390627e-01	0.000000e+00	0.0	-6.469477e-01	0.000000e+00	0.0	-4.845277e-01	0.000000e+00	0.0	-3.472127e-01	0.000000e+00	0.0	-2.311224e-01	0.000000e+00	0.0	-1.329760e-01	0.000000e+00	0.0	-4.764460e-02	7.923184e-02	0.0	-4.231165e-02	1.580439e-01	0.0	-3.440228e-02	2.364186e-01	0.0	-2.456342e-02	3.144137e-01	0.0	-1.334684e-02	3.920821e-01	0.0	-1.226059e-03	4.694779e-01	0.0	1.141199e-02	5.466600e-01	0.0	2.427613e-02	6.236875e-01	0.0	3.716459e-02	7.006179e-01	0.0	4.996945e-02	7.775038e-01	0.0	6.264360e-02	8.543995e-01	0.0	7.530781e-02	9.313152e-01	0.0	1.378702e-01	1.000097e+00	0.0	1.752395e-01	9.149233e-01	0.0	1.626288e-01	8.379423e-01	0.0	1.499398e-01	7.609411e-01	0.0	1.371410e-01	6.839384e-01	0.0	1.242557e-01	6.069863e-01	0.0	1.113965e-01	5.301408e-01	0.0	9.876325e-02	4.534608e-01	0.0	8.664806e-02	3.770073e-01	0.0	7.543665e-02	3.008394e-01	0.0	6.560257e-02	2.250112e-01	0.0	5.770107e-02	1.495717e-01	0.0	5.233813e-02	7.456333e-02	0.0	1.329760e-01	0.000000e+00	0.0	2.311224e-01	0.000000e+00	0.0	3.472127e-01	0.000000e+00	0.0	4.845277e-01	0.000000e+00	0.0	6.469477e-01	0.000000e+00	0.0	8.390627e-01	0.000000e+00	0.0	1.066302e+00	0.000000e+00	0.0	1.335087e+00	0.000000e+00	0.0	1.653013e+00	0.000000e+00	0.0	2.029066e+00	0.000000e+00	0.0	2.473871e+00	0.000000e+00	0.0	3.000000e+00	5.714286e-01	0.0	3.000000e+00	1.142857e+00	0.0	3.000000e+00	1.714286e+00	0.0	3.000000e+00	2.285714e+00	0.0	3.000000e+00	2.857143e+00	0.0	3.000000e+00	3.428571e+00	0.0	2.400000e+00	4.000000e+00	0.0	1.800000e+00	4.000000e+00	0.0	1.200000e+00	4.000000e+00	0.0	6.000000e-01	4.000000e+00	0.0	0.000000e+00	4.000000e+00	0.0	-6.000000e-01	4.000000e+00	0.0	-1.200000e+00	4.000000e+00	0.0	-1.800000e+00	4.000000e+00	0.0	-2.400000e+00	4.000000e+00	0.0	-1.710927e-02	9.010884e-01	0.0	2.162019e-01	8.747487e-01	0.0	-1.476639e+00	2.610197e-01	0.0	1.509242e+00	2.162669e-01	0.0	1.619202e-01	5.617200e-01	0.0	-6.944997e-02	5.900282e-01	0.0	-7.399023e-01	1.726764e-01	0.0	7.550649e-01	1.473021e-01	0.0	-2.573966e+00	2.083886e+00	0.0	2.539185e+00	1.934402e+00	0.0	-9.019562e-01	3.511860e+00	0.0	9.444362e-01	3.454623e+00	0.0	1.364180e-01	3.367891e-01	0.0	-9.849583e-02	3.548177e-01	0.0	-4.103249e-01	1.178198e-01	0.0	4.208671e-01	1.026603e-01	0.0	1.909532e-01	7.153654e-01	0.0	-4.741409e-02	7.450767e-01	0.0	1.293429e-01	1.894598e-01	0.0	-1.142823e-01	2.005837e-01	0.0	2.533409e+00	8.011928e-01	0.0	-2.496331e+00	7.967011e-01	0.0	-2.046165e+00	3.456842e+00	0.0	2.080193e+00	3.432718e+00	0.0	-1.821473e-01	7.769435e-02	0.0	1.858774e-01	7.177407e-02	0.0	2.231933e+00	3.856415e-01	0.0	-2.246701e+00	3.632187e-01	0.0	2.487994e+00	1.389825e+00	0.0	2.122289e+00	1.691691e+00	0.0	2.103087e+00	2.100988e+00	0.0	1.769349e+00	1.843422e+00	0.0	1.750076e+00	1.447549e+00	0.0	1.467333e+00	1.644101e+00	0.0	1.443403e+00	1.987163e+00	0.0	1.197791e+00	1.778249e+00	0.0	1.205468e+00	1.482558e+00	0.0	9.814075e-01	1.596050e+00	0.0	9.863431e-01	1.351912e+00	0.0	7.780183e-01	1.424848e+00	0.0	7.595936e-01	1.681201e+00	0.0	5.818811e-01	1.535782e+00	0.0	5.548062e-01	1.767676e+00	0.0	3.896659e-01	1.650644e+00	0.0	3.501406e-01	1.863663e+00	0.0	1.948938e-01	1.734897e+00	0.0	1.349983e-01	1.959193e+00	0.0	-3.230677e-02	1.785755e+00	0.0	8.151148e-01	1.215099e+00	0.0	1.151498e+00	2.113797e+00	0.0	3.508732e-01	2.128890e+00	0.0	9.683866e-01	1.107827e+00	0.0	7.994574e-01	1.028332e+00	0.0	-1.060509e-01	2.068920e+00	0.0	-3.121585e-01	1.904309e+00	0.0	-2.352394e-01	1.626524e+00	0.0	-5.242143e-01	1.741168e+00	0.0	-4.649514e-01	1.493992e+00	0.0	-7.329350e-01	1.577008e+00	0.0	-7.596280e-01	1.817707e+00	0.0	-6.789319e-01	1.322454e+00	0.0	-9.578282e-01	1.406244e+00	0.0	6.673505e-01	1.105872e+00	0.0	6.520689e-01	9.392368e-01	0.0	7.821668e-01	8.506168e-01	0.0	-3.828132e-01	2.192512e+00	0.0	6.320274e-01	7.692248e-01	0.0	2.369337e-01	1.511761e+00	0.0	1.391391e-01	1.047800e+00	0.0	1.992818e-01	1.033710e+00	0.0	1.671831e-01	1.099675e+00	0.0	2.366838e-01	1.096844e+00	0.0	-1.396001e-01	2.377439e+00	0.0	-9.001974e-01	1.140660e+00	0.0	-1.194448e+00	1.221193e+00	0.0	-6.326889e-01	1.061223e+00	0.0	-8.797081e-01	8.600192e-01	0.0	-6.238526e-01	8.329899e-01	0.0	-1.254993e+00	1.522542e+00	0.0	7.610175e-01	6.790575e-01	0.0	9.211319e-01	7.549352e-01	0.0	6.074533e-01	6.141249e-01	0.0	-2.463984e-01	1.381923e+00	0.0	1.409364e+00	2.344431e+00	0.0	9.073065e-02	1.095929e+00	0.0	1.286419e-01	1.168427e+00	0.0	2.671391e-01	1.017927e+00	0.0	3.173981e-01	1.090768e+00	0.0	2.745574e-01	1.173289e+00	0.0	3.519043e-01	9.981512e-01	0.0	8.938682e-01	5.797399e-01	0.0	1.089024e+00	6.685101e-01	0.0	3.719361e-02	1.166155e+00	0.0	-4.405277e-01	9.528078e-01	0.0	-4.285871e-01	7.740432e-01	0.0	-5.823677e-01	6.455798e-01	0.0	-3.891853e-01	6.090630e-01	0.0	-1.519454e+00	1.312093e+00	0.0	3.812919e-01	1.177590e+00	0.0	-4.520711e-01	2.515158e+00	0.0	-1.764950e-01	2.735102e+00	0.0	4.934786e-01	6.922380e-01	0.0	4.683003e-01	5.475057e-01	0.0	8.383406e-02	1.255586e+00	0.0	5.772670e-01	4.686297e-01	0.0	4.405863e-01	4.100072e-01	0.0	1.087096e+00	2.483458e+00	0.0	-1.586656e+00	1.652827e+00	0.0	1.363060e+00	2.729021e+00	0.0	5.397535e-01	3.318726e-01	0.0	1.053542e+00	4.074535e-01	0.0	-1.443100e+00	1.018141e+00	0.0	-5.345066e-01	4.793732e-01	0.0	-7.009932e-01	5.069095e-01	0.0	-3.844363e-01	4.425276e-01	0.0	-2.708399e-01	9.005849e-01	0.0	-2.955345e-01	1.054488e+00	0.0	-1.964004e+00	1.428008e+00	0.0	3.632346e-01	6.264439e-01	0.0	3.981274e-01	7.626335e-01	0.0	6.908304e-01	3.850338e-01	0.0	-2.685689e-01	5.326005e-01	0.0	7.021694e-01	1.946659e+00	0.0	1.256143e+00	5.738666e-01	0.0	1.291803e+00	7.932940e-01	0.0	1.487176e+00	6.494341e-01	0.0	1.532758e+00	9.256938e-01	0.0	1.800612e+00	7.870874e-01	0.0	3.198848e-01	1.275236e+00	0.0	4.407784e-01	1.275191e+00	0.0	-4.980421e-01	3.236592e-01	0.0	-4.443620e-01	1.291425e+00	0.0	-7.163093e-01	2.299950e+00	0.0	-8.074816e-01	2.661402e+00	0.0	-1.097469e+00	2.437321e+00	0.0	-1.192845e+00	2.807432e+00	0.0	-1.564770e+00	2.473485e+00	0.0	-2.493472e-01	3.946984e-01	0.0	-2.849103e-02	1.250987e+00	0.0	1.424509e-02	1.360242e+00	0.0	-6.521207e-02	1.152794e+00	0.0	1.728844e-01	2.560269e+00	0.0	1.634769e-01	3.017263e+00	0.0	4.990325e-01	2.772504e+00	0.0	-1.302916e+00	1.861904e+00	0.0	5.349947e-01	1.019316e+00	0.0	-2.608113e-01	3.152343e+00	0.0	-2.771812e-01	7.433275e-01	0.0	4.071679e-01	2.821584e-01	0.0	3.003163e-01	3.552806e-01	0.0	2.839270e-01	2.467055e-01	0.0	8.821468e-04	1.089912e+00	0.0	-8.671924e-02	1.056427e+00	0.0	1.718770e+00	2.586070e+00	0.0	1.409906e+00	1.335258e+00	0.0	2.468324e+00	2.499533e+00	0.0	9.480248e-01	2.900971e+00	0.0	-1.650482e+00	2.021459e+00	0.0	3.282860e-01	4.866834e-01	0.0	2.273558e-01	4.300425e-01	0.0	1.214006e+00	1.970301e-01	0.0	-1.743553e-01	8.252505e-01	0.0	-1.723692e-01	4.783742e-01	0.0	3.936999e-01	3.515299e+00	0.0	-3.547615e-01	3.048671e-01	0.0	-2.394967e-01	2.756634e-01	0.0	5.089167e-01	8.633191e-01	0.0	2.137057e+00	1.055379e+00	0.0	-1.645146e+00	3.024997e+00	0.0	-1.997873e+00	2.675441e+00	0.0	3.716353e-01	1.394793e+00	0.0	-2.478046e+00	1.309480e+00	0.0	6.093974e-01	1.341025e+00	0.0	-1.188343e+00	2.319406e-01	0.0	-1.296776e+00	4.908651e-01	0.0	-1.583249e+00	5.426224e-01	0.0	-1.026006e+00	4.581716e-01	0.0	-1.125538e+00	7.103679e-01	0.0	1.671141e+00	3.035412e+00	0.0	-3.414574e-02	1.594659e+00	0.0	3.959515e-01	8.871042e-01	0.0	-1.493629e-01	1.239803e+00	0.0	-1.592408e-01	9.165380e-01	0.0	2.981492e-01	8.169444e-01	0.0	-1.568420e-01	7.052521e-01	0.0	-5.553693e-01	1.725615e-01	0.0	5.726018e-01	1.166411e-01	0.0	9.739478e-01	1.901226e-01	0.0	-9.466627e-01	2.020265e-01	0.0	1.835664e+00	2.662625e-01	0.0	2.956787e-01	8.608778e-02	0.0	-2.811190e-01	9.735944e-02	0.0	-1.468772e+00	3.529059e+00	0.0	1.460908e-01	1.366306e+00	0.0	2.532545e+00	3.101182e+00	0.0	2.755381e-01	5.611602e-01	0.0	-1.826358e+00	3.062492e-01	0.0	-1.961027e+00	6.968256e-01	0.0	1.347333e+00	1.057892e+00	0.0	2.675986e-01	6.593781e-01	0.0	2.917730e-01	9.237697e-01	0.0	8.271083e-01	2.230294e+00	0.0	-2.517930e+00	2.531440e+00	0.0	1.463640e+00	3.509976e+00	0.0	-1.728013e-01	5.957702e-01	0.0	2.181699e-01	9.590403e-01	0.0	-2.447689e+00	3.079245e+00	0.0	-3.255322e-02	8.220480e-01	0.0	8.392320e-01	2.996593e-01	0.0	5.030160e-01	2.415065e+00	0.0	-8.127358e-01	3.419192e-01	0.0	-5.930478e-02	6.676885e-01	0.0	2.056474e-01	7.928062e-01	0.0	-2.133575e+00	1.063876e+00	0.0	1.749105e-01	6.414778e-01	0.0	-8.847189e-02	5.189451e-01	0.0	1.541012e-01	4.864188e-01	0.0	1.104538e+00	9.107986e-01	0.0	1.453863e-01	4.088967e-01	0.0	-1.039763e-01	2.761335e-01	0.0	1.291846e-01	2.623203e-01	0.0	2.073834e-01	2.961711e-01	0.0	-9.579131e-02	4.347337e-01	0.0	2.235927e-01	1.575851e-01	0.0	-2.066431e-01	1.760532e-01	0.0	-7.723870e-01	6.629556e-01	0.0	-1.771764e-01	1.123455e+00	0.0	2.131474e+00	7.185753e-01	0.0	5.284229e-01	1.170976e+00	0.0	1.811099e+00	1.124045e+00	0.0	9.032540e-02	1.049378e+00	0.0	7.294573e-01	5.284639e-01	0.0	-6.407880e-01	3.336989e-01	0.0	2.620653e-01	7.508902e-01	0.0	-1.490847e-02	1.020020e+00	0.0	1.186278e-01	1.123025e-01	0.0	-1.138789e-01	1.198672e-01	0.0	-1.909997e+00	1.798583e+00	0.0	-2.053848e+00	2.183139e+00	0.0	-4.298716e-01	1.123119e+00	0.0	-8.675596e-01	3.066153e+00	0.0	1.845895e-01	1.247231e+00	0.0	1.171432e+00	1.207375e+00	0.0	-5.255784e-01	2.899239e+00	0.0	9.157533e-01	9.295936e-01	0.0	7.740001e-01	2.560252e+00	0.0	5.918296e-01	3.132081e+00	0.0	-1.155429e+00	9.477591e-01	0.0	2.089665e+00	2.853022e+00	0.0	1.292077e+00	3.129722e+0
[...]
POINT_DATA 394

SCALARS Density float 1
LOOKUP_TABLE default
1.223741e+00	1.223988e+00	1.222001e+00	1.221588e+00	1.223214e+00	1.223570e+00	1.223268e+00	1.223598e+00	1.223580e+00	1.223595e+00	1.223642e+00	1.223673e+00	1.223747e+00	1.223754e+00	1.223767e+00	1.223754e+00	1.223789e+00	1.223815e+00	1.223858e+00	1.223884e+00	1.223909e+00	1.223959e+00	1.223942e+00	1.224016e+00	1.223941e+00	1.224036e+00	1.223949e+00	1.223968e+00	1.223968e+00	1.223949e+00	1.223936e+00	1.223897e+00	1.223891e+00	1.223803e+00	1.223893e+00	1.223026e+00	1.224982e+00	1.220051e+00	1.223558e+00	1.223122e+00	1.223112e+00	1.223081e+00	1.223042e+00	1.223028e+00	1.223037e+00	1.223049e+00	1.223078e+00	1.223119e+00	1.223053e+00	1.223306e+00	1.223076e+00	1.223200e+00	1.223114e+00	1.223046e+00	1.223001e+00	1.222971e+00	1.222879e+00	1.222931e+00	1.222945e+00	1.223096e+00	1.222635e+00	1.223304e+00	1.223011e+00	1.222858e+00	1.222801e+00	1.222944e+00	1.223102e+00	1.223105e+00	1.223227e+00	1.223258e+00	1.223342e+00	1.223404e+00	1.223491e+00	1.223549e+00	1.223585e+00	1.223584e+00	1.223269e+00	1.223378e+00	1.223801e+00	1.222864e+00	1.223061e+00	1.223840e+00	1.223872e+00	1.222939e+00	1.223641e+00	1.223247e+00	1.223518e+00	1.223307e+00	1.223077e+00	1.223929e+00	1.223943e+00	1.223061e+00	1.223163e+00	1.223645e+00	1.223181e+00	1.223970e+00	1.222843e+00	1.223744e+00	1.223607e+00	1.223129e+00	1.223980e+00	1.223166e+00	1.223034e+00	1.223738e+00	1.222854e+00	1.222839e+00	1.223081e+00	1.223036e+00	1.222891e+00	1.222934e+00	1.222997e+00	1.223196e+00	1.222758e+00	1.222841e+00	1.222785e+00	1.222985e+00	1.222861e+00	1.223164e+00	1.223126e+00	1.223270e+00	1.223201e+00	1.223255e+00	1.223474e+00	1.223350e+00	1.222849e+00	1.223010e+00	1.223277e+00	1.222616e+00	1.222782e+00	1.223431e+00	1.223519e+00	1.223541e+00	1.223478e+00	1.223628e+00	1.223689e+00	1.223578e+00	1.223678e+00	1.223665e+00	1.222930e+00	1.222837e+00	1.222882e+00	1.223534e+00	1.222906e+00	1.223230e+00	1.221963e+00	1.221779e+00	1.222615e+00	1.222807e+00	1.223417e+00	1.223733e+00	1.223727e+00	1.223783e+00	1.223787e+00	1.223812e+00	1.223684e+00	1.222804e+00	1.222646e+00	1.222907e+00	1.223557e+00	1.223203e+00	1.221766e+00	1.223187e+00	1.222802e+00	1.222716e+00	1.222615e+00	1.222889e+00	1.222843e+00	1.222773e+00	1.223131e+00	1.223771e+00	1.223787e+00	1.223848e+00	1.223830e+00	1.223696e+00	1.222682e+00	1.223491e+00	1.223470e+00	1.223034e+00	1.222966e+00	1.223139e+00	1.222925e+00	1.222992e+00	1.223283e+00	1.223673e+00	1.223171e+00	1.223038e+00	1.222720e+00	1.223753e+00	1.223876e+00	1.223893e+00	1.223939e+00	1.223780e+00	1.223672e+00	1.223708e+00	1.223002e+00	1.223044e+00	1.222872e+00	1.223928e+00	1.223349e+00	1.222660e+00	1.222824e+00	1.222613e+00	1.222638e+00	1.222758e+00	1.222846e+00	1.222791e+00	1.223955e+00	1.223583e+00	1.223539e+00	1.223524e+00	1.223593e+00	1.223566e+00	1.223635e+00	1.223912e+00	1.223206e+00	1.223498e+00	1.223502e+00	1.223347e+00	1.223377e+00	1.223416e+00	1.223642e+00	1.222753e+00	1.223406e+00	1.223888e+00	1.223006e+00	1.223031e+00	1.223074e+00	1.223777e+00	1.223058e+00	1.223090e+00	1.222692e+00	1.223292e+00	1.223291e+00	1.223658e+00	1.223061e+00	1.222983e+00	1.222673e+00	1.223731e+00	1.224005e+00	1.223400e+00	1.223918e+00	1.223963e+00	1.222870e+00	1.222717e+00	1.223561e+00	1.223598e+00	1.222677e+00	1.223687e+00	1.222931e+00	1.223838e+00	1.223865e+00	1.223729e+00	1.223834e+00	1.223775e+00	1.223260e+00	1.223545e+00	1.222935e+00	1.223464e+00	1.223705e+00	1.223161e+00	1.223891e+00	1.223963e+00	1.223013e+00	1.222899e+00	1.223874e+00	1.222700e+00	1.223188e+00	1.223997e+00	1.223558e+00	1.223079e+00	1.223164e+00	1.223092e+00	1.223794e+00	1.223736e+00	1.222719e+00	1.223034e+00	1.222858e+00	1.223230e+00	1.223639e+00	1.223234e+00	1.223840e+00	1.222904e+00	1.223623e+00	1.224003e+00	1.222885e+00	1.223343e+00	1.223861e+00	1.223869e+00	1.223124e+00	1.223707e+00	1.223114e+00	1.223879e+00	1.223064e+00	1.222735e+00	1.223075e+00	1.223955e+00	1.223097e+00	1.223040e+00	1.223884e+00	1.223033e+00	1.223989e+00	1.223839e+00	1.223667e+00	1.222723e+00	1.222826e+00	1.223075e+00	1.224463e+00	1.222897e+00	1.223942e+00	1.223034e+00	1.223475e+00	1.223101e+00	1.223965e+00	1.223655e+00	1.223657e+00	1.223729e+00	1.223521e+00	1.222732e+00	1.222842e+00	1.223475e+00	1.222677e+00	1.223248e+00	1.223282e+00	1.223805e+00	1.223310e+00	1.223242e+00	1.223983e+00	1.223581e+00	1.223509e+00	1.223051e+00	1.223580e+00	1.222808e+00	1.223160e+00	1.223916e+00	1.222970e+00	1.223366e+00	1.223033e+00	1.223379e+00	1.223769e+00	1.222903e+00	1.223356e+00	1.223646e+00	1.222814e+00	1.223765e+00	1.223018e+00	1.222234e+00	1.223777e+00	1.223887e+00	1.223437e+00	1.223461e+00	1.222698e+00	1.223650e+00	1.223082e+00	1.223616e+00	1.223889e+00	1.225074e+00	1.223982e+00	1.223761e+00	1.223019e+00	1.223273e+00	1.223568e+00	1.223422e+00	1.223867e+00	1.223033e+00	1.223979e+00	1.222837e+00	1.222798e+00	1.223593e+00	1.222785e+00	1.223585e+00	1.223334e+00	1.223842e+00	1.223849e+00	1.223709e+00	1.222989e+00	1.222980e+00	1.223994e+00	1.223260e+00	1.223467e+00	1.223162e+00	1.223717e+00	1.222833e+00	1.223480e+00	1.223159e+00	1.222999e+00	1.223480e+00	1.223800e+00	1.222807e+00	1.223092e+00	1.222555e+00	1.223305e+00	1.223054e+00	1.223813e+00	1.222739e+00	
SCALARS X-Momentum float 1
LOOKUP_TABLE default
8.252540e+00	2.649429e-01	4.883588e+00	1.076138e-01	-6.804578e-01	-5.081707e+00	1.630183e+01	1.018323e+01	1.002403e+01	9.782374e+00	9.484407e+00	9.137147e+00	8.797855e+00	8.471817e+00	8.078856e+00	7.738588e+00	7.221256e+00	6.569238e+00	5.835212e+00	5.018514e+00	4.139185e+00	3.321519e+00	2.445699e+00	1.629548e+00	8.680103e-01	-4.655771e-03	1.121846e-01	2.697718e-01	4.178040e-01	5.705875e-01	7.180348e-01	8.585803e-01	9.931329e-01	1.120722e+00	1.206353e+00	1.148109e+00	8.910782e-01	4.646914e+00	2.895466e-01	3.299449e-01	5.540626e-01	6.890408e-01	7.987006e-01	8.659833e-01	8.447814e-01	7.547844e-01	6.258747e-01	4.465602e-01	2.846760e-01	1.694640e-01	-2.133199e+00	-3.832423e+00	-5.270420e+00	-6.572131e+00	-7.629638e+00	-8.392280e+00	-8.933979e+00	-9.159416e+00	-8.577872e+00	-7.635222e+00	-6.694136e+00	-1.235074e+00	4.331459e+00	9.870791e+00	1.393202e+01	1.595955e+01	1.646421e+01	1.564254e+01	1.478017e+01	1.384533e+01	1.305784e+01	1.237991e+01	1.174310e+01	1.115534e+01	1.066880e+01	1.034011e+01	1.885477e+00	9.983305e-01	7.068612e+00	-6.238464e+00	8.488487e-01	1.804008e+00	4.774138e+00	-6.103779e+00	9.391801e+00	1.242857e+01	1.127465e+01	1.389105e+01	2.315022e-01	1.211668e+00	2.907026e+00	-4.607047e+00	1.022012e+00	2.127615e+00	-4.393937e-01	8.462885e-01	8.381384e-01	8.476165e+00	1.030809e+01	1.559632e+01	1.202969e+00	-2.193301e+00	-3.444219e+00	8.097888e+00	7.265582e+00	1.097030e+01	1.412781e+01	1.306089e+01	9.126232e+00	1.191645e+01	1.453499e+01	1.366453e+01	1.063286e+01	1.242300e+01	9.081209e+00	1.070348e+01	1.371222e+01	1.270358e+01	1.431143e+01	1.379934e+01	1.413792e+01	1.352889e+01	1.325926e+01	1.234935e+01	7.197847e+00	1.519483e+01	1.390439e+01	5.473192e+00	4.301036e+00	1.218598e+01	1.124434e+01	1.094804e+01	1.027306e+01	9.635267e+00	9.475214e+00	9.978520e+00	8.645227e+00	8.829517e+00	5.187663e+00	2.891515e+00	2.093720e+00	1.136446e+01	1.342328e+00	1.317406e+01	5.591646e+00	2.445683e+00	6.510170e+00	4.668547e+00	1.213916e+01	8.023051e+00	8.379370e+00	7.525173e+00	7.028795e+00	6.370433e+00	9.007077e+00	2.843746e-01	9.267391e-01	3.309434e-02	9.900374e+00	1.554703e+01	8.646572e+00	9.746716e+00	1.941797e+00	4.109106e+00	7.359609e+00	2.328644e+00	-1.240394e+00	-5.345045e-01	1.020816e+01	6.577635e+00	5.418578e+00	5.394971e+00	4.315738e+00	8.648072e+00	6.596401e+00	1.144616e+01	1.209843e+01	9.976828e-01	-3.055510e-02	1.143248e+01	-1.265100e+00	-1.129729e+00	1.527735e+01	9.155921e+00	1.536701e+01	-2.529641e+00	-3.522795e+00	8.088355e+00	4.563149e+00	5.340639e+00	3.610574e+00	5.393961e+00	6.923189e+00	8.859035e+00	8.799734e-01	1.535272e+00	-2.701070e+00	3.208407e+00	1.477983e+01	-1.881349e+00	9.251841e-01	-1.065489e+00	2.469334e+00	6.203950e-01	9.933076e+00	9.272851e+00	3.871059e+00	8.677994e+00	1.078346e+01	1.097866e+01	1.041430e+01	1.060599e+01	1.004365e+01	2.548614e+00	1.066650e+01	1.179624e+01	8.931739e+00	1.295768e+01	1.275238e+01	1.370860e+01	9.551483e+00	3.501440e+00	1.200678e+01	4.336669e+00	-2.157485e+00	-7.827978e-01	-1.561287e+00	8.299576e+00	6.601582e+00	1.568135e+01	8.283755e+00	1.532536e+01	1.449633e+01	9.588376e+00	6.113651e-02	1.633709e-01	-6.507472e+00	3.975215e+00	2.321972e+00	1.296767e+01	2.995052e+00	2.080550e+00	2.009364e+00	3.668407e+00	1.033668e+01	9.940965e+00	1.185148e+01	8.841503e+00	9.836213e+00	6.413296e+00	6.974570e+00	7.542149e+00	6.290028e+00	7.014969e+00	1.539315e+01	1.211096e+01	1.870493e+00	9.483184e+00	4.494683e+00	1.509965e+00	3.114193e+00	3.856068e+00	-5.512945e+00	-6.303937e+00	5.644658e+00	-5.263045e+00	-3.479171e+00	2.000804e+00	1.073091e+01	1.246449e+01	1.617828e+01	7.270262e-01	7.654787e+00	8.104550e+00	4.525859e+00	1.106760e+00	1.471628e+00	1.501977e+01	9.680503e+00	1.471249e+01	2.687823e+00	6.919298e-01	9.986501e+00	2.201958e+00	-4.294468e+00	1.405740e+01	5.423876e+00	1.985311e+00	1.018452e+00	8.532546e+00	9.486594e-01	1.693041e+00	6.768828e-01	2.821313e+00	4.748121e-01	9.989982e-01	-5.844794e-02	-5.236411e-01	1.458496e+00	-1.780029e+00	1.514004e+00	6.086467e+00	7.775197e+00	-1.245354e-01	6.385338e+00	4.924168e+00	7.600420e+00	-1.283192e+00	4.632273e+00	1.336721e+00	5.441472e+00	-7.786719e-01	6.810475e-01	9.275001e+00	9.569561e+00	7.668203e+00	1.112779e+01	1.061803e+01	6.822050e+00	1.151997e+01	3.018929e+00	1.464031e+01	1.351908e+01	7.681921e+00	1.583996e+01	1.479873e+01	1.915524e+00	1.057977e+01	1.188722e+01	1.512003e+01	1.009859e+01	3.895801e+00	1.457812e+01	2.441732e+00	-3.696750e+00	1.460831e+01	-2.930692e+00	1.296555e+01	8.362039e+00	-4.172056e+00	1.258407e+01	9.482743e+00	2.488367e+00	7.529054e+00	-3.145047e+00	-3.580378e+00	8.294485e+00	3.206125e+00	3.947334e+00	1.073568e+01	8.121617e+00	8.386052e+00	1.140011e+01	9.949137e+00	3.272985e+00	2.733463e+00	1.713176e+00	7.934859e+00	-8.620042e-01	1.225261e+01	1.014506e+01	1.236852e+01	3.596528e+00	1.611068e+01	1.438572e+00	-4.013977e+00	-2.252705e+00	1.012445e+01	-2.664729e+00	1.079014e+01	1.137457e+01	5.911893e+00	5.936946e+00	9.172732e+00	-6.297650e-02	5.811463e-01	5.385244e-01	-1.001774e+00	1.303678e+01	1.451795e+01	2.965185e+00	1.291258e+01	8.143885e+00	1.556223e+01	9.020011e-01	1.156121e+01	6.465540e+00	7.577235e+00	1.385790e+00	5.766769e+00	1.343252e+01	7.515862e+00	2.501131e+00	7.865285e+00	
SCALARS Y-Momentum float 1
LOOKUP_TABLE default
-2.406353e-02	2.602595e-01	7.677691e+00	-6.336875e-01	6.523588e-01	2.305389e-01	5.834826e-02	-1.357606e-02	2.066804e-02	5.065982e-02	7.044861e-02	9.054934e-02	7.803140e-02	1.755100e-02	-4.338520e-03	-7.091163e-05	5.480283e-03	4.012670e-03	9.914773e-03	1.217144e-02	-6.787921e-03	6.489689e-03	-8.421276e-04	6.478706e-03	-2.156048e-02	8.282632e-01	1.495321e+00	2.190538e+00	2.965646e+00	3.762603e+00	4.562122e+00	5.380767e+00	6.258495e+00	7.232899e+00	8.143834e+00	8.685921e+00	9.452163e+00	-9.068762e-01	2.101602e+00	3.243840e+00	4.209835e+00	4.914788e+00	5.334160e+00	5.502693e+00	5.387097e+00	5.034662e+00	4.502920e+00	3.785364e+00	2.923385e+00	1.833724e+00	-5.442357e-03	2.987211e-02	2.846862e-02	9.426574e-03	5.358307e-03	1.597725e-02	1.877125e-02	-2.070914e-04	-5.808580e-02	-8.038521e-02	-1.014761e-01	-5.607396e-01	-6.398087e-01	-2.600925e-01	4.086141e-01	6.903083e-01	4.349991e-01	1.538542e-02	2.454723e-03	-9.071541e-03	-4.022045e-02	-2.476358e-02	-3.399635e-03	-4.556177e-03	4.398580e-03	-1.912548e-03	9.138519e+00	3.560634e+00	5.165107e-01	-2.965054e-01	5.083574e+00	5.431053e+00	7.800495e-01	6.161517e-01	4.385912e-01	1.312512e-01	5.078572e-01	8.242647e-01	4.323469e+00	3.136766e+00	7.610040e-01	9.043032e-01	4.615750e+00	7.092959e+00	2.983715e+00	1.756594e+00	-9.348257e-01	3.660690e-01	2.960957e-01	7.847552e-01	5.977366e-01	1.092772e+00	-6.973447e-01	2.749682e-01	-6.314570e-01	-4.213575e-02	7.870004e-01	8.719448e-01	8.657433e-02	1.050106e+00	1.803589e+00	2.069594e+00	1.403076e+00	2.398936e+00	1.894690e+00	2.826216e+00	3.488403e+00	4.038658e+00	4.457909e+00	5.100274e+00	4.861799e+00	5.603888e+00	4.598069e+00	5.290451e+00	2.269649e+00	2.580166e+00	3.982633e+00	1.751325e+00	2.416903e+00	3.837181e+00	3.964094e+00	5.408407e+00	3.793298e+00	4.612069e+00	3.358054e+00	2.904517e+00	3.820292e+00	2.780647e+00	2.780155e+00	3.207278e+00	2.664151e+00	2.927910e+00	3.433764e+00	5.889118e+00	1.578001e+00	1.265435e+00	2.910045e+00	2.397487e+00	2.751482e+00	2.913118e+00	2.205550e+00	3.969074e+00	2.680278e+00	3.568689e+00	2.088345e+00	2.620945e+00	1.918963e+00	3.214095e+00	6.603128e+00	2.064180e+00	6.884700e+00	6.018991e+00	2.762000e+00	3.098287e+00	3.523029e+00	3.699289e+00	1.689196e+00	9.543391e-01	9.116424e+00	5.009264e+00	4.437934e+00	3.173366e+00	3.789212e+00	1.632254e+00	3.310279e+00	2.101300e+00	1.836770e+00	4.022083e+00	3.657600e+00	7.944077e+00	2.777354e+00	3.140196e+00	2.439156e+00	1.522995e+00	1.856056e+00	2.187283e+00	6.920089e-01	1.616094e+00	2.613886e+00	2.235338e+00	2.832094e+00	6.400885e+00	6.887341e+00	1.065082e+00	4.380427e+00	4.506106e+00	1.882825e+00	3.783682e+00	3.802726e+00	2.274055e-01	3.043821e-01	-2.184981e-01	-2.629060e-01	-7.936131e-01	4.192755e+00	3.557668e+00	1.898932e+00	5.207599e+00	2.215677e+00	1.598207e+00	1.659815e+00	1.170210e+00	1.170695e+00	2.879377e+00	9.197916e+00	8.128035e+00	1.017092e+01	2.522495e+00	1.416042e+00	2.130887e+00	1.883757e+00	3.430211e+00	1.072645e+00	5.249675e+00	2.490432e+00	3.523376e+00	2.788990e+00	1.062056e+01	1.058538e+01	1.646126e+00	5.562259e-01	9.101176e-01	1.819907e+00	1.351850e+00	4.080264e+00	4.380108e+00	8.627704e-02	6.841234e+00	3.858687e+00	6.547194e-01	2.045047e+00	2.049052e+00	4.059965e+00	-9.960312e-01	7.220668e-01	6.858403e-01	4.655702e+00	5.161184e-01	3.148149e+00	6.181827e-01	1.124285e+00	8.985801e-01	1.392752e+00	1.794230e+00	1.371099e+00	6.449065e+00	4.369118e+00	8.646821e+00	8.190517e+00	4.377166e+00	5.891228e+00	9.178265e-01	7.515605e-01	4.215435e-01	7.117709e-01	-5.085082e-01	1.076360e+00	7.100243e-01	3.874052e-01	6.939011e+00	9.363063e-01	4.602217e+00	4.160962e-01	7.150818e-01	4.470783e-01	4.690439e+00	3.860357e+00	3.195568e+00	4.104153e-01	7.481133e-01	4.796276e+00	2.514248e+00	3.082589e-01	8.230347e+00	1.108928e+00	3.110398e+00	1.444468e+00	6.224341e+00	4.090782e+00	7.725004e-01	4.937059e+00	4.649543e+00	5.001948e+00	1.213877e+00	4.734141e+00	2.437224e+00	3.746523e+00	3.617640e+00	3.853233e+00	2.191770e+00	1.380926e+00	2.587850e+00	8.902262e+00	-1.006553e+00	3.063754e+00	-5.923358e-01	5.072512e+00	2.310663e+00	1.647666e+00	4.534585e+00	1.139117e+01	2.071005e+00	1.089821e+00	1.101520e+00	8.508836e-01	5.406929e+00	1.045850e+00	5.458708e+00	1.161667e+00	1.409274e+00	2.018233e+00	2.600695e+00	1.343933e+00	2.095519e+00	1.326328e+00	1.354530e+00	3.227123e+00	2.918416e+00	4.909080e-01	1.511619e+00	2.221362e+00	3.413273e+00	3.008924e+00	1.408539e+00	1.574379e+00	3.821063e+00	1.871105e+00	3.523753e+00	1.158837e+00	1.349378e+00	7.072980e+00	2.521522e+00	3.975629e+00	1.435505e+00	-5.636717e-01	-5.133864e-01	1.234843e-01	8.425863e+00	1.011140e+01	8.242140e+00	3.805276e+00	6.977392e+00	3.951421e+00	1.636686e+00	1.397950e+00	1.099233e+01	2.604620e+00	1.131249e+00	3.088545e+00	5.515403e+00	1.252754e-01	6.635302e-01	4.613254e+00	4.615962e-01	2.030757e+00	-7.963728e-02	-8.697774e-01	5.070481e-01	1.520947e+00	7.726391e-01	7.134994e+00	1.939312e+00	8.707379e+00	6.871886e-01	4.142903e+00	4.686352e+00	5.007680e-01	1.056807e+00	6.412603e+00	4.313738e+00	7.187074e+00	4.702451e+00	4.529259e+00	1.326143e+00	4.833607e+00	8.676239e-01	2.067262e+00	-5.915748e-01	4.595240e+00	-5.733914e-02	3.279426e+00	9.532919e+00	5.480486e+00	2.654589e+00	
SCALARS Energy float 1
LOOKUP_TABLE default