# vtk DataFile Version 3.0
vtk output
ASCII
DATASET UNSTRUCTURED_GRID
POINTS 394 float
-3.000000e+00	0.000000e+00	0.0	-5.000000e-02	8.448839e-18	0.0	-3.411537e-02	9.995121e-01	0.0	6.591419e-02	1.000551e+00	0.0	5.000000e-02	-1.099002e-18	0.0	3.000000e+00	0.000000e+00	0.0	3.000000e+00	4.000000e+00	0.0	-3.000000e+00	4.000000e+00	0.0	-3.000000e+00	3.428571e+00	0.0	-3.000000e+00	2.857143e+00	0.0	-3.000000e+00	2.285714e+00	0.0	-3.000000e+00	1.714286e+00	0.0	-3.000000e+00	1.142857e+00	0.0	-3.000000e+00	5.714286e-01	0.0	-2.473871e+00	0.000000e+00	0.0	-2.029066e+00	0.000000e+00	0.0	-1.653013e+00	0.000000e+00	0.0	-1.335087e+00	0.000000e+00	0.0	-1.066302e+00	0.000000e+00	0.0	-8.390627e-01	0.000000e+00	0.0	-6.469477e-01	0.000000e+00	0.0	-4.845277e-01	0.000000e+00	0.0	-3.472127e-01	0.000000e+00	0.0	-2.311224e-01	0.000000e+00	0.0	-1.329760e-01	0.000000e+00	0.0	-4.894012e-02	7.786939e-02	0.0	-4.679608e-02	1.554281e-01	0.0	-4.391756e-02	2.326782e-01	0.0	-4.078231e-02	3.096489e-01	0.0	-3.779334e-02	3.863918e-01	0.0	-3.525227e-02	4.629679e-01	0.0	-3.337036e-02	5.394468e-01	0.0	-3.222984e-02	6.159065e-01	0.0	-3.179873e-02	6.924094e-01	0.0	-3.195526e-02	7.690097e-01	0.0	-3.253262e-02	8.457458e-01	0.0	-3.324974e-02	9.226011e-01	0.0	1.589936e-02	1.000065e+00	0.0	6.668362e-02	9.235978e-01	0.0	6.745407e-02	8.465715e-01	0.0	6.801958e-02	7.694469e-01	0.0	6.818508e-02	6.922042e-01	0.0	6.775352e-02	6.148699e-01	0.0	6.661377e-02	5.374888e-01	0.0	6.473288e-02	4.601216e-01	0.0	6.219463e-02	3.828485e-01	0.0	5.920600e-02	3.057392e-01	0.0	5.607211e-02	2.288568e-01	0.0	5.320123e-02	1.522584e-01	0.0	5.104071e-02	7.596932e-02	0.0	1.329760e-01	0.000000e+00	0.0	2.311224e-01	0.000000e+00	0.0	3.472127e-01	0.000000e+00	0.0	4.845277e-01	0.000000e+00	0.0	6.469477e-01	0.000000e+00	0.0	8.390627e-01	0.000000e+00	0.0	1.066302e+00	0.000000e+00	0.0	1.335087e+00	0.000000e+00	0.0	1.653013e+00	0.000000e+00	0.0	2.029066e+00	0.000000e+00	0.0	2.473871e+00	0.000000e+00	0.0	3.000000e+00	5.714286e-01	0.0	3.000000e+00	1.142857e+00	0.0	3.000000e+00	1.714286e+00	0.0	3.000000e+00	2.285714e+00	0.0	3.000000e+00	2.857143e+00	0.0	3.000000e+00	3.428571e+00	0.0	2.400000e+00	4.000000e+00	0.0	1.800000e+00	4.000000e+00	0.0	1.200000e+00	4.000000e+00	0.0	6.000000e-01	4.000000e+00	0.0	0.000000e+00	4.000000e+00	0.0	-6.000000e-01	4.000000e+00	0.0	-1.200000e+00	4.000000e+00	0.0	-1.800000e+00	4.000000e+00	0.0	-2.400000e+00	4.000000e+00	0.0	-1.095548e-01	8.878076e-01	0.0	1.209365e-01	8.883064e-01	0.0	-1.483859e+00	2.494192e-01	0.0	1.500259e+00	2.278351e-01	0.0	1.151376e-01	5.734187e-01	0.0	-1.166173e-01	5.769231e-01	0.0	-7.468484e-01	1.615795e-01	0.0	7.467660e-01	1.592205e-01	0.0	-2.588894e+00	2.076202e+00	0.0	2.516144e+00	1.947581e+00	0.0	-9.330139e-01	3.509250e+00	0.0	9.096046e-01	3.461623e+00	0.0	1.171758e-01	3.453095e-01	0.0	-1.176381e-01	3.461538e-01	0.0	-4.145464e-01	1.102721e-01	0.0	4.158702e-01	1.097277e-01	0.0	1.211039e-01	7.285624e-01	0.0	-1.166173e-01	7.307692e-01	0.0	1.217259e-01	1.951647e-01	0.0	-1.219004e-01	1.949409e-01	0.0	2.523336e+00	8.167529e-01	0.0	-2.505450e+00	7.859659e-01	0.0	-2.060813e+00	3.451225e+00	0.0	2.063561e+00	3.439799e+00	0.0	-1.839749e-01	7.462933e-02	0.0	1.839181e-01	7.485312e-02	0.0	2.223383e+00	3.988647e-01	0.0	-2.251469e+00	3.554420e-01	0.0	2.464585e+00	1.408185e+00	0.0	2.084360e+00	1.715536e+00	0.0	2.062368e+00	2.119428e+00	0.0	1.717456e+00	1.868364e+00	0.0	1.703162e+00	1.478255e+00	0.0	1.404436e+00	1.673942e+00	0.0	1.379059e+00	2.011826e+00	0.0	1.122275e+00	1.805700e+00	0.0	1.133471e+00	1.514067e+00	0.0	8.972874e-01	1.623762e+00	0.0	9.058741e-01	1.383676e+00	0.0	6.842001e-01	1.452796e+00	0.0	6.646868e-01	1.702928e+00	0.0	4.770905e-01	1.555424e+00	0.0	4.540791e-01	1.782960e+00	0.0	2.815546e-01	1.663644e+00	0.0	2.468385e-01	1.874145e+00	0.0	8.495255e-02	1.739613e+00	0.0	3.220584e-02	1.963777e+00	0.0	-1.420447e-01	1.783981e+00	0.0	7.288711e-01	1.245864e+00	0.0	1.077857e+00	2.136341e+00	0.0	2.551298e-01	2.138445e+00	0.0	8.954243e-01	1.142527e+00	0.0	7.229085e-01	1.059814e+00	0.0	-2.030321e-01	2.067609e+00	0.0	-4.089797e-01	1.894294e+00	0.0	-3.445145e-01	1.614442e+00	0.0	-6.150363e-01	1.721608e+00	0.0	-5.614456e-01	1.469073e+00	0.0	-8.152713e-01	1.551780e+00	0.0	-8.412690e-01	1.795758e+00	0.0	-7.621668e-01	1.289715e+00	0.0	-1.026166e+00	1.376679e+00	0.0	5.786315e-01	1.133181e+00	0.0	5.729769e-01	9.679372e-01	0.0	7.172900e-01	8.817742e-01	0.0	-4.706077e-01	2.183860e+00	0.0	5.679375e-01	7.985285e-01	0.0	1.228546e-01	1.518204e+00	0.0	2.279691e-02	1.047289e+00	0.0	8.320521e-02	1.041063e+00	0.0	5.033468e-02	1.101913e+00	0.0	1.219691e-01	1.104509e+00	0.0	-2.270250e-01	2.375087e+00	0.0	-9.617590e-01	1.108784e+00	0.0	-1.245187e+00	1.191051e+00	0.0	-7.079931e-01	1.027579e+00	0.0	-9.221295e-01	8.266544e-01	0.0	-6.775202e-01	7.984572e-01	0.0	-1.312202e+00	1.494832e+00	0.0	7.101723e-01	7.094472e-01	0.0	8.684597e-01	7.881516e-01	0.0	5.583553e-01	6.419675e-01	0.0	-3.558236e-01	1.362627e+00	0.0	1.348529e+00	2.364476e+00	0.0	-2.630234e-02	1.090302e+00	0.0	1.117829e-02	1.167717e+00	0.0	1.571133e-01	1.029943e+00	0.0	2.071370e-01	1.104065e+00	0.0	1.597519e-01	1.182734e+00	0.0	2.496705e-01	1.015521e+00	0.0	8.544827e-01	6.108496e-01	0.0	1.047555e+00	6.998655e-01	0.0	-7.847310e-02	1.158033e+00	0.0	-5.171348e-01	9.204152e-01	0.0	-4.863658e-01	7.410581e-01	0.0	-6.210221e-01	6.162069e-01	0.0	-4.304165e-01	5.790980e-01	0.0	-1.561645e+00	1.283922e+00	0.0	2.721982e-01	1.192937e+00	0.0	-5.279951e-01	2.507900e+00	0.0	-2.485216e-01	2.731250e+00	0.0	4.318698e-01	7.203270e-01	0.0	4.233758e-01	5.725091e-01	0.0	-3.335265e-02	1.251950e+00	0.0	5.424962e-01	4.927149e-01	0.0	4.112126e-01	4.303540e-01	0.0	1.018241e+00	2.500118e+00	0.0	-1.633552e+00	1.628891e+00	0.0	1.309393e+00	2.745135e+00	0.0	5.177841e-01	3.509866e-01	0.0	1.029850e+00	4.328609e-01	0.0	-1.477416e+00	9.899497e-01	0.0	-5.601504e-01	4.553761e-01	0.0	-7.270539e-01	4.819428e-01	0.0	-4.090902e-01	4.203457e-01	0.0	-3.522791e-01	8.700653e-01	0.0	-3.889332e-01	1.027066e+00	0.0	-1.995353e+00	1.406583e+00	0.0	3.058598e-01	6.525576e-01	0.0	3.242700e-01	7.890326e-01	0.0	6.642582e-01	4.078662e-01	0.0	-3.050955e-01	5.085933e-01	0.0	6.073747e-01	1.962519e+00	0.0	1.224429e+00	6.011520e-01	0.0	1.250184e+00	8.250911e-01	0.0	1.457536e+00	6.770896e-01	0.0	1.491338e+00	9.566090e-01	0.0	1.773625e+00	8.129378e-01	0.0	2.073828e-01	1.286702e+00	0.0	3.329952e-01	1.291810e+00	0.0	-5.121868e-01	3.061387e-01	0.0	-5.380612e-01	1.261514e+00	0.0	-7.924608e-01	2.286933e+00	0.0	-8.696866e-01	2.652326e+00	0.0	-1.158131e+00	2.423026e+00	0.0	-1.242246e+00	2.799469e+00	0.0	-1.611716e+00	2.457963e+00	0.0	-2.704602e-01	3.766037e-01	0.0	-1.427840e-01	1.240183e+00	0.0	-1.014268e-01	1.353312e+00	0.0	-1.763546e-01	1.137806e+00	0.0	8.783725e-02	2.565590e+00	0.0	1.029681e-01	3.019180e+00	0.0	4.272249e-01	2.781426e+00	0.0	-1.361638e+00	1.838642e+00	0.0	4.419215e-01	1.044947e+00	0.0	-3.108847e-01	3.147482e+00	0.0	-3.376796e-01	7.131312e-01	0.0	3.905654e-01	2.971765e-01	0.0	2.782915e-01	3.728023e-01	0.0	2.712444e-01	2.590314e-01	0.0	-1.115764e-01	1.077712e+00	0.0	-1.918797e-01	1.038577e+00	0.0	1.672005e+00	2.603574e+00	0.0	1.351136e+00	1.368437e+00	0.0	2.442785e+00	2.509530e+00	0.0	8.886710e-01	2.913113e+00	0.0	-1.697169e+00	2.000053e+00	0.0	2.897750e-01	5.099332e-01	0.0	1.971068e-01	4.461399e-01	0.0	1.204570e+00	2.088856e-01	0.0	-2.509004e-01	7.997219e-01	0.0	-2.031816e-01	4.612449e-01	0.0	3.587496e-01	3.516320e+00	0.0	-3.683082e-01	2.897439e-01	0.0	-2.513200e-01	2.632515e-01	0.0	4.269022e-01	8.903973e-01	0.0	2.109340e+00	1.080852e+00	0.0	-1.676617e+00	3.018022e+00	0.0	-2.026846e+00	2.666903e+00	0.0	2.607158e-01	1.407890e+00	0.0	-2.493719e+00	1.295472e+00	0.0	5.091525e-01	1.363902e+00	0.0	-1.195527e+00	2.199189e-01	0.0	-1.314128e+00	4.697507e-01	0.0	-1.599290e+00	5.224038e-01	0.0	-1.044962e+00	4.332833e-01	0.0	-1.153999e+00	6.810762e-01	0.0	1.631869e+00	3.047538e+00	0.0	-1.479044e-01	1.589819e+00	0.0	3.069713e-01	9.091070e-01	0.0	-2.594272e-01	1.222158e+00	0.0	-2.468802e-01	8.922655e-01	0.0	2.148670e-01	8.375987e-01	0.0	-2.166457e-01	6.824956e-01	0.0	-5.613393e-01	1.604002e-01	0.0	5.664728e-01	1.255855e-01	0.0	9.638304e-01	2.045637e-01	0.0	-9.533785e-01	1.895011e-01	0.0	1.826954e+00	2.785964e-01	0.0	2.921698e-01	9.086346e-02	0.0	-2.840612e-01	9.229685e-02	0.0	-1.490751e+00	3.525634e+00	0.0	2.972107e-02	1.367432e+00	0.0	2.519001e+00	3.105668e+00	0.0	2.275446e-01	5.821961e-01	0.0	-1.832465e+00	2.953506e-01	0.0	-1.977202e+00	6.768975e-01	0.0	1.295565e+00	1.090381e+00	0.0	2.060326e-01	6.790669e-01	0.0	1.924197e-01	9.403358e-01	0.0	7.418665e-01	2.245468e+00	0.0	-2.532269e+00	2.524420e+00	0.0	1.437226e+00	3.516627e+00	0.0	-2.189186e-01	5.745803e-01	0.0	1.089458e-01	9.704541e-01	0.0	-2.461547e+00	3.076565e+00	0.0	-1.130174e-01	8.082243e-01	0.0	8.204452e-01	3.206647e-01	0.0	4.156693e-01	2.424846e+00	0.0	-8.275684e-01	3.222250e-01	0.0	-1.166173e-01	6.538462e-01	0.0	1.240439e-01	8.065138e-01	0.0	-2.154304e+00	1.044185e+00	0.0	1.166173e-01	6.538462e-01	0.0	-1.258892e-01	5.059709e-01	0.0	1.175714e-01	4.975748e-01	0.0	1.048701e+00	9.459876e-01	0.0	1.186418e-01	4.187835e-01	0.0	-1.166173e-01	2.692308e-01	0.0	1.166173e-01	2.692308e-01	0.0	1.911633e-01	3.076923e-01	0.0	-1.230149e-01	4.240231e-01	0.0	2.168732e-01	1.650969e-01	0.0	-2.130153e-01	1.684055e-01	0.0	-8.055871e-01	6.334177e-01	0.0	-2.811060e-01	1.101705e+00	0.0	2.114262e+00	7.400841e-01	0.0	4.281373e-01	1.193306e+00	0.0	1.771809e+00	1.153906e+00	0.0	-2.500000e-02	1.043301e+00	0.0	6.913395e-01	5.556832e-01	0.0	-6.558579e-01	3.146104e-01	0.0	1.873560e-01	7.692308e-01	0.0	-1.213880e-01	1.006983e+00	0.0	1.155948e-01	1.153846e-01	0.0	-1.169921e-01	1.167516e-01	0.0	-1.947655e+00	1.778423e+00	0.0	-2.086024e+00	2.166615e+00	0.0	-5.187853e-01	1.093553e+00	0.0	-9.145482e-01	3.061229e+00	0.0	6.700572e-02	1.250202e+00	0.0	1.105028e+00	1.240846e+00	0.0	-5.835849e-01	2.893561e+00	0.0	8.505567e-01	9.636509e-01	0.0	6.983346e-01	2.572994e+00	0.0	5.374437e-01	3.138332e+00	0.0	-1.194511e+00	9.174719e-01	0.0	2.057508e+00	2.866260e+00	0.0	1.249515e+0
[...]
POINT_DATA 394

SCALARS Density float 1
LOOKUP_TABLE default
1.223756e+00	1.223968e+00	1.222507e+00	1.222139e+00	1.223558e+00	1.223797e+00	1.223244e+00	1.223612e+00	1.223594e+00	1.223609e+00	1.223658e+00	1.223690e+00	1.223769e+00	1.223774e+00	1.223786e+00	1.223766e+00	1.223801e+00	1.223825e+00	1.223863e+00	1.223887e+00	1.223911e+00	1.223950e+00	1.223931e+00	1.223990e+00	1.223927e+00	1.224002e+00	1.223932e+00	1.223948e+00	1.223950e+00	1.223941e+00	1.223934e+00	1.223901e+00	1.223901e+00	1.223819e+00	1.223903e+00	1.223101e+00	1.224930e+00	1.220667e+00	1.223955e+00	1.223522e+00	1.223565e+00	1.223491e+00	1.223433e+00	1.223400e+00	1.223401e+00	1.223413e+00	1.223444e+00	1.223479e+00	1.223422e+00	1.223656e+00	1.223429e+00	1.223542e+00	1.223454e+00	1.223383e+00	1.223336e+00	1.223305e+00	1.223211e+00	1.223264e+00	1.223260e+00	1.223389e+00	1.222922e+00	1.223517e+00	1.223185e+00	1.222976e+00	1.222850e+00	1.222944e+00	1.223083e+00	1.223103e+00	1.223223e+00	1.223265e+00	1.223352e+00	1.223412e+00	1.223497e+00	1.223556e+00	1.223593e+00	1.223595e+00	1.223515e+00	1.223711e+00	1.223812e+00	1.223198e+00	1.223451e+00	1.223854e+00	1.223870e+00	1.223306e+00	1.223657e+00	1.223298e+00	1.223528e+00	1.223305e+00	1.223447e+00	1.223920e+00	1.223931e+00	1.223424e+00	1.223575e+00	1.223707e+00	1.223539e+00	1.223952e+00	1.223051e+00	1.223759e+00	1.223618e+00	1.223110e+00	1.223960e+00	1.223520e+00	1.223308e+00	1.223753e+00	1.222983e+00	1.222978e+00	1.223129e+00	1.223115e+00	1.223075e+00	1.223056e+00	1.223041e+00	1.223264e+00	1.222960e+00	1.222978e+00	1.223008e+00	1.223170e+00	1.222929e+00	1.223218e+00	1.223147e+00	1.223260e+00	1.223207e+00	1.223255e+00	1.223475e+00	1.223357e+00	1.223193e+00	1.223026e+00	1.223275e+00	1.222981e+00	1.223199e+00	1.223439e+00	1.223535e+00	1.223557e+00	1.223501e+00	1.223650e+00	1.223702e+00	1.223599e+00	1.223702e+00	1.223682e+00	1.223283e+00	1.223272e+00	1.223310e+00	1.223556e+00	1.223352e+00	1.223252e+00	1.222519e+00	1.222308e+00	1.222810e+00	1.223110e+00	1.223429e+00	1.223744e+00	1.223743e+00	1.223802e+00	1.223792e+00	1.223820e+00	1.223700e+00	1.223240e+00	1.223080e+00	1.223337e+00	1.223562e+00	1.223199e+00	1.222123e+00	1.223231e+00	1.223256e+00	1.223109e+00	1.222879e+00	1.223322e+00	1.223249e+00	1.223159e+00	1.223108e+00	1.223783e+00	1.223788e+00	1.223853e+00	1.223846e+00	1.223704e+00	1.223001e+00	1.223509e+00	1.223486e+00	1.223463e+00	1.223389e+00	1.223149e+00	1.223330e+00	1.223384e+00	1.223272e+00	1.223686e+00	1.223145e+00	1.223432e+00	1.223087e+00	1.223764e+00	1.223880e+00	1.223895e+00	1.223919e+00	1.223821e+00	1.223698e+00	1.223721e+00	1.223426e+00	1.223464e+00	1.223269e+00	1.223933e+00	1.223335e+00	1.223045e+00	1.223175e+00	1.222955e+00	1.222962e+00	1.223052e+00	1.223016e+00	1.222994e+00	1.223958e+00	1.223627e+00	1.223552e+00	1.223538e+00	1.223607e+00	1.223578e+00	1.223647e+00	1.223912e+00	1.223223e+00	1.223486e+00	1.223508e+00	1.223365e+00	1.223388e+00	1.223413e+00	1.223654e+00	1.223204e+00	1.223414e+00	1.223894e+00	1.223390e+00	1.223418e+00	1.223444e+00	1.223713e+00	1.223044e+00	1.223082e+00	1.222938e+00	1.223305e+00	1.223293e+00	1.223671e+00	1.223451e+00	1.223383e+00	1.223031e+00	1.223802e+00	1.223978e+00	1.223407e+00	1.223902e+00	1.223951e+00	1.223336e+00	1.222975e+00	1.223571e+00	1.223608e+00	1.222771e+00	1.223703e+00	1.223134e+00	1.223843e+00	1.223876e+00	1.223742e+00	1.223841e+00	1.223789e+00	1.223260e+00	1.223526e+00	1.223410e+00	1.223448e+00	1.223739e+00	1.223595e+00	1.223882e+00	1.223950e+00	1.223373e+00	1.223261e+00	1.223873e+00	1.223013e+00	1.223539e+00	1.223977e+00	1.223566e+00	1.223117e+00	1.223156e+00	1.223485e+00	1.223806e+00	1.223747e+00	1.223034e+00	1.223459e+00	1.223331e+00	1.223220e+00	1.223651e+00	1.223229e+00	1.223849e+00	1.223375e+00	1.223636e+00	1.223966e+00	1.223252e+00	1.223340e+00	1.223872e+00	1.223898e+00	1.223576e+00	1.223722e+00	1.223508e+00	1.223888e+00	1.223435e+00	1.223103e+00	1.223445e+00	1.223941e+00	1.223465e+00	1.223423e+00	1.223888e+00	1.223405e+00	1.223971e+00	1.223858e+00	1.223683e+00	1.223012e+00	1.223133e+00	1.223319e+00	1.223584e+00	1.223314e+00	1.223944e+00	1.223477e+00	1.223540e+00	1.223468e+00	1.223947e+00	1.223668e+00	1.223670e+00	1.223740e+00	1.223533e+00	1.222873e+00	1.223135e+00	1.223487e+00	1.223098e+00	1.223240e+00	1.223296e+00	1.223819e+00	1.223304e+00	1.223232e+00	1.223971e+00	1.223601e+00	1.223519e+00	1.223071e+00	1.223597e+00	1.223221e+00	1.223185e+00	1.223904e+00	1.223334e+00	1.223354e+00	1.223394e+00	1.223377e+00	1.223786e+00	1.223272e+00	1.223327e+00	1.223660e+00	1.223286e+00	1.223774e+00	1.223339e+00	1.222522e+00	1.223800e+00	1.223849e+00	1.223523e+00	1.223470e+00	1.222932e+00	1.223679e+00	1.223172e+00	1.223631e+00	1.223896e+00	1.224814e+00	1.223963e+00	1.223776e+00	1.223389e+00	1.223313e+00	1.223576e+00	1.223435e+00	1.223893e+00	1.223031e+00	1.223962e+00	1.223183e+00	1.223105e+00	1.223607e+00	1.223203e+00	1.223595e+00	1.223343e+00	1.223852e+00	1.223861e+00	1.223722e+00	1.223366e+00	1.223372e+00	1.223975e+00	1.223600e+00	1.223483e+00	1.223144e+00	1.223729e+00	1.222935e+00	1.223509e+00	1.223161e+00	1.223411e+00	1.223492e+00	1.223807e+00	1.223016e+00	1.223503e+00	1.222833e+00	1.223323e+00	1.223113e+00	1.223818e+00	1.223032e+00	
SCALARS X-Momentum float 1
LOOKUP_TABLE default
7.911638e+00	2.199339e-01	3.877846e+00	3.068631e-01	-6.358265e-01	-5.205289e+00	1.642396e+01	1.001667e+01	9.844642e+00	9.584448e+00	9.264757e+00	8.892107e+00	8.522913e+00	8.159321e+00	7.720171e+00	7.358787e+00	6.815053e+00	6.146450e+00	5.406711e+00	4.599212e+00	3.752035e+00	2.974218e+00	2.161905e+00	1.420258e+00	7.445488e-01	-2.560323e-02	3.337607e-02	1.100726e-01	1.561657e-01	1.857238e-01	1.979673e-01	1.903361e-01	1.650012e-01	1.309919e-01	6.111160e-02	-3.078637e-03	-3.038263e-01	4.196962e+00	2.882655e-01	8.714490e-02	1.082355e-01	1.070052e-01	1.473050e-01	2.031769e-01	2.351544e-01	2.382958e-01	2.256238e-01	1.697591e-01	1.257055e-01	1.075977e-01	-1.968339e+00	-3.543630e+00	-4.904542e+00	-6.175098e+00	-7.237371e+00	-8.025183e+00	-8.608494e+00	-8.881512e+00	-8.371424e+00	-7.533716e+00	-6.702877e+00	-1.516956e+00	3.890523e+00	9.397652e+00	1.358377e+01	1.580742e+01	1.648583e+01	1.579020e+01	1.490184e+01	1.391191e+01	1.306340e+01	1.233052e+01	1.165282e+01	1.103649e+01	1.052928e+01	1.018460e+01	6.177291e-01	7.644964e-01	6.661040e+00	-6.086159e+00	2.033957e-01	9.835343e-01	4.337125e+00	-5.872782e+00	9.160774e+00	1.207368e+01	1.113797e+01	1.388376e+01	-1.760922e-01	8.137775e-01	2.551931e+00	-4.388347e+00	4.421535e-01	1.002014e+00	-5.972568e-01	6.356338e-01	6.146500e-01	8.164791e+00	1.013779e+01	1.563773e+01	1.012780e+00	-2.087722e+00	-3.489714e+00	7.749871e+00	6.921822e+00	1.065879e+01	1.385739e+01	1.276552e+01	8.864503e+00	1.163414e+01	1.426150e+01	1.335809e+01	1.037620e+01	1.209628e+01	8.878819e+00	1.039092e+01	1.329063e+01	1.220755e+01	1.384651e+01	1.324398e+01	1.372338e+01	1.304439e+01	1.293118e+01	1.196407e+01	7.073664e+00	1.493783e+01	1.363783e+01	5.404021e+00	4.234199e+00	1.193471e+01	1.095350e+01	1.053564e+01	9.932129e+00	9.186277e+00	9.092220e+00	9.666802e+00	8.142905e+00	8.438617e+00	5.127205e+00	2.797087e+00	1.981211e+00	1.114247e+01	1.103164e+00	1.249827e+01	4.917410e+00	2.444768e+00	5.962538e+00	4.474528e+00	1.195437e+01	7.559815e+00	8.003103e+00	6.913577e+00	6.519220e+00	5.720965e+00	8.681425e+00	1.161410e-01	8.663073e-01	-2.730985e-01	9.337326e+00	1.536196e+01	7.652252e+00	8.826632e+00	2.050982e+00	4.070212e+00	6.927979e+00	2.344006e+00	-1.290485e+00	-5.383294e-01	9.185973e+00	5.766325e+00	4.595933e+00	4.763387e+00	3.581796e+00	8.324689e+00	6.391378e+00	1.126041e+01	1.194856e+01	5.750207e-01	-4.466320e-01	1.049470e+01	-1.505906e+00	-1.418353e+00	1.513208e+01	8.872169e+00	1.528299e+01	-2.627487e+00	-3.450225e+00	7.725354e+00	4.002814e+00	4.820006e+00	3.041329e+00	4.346507e+00	6.012034e+00	8.571770e+00	3.243465e-01	1.058142e+00	-2.766719e+00	2.521194e+00	1.442178e+01	-1.849390e+00	8.922349e-01	-1.064956e+00	2.375635e+00	5.366827e-01	9.350189e+00	8.883694e+00	3.393606e+00	8.092033e+00	1.055962e+01	1.078787e+01	1.019410e+01	1.041381e+01	9.825270e+00	2.028659e+00	9.822957e+00	1.104521e+01	7.989072e+00	1.280928e+01	1.265137e+01	1.361152e+01	9.273677e+00	3.477214e+00	1.188100e+01	3.362625e+00	-2.274947e+00	-1.094815e+00	-1.696453e+00	7.212069e+00	5.512831e+00	1.555616e+01	8.076426e+00	1.511724e+01	1.443555e+01	9.338660e+00	-4.164540e-01	-3.261478e-01	-6.315286e+00	2.806935e+00	1.695867e+00	1.291792e+01	2.542383e+00	1.692842e+00	1.775982e+00	3.471248e+00	1.015083e+01	9.736160e+00	1.120726e+01	8.565027e+00	9.499676e+00	5.983466e+00	6.556540e+00	7.157464e+00	5.834835e+00	6.574051e+00	1.536588e+01	1.161990e+01	1.630351e+00	8.723150e+00	3.250417e+00	1.067852e+00	2.088274e+00	3.438396e+00	-5.279109e+00	-6.088196e+00	5.200421e+00	-5.186593e+00	-3.303555e+00	1.722153e+00	1.057625e+01	1.162907e+01	1.613998e+01	1.280055e-01	7.275934e+00	7.759181e+00	4.411610e+00	4.834048e-01	1.352207e+00	1.478152e+01	9.468780e+00	1.474747e+01	1.877761e+00	7.713890e-01	9.796880e+00	9.367024e-01	-4.206235e+00	1.388595e+01	4.952883e+00	1.013668e+00	5.691276e-01	8.225104e+00	3.086352e-01	1.021428e+00	7.846612e-02	2.776626e+00	-4.039788e-02	7.062045e-01	-3.452523e-01	-8.104009e-01	9.333231e-01	-1.798238e+00	1.243588e+00	5.545494e+00	6.860637e+00	-2.272639e-01	6.272534e+00	4.737438e+00	6.644224e+00	-1.440849e+00	4.155260e+00	7.583431e-01	4.271084e+00	-8.202045e-01	5.401742e-01	9.016407e+00	9.337717e+00	6.948324e+00	1.096253e+01	9.794641e+00	6.678561e+00	1.136066e+01	2.972871e+00	1.451544e+01	1.346339e+01	7.264508e+00	1.576465e+01	1.478061e+01	1.413427e+00	1.031107e+01	1.177985e+01	1.489232e+01	9.834007e+00	3.905304e+00	1.423865e+01	2.084293e+00	-3.631333e+00	1.434264e+01	-2.889817e+00	1.274586e+01	8.034020e+00	-4.094376e+00	1.192644e+01	9.160986e+00	2.431162e+00	7.133808e+00	-3.107091e+00	-3.710835e+00	7.959852e+00	1.879916e+00	2.692417e+00	1.006406e+01	7.445380e+00	7.659698e+00	1.088423e+01	9.705710e+00	2.859121e+00	1.459522e+00	1.309146e+00	7.573951e+00	-1.035667e+00	1.146160e+01	9.972782e+00	1.227965e+01	2.742458e+00	1.618708e+01	1.122123e+00	-3.925892e+00	-2.275758e+00	9.936122e+00	-2.683670e+00	1.062102e+01	1.081732e+01	5.419488e+00	4.824950e+00	8.919527e+00	-4.732454e-01	-3.048392e-03	4.440239e-01	-9.626066e-01	1.248693e+01	1.416619e+01	1.753850e+00	1.230000e+01	7.531976e+00	1.538402e+01	2.639199e-01	1.142202e+01	5.980594e+00	7.305166e+00	7.997881e-01	5.598651e+00	1.324963e+01	6.602226e+00	1.565977e+00	7.697166e+00	
SCALARS Y-Momentum float 1
LOOKUP_TABLE default
-2.581634e-02	2.161728e-01	7.435570e+00	9.818347e-02	6.129597e-01	2.230110e-01	6.253361e-02	-1.384415e-02	2.372901e-02	5.554309e-02	7.844167e-02	1.020998e-01	9.001852e-02	2.435309e-02	-4.113491e-03	2.709442e-04	5.336509e-03	3.055755e-03	8.948213e-03	1.035379e-02	-9.040475e-03	1.747575e-03	-2.477181e-03	6.666891e-03	-1.741459e-02	6.822300e-01	1.222256e+00	1.790935e+00	2.434339e+00	3.111529e+00	3.804090e+00	4.521444e+00	5.289211e+00	6.153238e+00	6.953683e+00	7.427246e+00	8.245711e+00	-1.937910e-01	2.672693e+00	3.659436e+00	4.469032e+00	5.014790e+00	5.328528e+00	5.426140e+00	5.274477e+00	4.904353e+00	4.367353e+00	3.656584e+00	2.804260e+00	1.740906e+00	-6.512667e-03	2.473638e-02	2.895663e-02	1.259462e-02	1.083224e-02	2.346416e-02	2.452111e-02	1.733768e-03	-5.707274e-02	-7.675351e-02	-9.600779e-02	-5.177280e-01	-6.126434e-01	-2.974277e-01	3.299192e-01	6.272334e-01	4.105478e-01	1.705236e-02	6.713710e-03	-3.193866e-03	-3.729959e-02	-2.320470e-02	-2.471421e-03	-4.837228e-03	5.153461e-03	-1.258030e-03	8.199995e+00	3.821920e+00	5.090157e-01	-2.664017e-01	5.105690e+00	4.701420e+00	7.083967e-01	6.707962e-01	4.595486e-01	9.176235e-02	5.341278e-01	8.573752e-01	4.260193e+00	2.649219e+00	6.638475e-01	9.466463e-01	4.764409e+00	6.244666e+00	2.919167e+00	1.465730e+00	-8.577543e-01	3.847476e-01	3.111848e-01	7.853286e-01	5.057222e-01	1.068898e+00	-6.402567e-01	2.865440e-01	-5.986748e-01	-2.661510e-02	7.566049e-01	8.906106e-01	1.528861e-01	1.126074e+00	1.830126e+00	2.151689e+00	1.524416e+00	2.533112e+00	2.057619e+00	3.027288e+00	3.603974e+00	4.188235e+00	4.517614e+00	5.146003e+00	4.894370e+00	5.610206e+00	4.665284e+00	5.350673e+00	2.451469e+00	2.616509e+00	4.045851e+00	1.868221e+00	2.497143e+00	3.952938e+00	4.100637e+00	5.511915e+00	3.944627e+00	4.766953e+00	3.486290e+00	3.031173e+00	3.928116e+00	2.853763e+00	2.919580e+00	3.216291e+00	2.673627e+00	3.058674e+00	3.409505e+00	5.865864e+00	1.760312e+00	1.720619e+00	3.114794e+00	2.772133e+00	2.864438e+00	2.942819e+00	2.237659e+00	4.000395e+00	2.652227e+00	3.505848e+00	2.142128e+00	2.635658e+00	1.938563e+00	3.249203e+00	6.688571e+00	2.075341e+00	6.441724e+00	5.847066e+00	3.049747e+00	3.388880e+00	3.794914e+00	3.800793e+00	1.725817e+00	9.868960e-01	8.669954e+00	4.990832e+00	4.279714e+00	3.025005e+00	3.517801e+00	1.667851e+00	3.604447e+00	2.206101e+00	1.931833e+00	4.016994e+00	3.728745e+00	7.632715e+00	2.865789e+00	3.238367e+00	2.470961e+00	1.566253e+00	1.873228e+00	2.291474e+00	7.383765e-01	1.636205e+00	2.418719e+00	2.101910e+00	2.556675e+00	6.232319e+00	6.907292e+00	1.099633e+00	4.443429e+00	4.484048e+00	1.970295e+00	3.394042e+00	3.860261e+00	2.648029e-01	3.572325e-01	-1.701942e-01	-1.956062e-01	-7.146654e-01	4.389796e+00	3.821009e+00	1.716907e+00	5.349606e+00	2.322433e+00	1.673684e+00	1.730721e+00	1.220323e+00	1.215971e+00	2.530579e+00	8.907526e+00	7.939593e+00	9.822439e+00	2.618938e+00	1.490194e+00	2.204183e+00	1.945598e+00	3.500790e+00	1.135526e+00	4.925180e+00	2.571187e+00	3.576404e+00	2.816842e+00	1.002731e+01	1.019005e+01	1.634627e+00	6.527217e-01	8.551642e-01	1.865141e+00	1.397770e+00	4.158518e+00	4.410107e+00	1.187068e-01	6.409722e+00	3.381138e+00	6.945698e-01	1.812751e+00	1.772165e+00	4.007237e+00	-9.035680e-01	7.531099e-01	7.131963e-01	4.777010e+00	5.411481e-01	3.400827e+00	5.934484e-01	1.102392e+00	9.008621e-01	1.334901e+00	1.765257e+00	1.381638e+00	6.447048e+00	4.329121e+00	8.577711e+00	7.835002e+00	4.453175e+00	5.329384e+00	8.180649e-01	8.076649e-01	4.682336e-01	6.649034e-01	-4.721677e-01	1.085575e+00	6.101723e-01	4.058149e-01	6.787466e+00	9.065688e-01	4.683491e+00	4.217348e-01	7.333136e-01	5.236713e-01	4.793304e+00	3.959036e+00	3.239852e+00	4.296504e-01	7.672658e-01	4.262863e+00	2.865706e+00	3.232586e-01	7.271248e+00	1.179432e+00	3.181792e+00	1.344697e+00	5.427958e+00	4.323925e+00	8.004876e-01	5.017379e+00	4.002258e+00	4.984696e+00	1.269233e+00	4.688091e+00	2.042726e+00	3.675709e+00	3.607812e+00	3.286130e+00	2.181094e+00	1.174465e+00	2.499481e+00	8.827162e+00	-9.176707e-01	3.291887e+00	-5.105048e-01	4.823965e+00	2.371754e+00	1.507651e+00	4.660496e+00	1.065532e+01	2.007134e+00	9.094849e-01	1.139164e+00	8.839056e-01	5.491686e+00	1.095892e+00	5.440615e+00	1.271869e+00	1.483852e+00	2.065163e+00	2.653749e+00	1.405585e+00	2.096773e+00	1.305099e+00	1.383589e+00	2.792707e+00	3.055738e+00	5.211599e-01	1.497825e+00	2.314863e+00	3.585990e+00	3.084813e+00	1.225944e+00	1.659561e+00	3.868325e+00	1.919634e+00	3.619661e+00	1.187963e+00	1.440085e+00	6.975322e+00	2.610321e+00	3.978247e+00	1.434569e+00	-5.098450e-01	-4.689195e-01	1.317068e-01	7.744789e+00	9.494270e+00	8.157217e+00	3.964179e+00	7.067202e+00	4.149000e+00	1.697520e+00	1.236448e+00	1.000188e+01	2.234084e+00	1.147521e+00	3.066389e+00	5.524236e+00	1.327049e-01	7.068193e-01	4.216676e+00	4.545715e-01	1.724722e+00	-4.371413e-02	-7.988123e-01	5.293583e-01	1.584965e+00	8.078975e-01	7.121495e+00	1.845275e+00	8.538637e+00	7.156275e-01	4.141701e+00	4.742754e+00	4.185437e-01	1.012770e+00	6.368738e+00	4.358959e+00	6.528693e+00	4.803612e+00	4.636794e+00	1.287904e+00	4.912547e+00	9.155872e-01	2.005827e+00	-5.234952e-01	4.662233e+00	2.118830e-02	3.367516e+00	8.971465e+00	4.854946e+00	2.884027e+00	
SCALARS Energy float 1
LOOKUP_TABLE default