# vtk DataFile Version 3.0
vtk output
ASCII
DATASET UNSTRUCTURED_GRID
POINTS 394 float
-3.000000e+00	0.000000e+00	0.0	-5.000000e-02	1.225819e-17	0.0	3.858943e-02	1.005521e+00	0.0	1.386267e-01	9.944149e-01	0.0	5.000000e-02	-1.739414e-18	0.0	3.000000e+00	0.000000e+00	0.0	3.000000e+00	4.000000e+00	0.0	-3.000000e+00	4.000000e+00	0.0	-3.000000e+00	3.428571e+00	0.0	-3.000000e+00	2.857143e+00	0.0	-3.000000e+00	2.285714e+00	0.0	-3.000000e+00	1.714286e+00	0.0	-3.000000e+00	1.142857e+00	0.0	-3.000000e+00	5.714286e-01	0.0	-2.473871e+00	0.000000e+00	0.0	-2.029066e+00	0.000000e+00	0.0	-1.653013e+00	0.000000e+00	0.0	-1.335087e+00	0.000000e+00	0.0	-1.066302e+00	0.000000e+00	0.0	-8.390627e-01	0.000000e+00	0.0	-6.469477e-01	0.000000e+00	0.0	-4.845277e-01	0.000000e+00	0.0	-3.472127e-01	0.000000e+00	0.0	-2.311224e-01	0.000000e+00	0.0	-1.329760e-01	0.000000e+00	0.0	-4.859272e-02	7.829632e-02	0.0	-4.545306e-02	1.563488e-01	0.0	-4.076723e-02	2.341746e-01	0.0	-3.484545e-02	3.118088e-01	0.0	-2.795721e-02	3.892663e-01	0.0	-2.036090e-02	4.665594e-01	0.0	-1.229548e-02	5.437118e-01	0.0	-3.957350e-03	6.207568e-01	0.0	4.503644e-03	6.977350e-01	0.0	1.300991e-02	7.746859e-01	0.0	2.151939e-02	8.516389e-01	0.0	3.010200e-02	9.285851e-01	0.0	8.860730e-02	1.000003e+00	0.0	1.300404e-01	9.174848e-01	0.0	1.215090e-01	8.405477e-01	0.0	1.129876e-01	7.636281e-01	0.0	1.044896e-01	6.867244e-01	0.0	9.603389e-02	6.098644e-01	0.0	8.770072e-02	5.330862e-01	0.0	7.963612e-02	4.564233e-01	0.0	7.203903e-02	3.799010e-01	0.0	6.514832e-02	3.035375e-01	0.0	5.922415e-02	2.273432e-01	0.0	5.454065e-02	1.513329e-01	0.0	5.138078e-02	7.553837e-02	0.0	1.329760e-01	0.000000e+00	0.0	2.311224e-01	0.000000e+00	0.0	3.472127e-01	0.000000e+00	0.0	4.845277e-01	0.000000e+00	0.0	6.469477e-01	0.000000e+00	0.0	8.390627e-01	0.000000e+00	0.0	1.066302e+00	0.000000e+00	0.0	1.335087e+00	0.000000e+00	0.0	1.653013e+00	0.000000e+00	0.0	2.029066e+00	0.000000e+00	0.0	2.473871e+00	0.000000e+00	0.0	3.000000e+00	5.714286e-01	0.0	3.000000e+00	1.142857e+00	0.0	3.000000e+00	1.714286e+00	0.0	3.000000e+00	2.285714e+00	0.0	3.000000e+00	2.857143e+00	0.0	3.000000e+00	3.428571e+00	0.0	2.400000e+00	4.000000e+00	0.0	1.800000e+00	4.000000e+00	0.0	1.200000e+00	4.000000e+00	0.0	6.000000e-01	4.000000e+00	0.0	0.000000e+00	4.000000e+00	0.0	-6.000000e-01	4.000000e+00	0.0	-1.200000e+00	4.000000e+00	0.0	-1.800000e+00	4.000000e+00	0.0	-2.400000e+00	4.000000e+00	0.0	-5.877091e-02	8.961758e-01	0.0	1.732733e-01	8.791358e-01	0.0	-1.480060e+00	2.559528e-01	0.0	1.504873e+00	2.211823e-01	0.0	1.362855e-01	5.664184e-01	0.0	-9.454789e-02	5.844911e-01	0.0	-7.435664e-01	1.675368e-01	0.0	7.505502e-01	1.526439e-01	0.0	-2.580466e+00	2.080671e+00	0.0	2.528940e+00	1.939702e+00	0.0	-9.152042e-01	3.510731e+00	0.0	9.293610e-01	3.457309e+00	0.0	1.237938e-01	3.411715e-01	0.0	-1.105144e-01	3.503482e-01	0.0	-4.129314e-01	1.140012e-01	0.0	4.177571e-01	1.061738e-01	0.0	1.566285e-01	7.200168e-01	0.0	-8.098856e-02	7.395017e-01	0.0	1.237631e-01	1.927945e-01	0.0	-1.196092e-01	1.973724e-01	0.0	2.528606e+00	8.078135e-01	0.0	-2.500411e+00	7.921281e-01	0.0	-2.052439e+00	3.454482e+00	0.0	2.072894e+00	3.435571e+00	0.0	-1.834811e-01	7.587125e-02	0.0	1.843902e-01	7.364196e-02	0.0	2.227826e+00	3.912763e-01	0.0	-2.248879e+00	3.598784e-01	0.0	2.477383e+00	1.397357e+00	0.0	2.105313e+00	1.701374e+00	0.0	2.085115e+00	2.108315e+00	0.0	1.746378e+00	1.853379e+00	0.0	1.728976e+00	1.460042e+00	0.0	1.439494e+00	1.655970e+00	0.0	1.415189e+00	1.996865e+00	0.0	1.164735e+00	1.788970e+00	0.0	1.173641e+00	1.494970e+00	0.0	9.446465e-01	1.606753e+00	0.0	9.508254e-01	1.364251e+00	0.0	7.371134e-01	1.435462e+00	0.0	7.185515e-01	1.689395e+00	0.0	5.367749e-01	1.543023e+00	0.0	5.115363e-01	1.773297e+00	0.0	3.433812e-01	1.655348e+00	0.0	3.059372e-01	1.867453e+00	0.0	1.480174e-01	1.736460e+00	0.0	9.111503e-02	1.960731e+00	0.0	-7.902382e-02	1.784886e+00	0.0	7.770474e-01	1.226872e+00	0.0	1.119457e+00	2.122560e+00	0.0	3.098785e-01	2.132349e+00	0.0	9.356539e-01	1.121435e+00	0.0	7.650960e-01	1.040518e+00	0.0	-1.474588e-01	2.068169e+00	0.0	-3.535403e-01	1.900159e+00	0.0	-2.818610e-01	1.621730e+00	0.0	-5.632534e-01	1.733233e+00	0.0	-5.065973e-01	1.484101e+00	0.0	-7.685965e-01	1.566825e+00	0.0	-7.948073e-01	1.808762e+00	0.0	-7.153731e-01	1.309413e+00	0.0	-9.877152e-01	1.394180e+00	0.0	6.281276e-01	1.116136e+00	0.0	6.164061e-01	9.501225e-01	0.0	7.523698e-01	8.628777e-01	0.0	-4.203445e-01	2.188819e+00	0.0	6.020935e-01	7.806883e-01	0.0	1.882692e-01	1.513947e+00	0.0	8.935236e-02	1.047406e+00	0.0	1.495933e-01	1.035927e+00	0.0	1.172636e-01	1.100217e+00	0.0	1.875134e-01	1.099282e+00	0.0	-1.769368e-01	2.376208e+00	0.0	-9.274859e-01	1.127571e+00	0.0	-1.216889e+00	1.208631e+00	0.0	-6.662321e-01	1.047756e+00	0.0	-8.992400e-01	8.458208e-01	0.0	-6.488103e-01	8.185751e-01	0.0	-1.279981e+00	1.511077e+00	0.0	7.368760e-01	6.913726e-01	0.0	8.965309e-01	7.683438e-01	0.0	5.835392e-01	6.254189e-01	0.0	-2.933593e-01	1.374488e+00	0.0	1.382830e+00	2.352278e+00	0.0	4.072401e-02	1.093794e+00	0.0	7.852373e-02	1.167963e+00	0.0	2.195286e-01	1.021840e+00	0.0	2.698005e-01	1.095263e+00	0.0	2.253980e-01	1.176437e+00	0.0	3.070714e-01	1.004132e+00	0.0	8.748423e-01	5.926574e-01	0.0	1.069472e+00	6.813605e-01	0.0	-1.228912e-02	1.163072e+00	0.0	-4.751773e-01	9.399901e-01	0.0	-4.560795e-01	7.604529e-01	0.0	-6.010966e-01	6.328981e-01	0.0	-4.101884e-01	5.961708e-01	0.0	-1.538081e+00	1.300277e+00	0.0	3.342231e-01	1.182948e+00	0.0	-4.845160e-01	2.511990e+00	0.0	-2.072516e-01	2.733233e+00	0.0	4.638284e-01	7.031558e-01	0.0	4.454745e-01	5.577512e-01	0.0	3.386427e-02	1.254065e+00	0.0	5.595251e-01	4.788458e-01	0.0	4.247200e-01	4.189662e-01	0.0	1.057284e+00	2.489870e+00	0.0	-1.607111e+00	1.642856e+00	0.0	1.339712e+00	2.735330e+00	0.0	5.279252e-01	3.404177e-01	0.0	1.041833e+00	4.182528e-01	0.0	-1.458487e+00	1.006184e+00	0.0	-5.476261e-01	4.685603e-01	0.0	-7.138013e-01	4.958750e-01	0.0	-3.977884e-01	4.323045e-01	0.0	-3.081071e-01	8.888694e-01	0.0	-3.368139e-01	1.044024e+00	0.0	-1.977788e+00	1.418985e+00	0.0	3.343068e-01	6.365924e-01	0.0	3.631843e-01	7.724473e-01	0.0	6.772377e-01	3.948533e-01	0.0	-2.881035e-01	5.220457e-01	0.0	6.614046e-01	1.952534e+00	0.0	1.241126e+00	5.851563e-01	0.0	1.272469e+00	8.063296e-01	0.0	1.473256e+00	6.609258e-01	0.0	1.513758e+00	9.383329e-01	0.0	1.788071e+00	7.978508e-01	0.0	2.716412e-01	1.279217e+00	0.0	3.943168e-01	1.281126e+00	0.0	-5.057608e-01	3.153322e-01	0.0	-4.852347e-01	1.279658e+00	0.0	-7.489261e-01	2.294523e+00	0.0	-8.340988e-01	2.657558e+00	0.0	-1.123514e+00	2.431378e+00	0.0	-1.214014e+00	2.804110e+00	0.0	-1.584992e+00	2.467035e+00	0.0	-2.618268e-01	3.859106e-01	0.0	-7.740983e-02	1.246862e+00	0.0	-3.509770e-02	1.357493e+00	0.0	-1.130796e-01	1.147209e+00	0.0	1.365299e-01	2.562096e+00	0.0	1.375722e-01	3.017753e+00	0.0	4.682103e-01	2.775810e+00	0.0	-1.328358e+00	1.852285e+00	0.0	4.937809e-01	1.028656e+00	0.0	-2.821964e-01	3.150108e+00	0.0	-3.066051e-01	7.310388e-01	0.0	3.975527e-01	2.893287e-01	0.0	2.869376e-01	3.637259e-01	0.0	2.757371e-01	2.530699e-01	0.0	-4.752012e-02	1.085436e+00	0.0	-1.325496e-01	1.049836e+00	0.0	1.698307e+00	2.592999e+00	0.0	1.383578e+00	1.348579e+00	0.0	2.457121e+00	2.503460e+00	0.0	9.223958e-01	2.905627e+00	0.0	-1.670727e+00	2.012549e+00	0.0	3.070206e-01	4.965868e-01	0.0	2.094819e-01	4.374135e-01	0.0	1.209319e+00	2.021151e-01	0.0	-2.101757e-01	8.154556e-01	0.0	-1.898044e-01	4.704058e-01	0.0	3.787125e-01	3.515492e+00	0.0	-3.626419e-01	2.973902e-01	0.0	-2.470065e-01	2.692030e-01	0.0	4.716047e-01	8.732727e-01	0.0	2.124330e+00	1.065952e+00	0.0	-1.658645e+00	3.022078e+00	0.0	-2.010354e+00	2.671892e+00	0.0	3.240772e-01	1.399461e+00	0.0	-2.484980e+00	1.303540e+00	0.0	5.658905e-01	1.349522e+00	0.0	-1.191854e+00	2.266187e-01	0.0	-1.304934e+00	4.816970e-01	0.0	-1.590664e+00	5.339010e-01	0.0	-1.035231e+00	4.472477e-01	0.0	-1.138809e+00	6.977247e-01	0.0	1.654024e+00	3.040166e+00	0.0	-8.258422e-02	1.592649e+00	0.0	3.557687e-01	8.949413e-01	0.0	-1.967366e-01	1.233125e+00	0.0	-1.989887e-01	9.073834e-01	0.0	2.594370e-01	8.242998e-01	0.0	-1.865376e-01	6.960048e-01	0.0	-5.588742e-01	1.666441e-01	0.0	5.690546e-01	1.208374e-01	0.0	9.686828e-01	1.964409e-01	0.0	-9.501106e-01	1.963552e-01	0.0	1.831467e+00	2.715049e-01	0.0	2.933163e-01	8.864566e-02	0.0	-2.830909e-01	9.461651e-02	0.0	-1.478147e+00	3.527624e+00	0.0	9.649009e-02	1.366514e+00	0.0	2.526622e+00	3.102937e+00	0.0	2.499561e-01	5.697017e-01	0.0	-1.829212e+00	3.015237e-01	0.0	-1.968382e+00	6.882966e-01	0.0	1.323817e+00	1.071020e+00	0.0	2.366729e-01	6.668851e-01	0.0	2.477083e-01	9.293312e-01	0.0	7.904180e-01	2.235968e+00	0.0	-2.524150e+00	2.528495e+00	0.0	1.452152e+00	3.512554e+00	0.0	-1.969555e-01	5.868452e-01	0.0	1.707119e-01	9.625996e-01	0.0	-2.453642e+00	3.078146e+00	0.0	-7.011352e-02	8.167896e-01	0.0	8.295726e-01	3.087557e-01	0.0	4.655989e-01	2.418614e+00	0.0	-8.202075e-01	3.330582e-01	0.0	-8.843810e-02	6.620042e-01	0.0	1.672728e-01	7.974585e-01	0.0	-2.142819e+00	1.055512e+00	0.0	1.447822e-01	6.461102e-01	0.0	-1.093794e-01	5.131535e-01	0.0	1.328626e-01	4.912744e-01	0.0	1.078915e+00	9.249447e-01	0.0	1.288196e-01	4.136425e-01	0.0	-1.123522e-01	2.723765e-01	0.0	1.204503e-01	2.661636e-01	0.0	1.968049e-01	3.020955e-01	0.0	-1.119055e-01	4.295546e-01	0.0	2.188753e-01	1.617165e-01	0.0	-2.109800e-01	1.718782e-01	0.0	-7.882083e-01	6.501274e-01	0.0	-2.224269e-01	1.115281e+00	0.0	2.123371e+00	7.276559e-01	0.0	4.846991e-01	1.179104e+00	0.0	1.793213e+00	1.136281e+00	0.0	4.087605e-02	1.047125e+00	0.0	7.107158e-01	5.398157e-01	0.0	-6.486494e-01	3.249052e-01	0.0	2.263278e-01	7.575002e-01	0.0	-6.126612e-02	1.015244e+00	0.0	1.162724e-01	1.142905e-01	0.0	-1.161831e-01	1.179216e-01	0.0	-1.926406e+00	1.790158e+00	0.0	-2.067818e+00	2.176232e+00	0.0	-4.690465e-01	1.111581e+00	0.0	-8.876501e-01	3.064038e+00	0.0	1.344750e-01	1.248080e+00	0.0	1.141705e+00	1.220632e+00	0.0	-5.503606e-01	2.896722e+00	0.0	8.860317e-01	9.430626e-01	0.0	7.414363e-01	2.565048e+00	0.0	5.684541e-01	3.134352e+00	0.0	-1.173087e+00	9.348942e-01	0.0	2.075567e+00	2.858297e+00	0.0	1.273579e+00	3.1344
[...]
POINT_DATA 394

SCALARS Density float 1
LOOKUP_TABLE default
1.223751e+00	1.223951e+00	1.222310e+00	1.222036e+00	1.223547e+00	1.223770e+00	1.223251e+00	1.223611e+00	1.223593e+00	1.223608e+00	1.223656e+00	1.223686e+00	1.223763e+00	1.223767e+00	1.223777e+00	1.223757e+00	1.223790e+00	1.223811e+00	1.223848e+00	1.223870e+00	1.223892e+00	1.223934e+00	1.223913e+00	1.223978e+00	1.223907e+00	1.223990e+00	1.223909e+00	1.223925e+00	1.223924e+00	1.223908e+00	1.223896e+00	1.223858e+00	1.223854e+00	1.223772e+00	1.223852e+00	1.223065e+00	1.224837e+00	1.220625e+00	1.223889e+00	1.223517e+00	1.223540e+00	1.223483e+00	1.223435e+00	1.223410e+00	1.223413e+00	1.223421e+00	1.223445e+00	1.223476e+00	1.223416e+00	1.223639e+00	1.223419e+00	1.223525e+00	1.223443e+00	1.223376e+00	1.223331e+00	1.223301e+00	1.223207e+00	1.223251e+00	1.223246e+00	1.223372e+00	1.222904e+00	1.223496e+00	1.223176e+00	1.222971e+00	1.222848e+00	1.222943e+00	1.223082e+00	1.223107e+00	1.223232e+00	1.223275e+00	1.223362e+00	1.223420e+00	1.223502e+00	1.223558e+00	1.223593e+00	1.223595e+00	1.223356e+00	1.223741e+00	1.223799e+00	1.223187e+00	1.223458e+00	1.223807e+00	1.223855e+00	1.223297e+00	1.223653e+00	1.223300e+00	1.223530e+00	1.223310e+00	1.223448e+00	1.223887e+00	1.223915e+00	1.223413e+00	1.223573e+00	1.223649e+00	1.223533e+00	1.223928e+00	1.223046e+00	1.223751e+00	1.223618e+00	1.223113e+00	1.223945e+00	1.223507e+00	1.223293e+00	1.223745e+00	1.222980e+00	1.222967e+00	1.223127e+00	1.223121e+00	1.223080e+00	1.223060e+00	1.223047e+00	1.223280e+00	1.222957e+00	1.222987e+00	1.223028e+00	1.223184e+00	1.222939e+00	1.223220e+00	1.223165e+00	1.223271e+00	1.223211e+00	1.223258e+00	1.223474e+00	1.223357e+00	1.223179e+00	1.223038e+00	1.223279e+00	1.222986e+00	1.223190e+00	1.223438e+00	1.223532e+00	1.223550e+00	1.223495e+00	1.223636e+00	1.223692e+00	1.223592e+00	1.223686e+00	1.223670e+00	1.223282e+00	1.223267e+00	1.223306e+00	1.223553e+00	1.223343e+00	1.223257e+00	1.222347e+00	1.222206e+00	1.222860e+00	1.223084e+00	1.223430e+00	1.223731e+00	1.223730e+00	1.223782e+00	1.223779e+00	1.223801e+00	1.223691e+00	1.223233e+00	1.223073e+00	1.223334e+00	1.223558e+00	1.223205e+00	1.221995e+00	1.223279e+00	1.223180e+00	1.223073e+00	1.222862e+00	1.223288e+00	1.223244e+00	1.223157e+00	1.223174e+00	1.223759e+00	1.223769e+00	1.223831e+00	1.223816e+00	1.223698e+00	1.222980e+00	1.223507e+00	1.223487e+00	1.223454e+00	1.223381e+00	1.223158e+00	1.223328e+00	1.223381e+00	1.223282e+00	1.223679e+00	1.223150e+00	1.223424e+00	1.223091e+00	1.223754e+00	1.223856e+00	1.223876e+00	1.223909e+00	1.223777e+00	1.223671e+00	1.223714e+00	1.223422e+00	1.223479e+00	1.223265e+00	1.223896e+00	1.223346e+00	1.223038e+00	1.223174e+00	1.222952e+00	1.222950e+00	1.223051e+00	1.223027e+00	1.223002e+00	1.223932e+00	1.223605e+00	1.223551e+00	1.223537e+00	1.223604e+00	1.223578e+00	1.223644e+00	1.223881e+00	1.223222e+00	1.223498e+00	1.223502e+00	1.223370e+00	1.223390e+00	1.223413e+00	1.223648e+00	1.223186e+00	1.223419e+00	1.223864e+00	1.223382e+00	1.223411e+00	1.223443e+00	1.223732e+00	1.223092e+00	1.223092e+00	1.222938e+00	1.223306e+00	1.223303e+00	1.223666e+00	1.223453e+00	1.223374e+00	1.223027e+00	1.223731e+00	1.223963e+00	1.223412e+00	1.223883e+00	1.223927e+00	1.223319e+00	1.222954e+00	1.223571e+00	1.223609e+00	1.222788e+00	1.223697e+00	1.223129e+00	1.223829e+00	1.223861e+00	1.223730e+00	1.223826e+00	1.223772e+00	1.223270e+00	1.223522e+00	1.223374e+00	1.223457e+00	1.223713e+00	1.223569e+00	1.223856e+00	1.223936e+00	1.223365e+00	1.223255e+00	1.223859e+00	1.223006e+00	1.223527e+00	1.223962e+00	1.223567e+00	1.223132e+00	1.223162e+00	1.223490e+00	1.223796e+00	1.223739e+00	1.223041e+00	1.223451e+00	1.223284e+00	1.223226e+00	1.223650e+00	1.223237e+00	1.223814e+00	1.223317e+00	1.223635e+00	1.223970e+00	1.223250e+00	1.223347e+00	1.223850e+00	1.223852e+00	1.223547e+00	1.223714e+00	1.223515e+00	1.223844e+00	1.223442e+00	1.223103e+00	1.223454e+00	1.223915e+00	1.223465e+00	1.223415e+00	1.223849e+00	1.223392e+00	1.223955e+00	1.223832e+00	1.223659e+00	1.222992e+00	1.223140e+00	1.223311e+00	1.224328e+00	1.223308e+00	1.223925e+00	1.223461e+00	1.223490e+00	1.223458e+00	1.223928e+00	1.223663e+00	1.223666e+00	1.223716e+00	1.223534e+00	1.222875e+00	1.223136e+00	1.223490e+00	1.223092e+00	1.223249e+00	1.223307e+00	1.223804e+00	1.223309e+00	1.223239e+00	1.223947e+00	1.223595e+00	1.223523e+00	1.223082e+00	1.223592e+00	1.223197e+00	1.223191e+00	1.223886e+00	1.223331e+00	1.223366e+00	1.223386e+00	1.223378e+00	1.223774e+00	1.223269e+00	1.223325e+00	1.223655e+00	1.223257e+00	1.223763e+00	1.223326e+00	1.222502e+00	1.223791e+00	1.223842e+00	1.223469e+00	1.223467e+00	1.222884e+00	1.223655e+00	1.223189e+00	1.223627e+00	1.223870e+00	1.224877e+00	1.223939e+00	1.223764e+00	1.223381e+00	1.223321e+00	1.223578e+00	1.223439e+00	1.223852e+00	1.223035e+00	1.223944e+00	1.223174e+00	1.223086e+00	1.223604e+00	1.223192e+00	1.223594e+00	1.223347e+00	1.223832e+00	1.223829e+00	1.223718e+00	1.223369e+00	1.223374e+00	1.223957e+00	1.223590e+00	1.223493e+00	1.223151e+00	1.223692e+00	1.222939e+00	1.223489e+00	1.223164e+00	1.223406e+00	1.223494e+00	1.223789e+00	1.223006e+00	1.223499e+00	1.222826e+00	1.223328e+00	1.223119e+00	1.223782e+00	1.223033e+00	
SCALARS X-Momentum float 1
LOOKUP_TABLE default
8.023425e+00	2.447504e-01	4.612117e+00	6.435069e-01	-6.129611e-01	-5.136544e+00	1.646876e+01	1.001082e+01	9.847358e+00	9.599944e+00	9.297214e+00	8.944888e+00	8.598495e+00	8.256173e+00	7.840470e+00	7.491805e+00	6.967052e+00	6.315316e+00	5.591039e+00	4.792765e+00	3.942852e+00	3.155349e+00	2.316639e+00	1.539109e+00	8.167612e-01	-2.291264e-02	5.154790e-02	1.603881e-01	2.639911e-01	3.810781e-01	5.061425e-01	6.338408e-01	7.710278e-01	9.122527e-01	1.015810e+00	1.032230e+00	8.631734e-01	4.704432e+00	7.119715e-01	5.950489e-01	6.584138e-01	6.541486e-01	6.515769e-01	6.360077e-01	5.728722e-01	4.754225e-01	3.717483e-01	2.477600e-01	1.586227e-01	1.153440e-01	-1.907694e+00	-3.449685e+00	-4.786881e+00	-6.036048e+00	-7.083039e+00	-7.865984e+00	-8.447636e+00	-8.734443e+00	-8.259109e+00	-7.445782e+00	-6.629923e+00	-1.449354e+00	3.950335e+00	9.443406e+00	1.361838e+01	1.584178e+01	1.652751e+01	1.581976e+01	1.491332e+01	1.389846e+01	1.302917e+01	1.228387e+01	1.160662e+01	1.100066e+01	1.050550e+01	1.017165e+01	1.667629e+00	1.236787e+00	6.822811e+00	-5.988025e+00	6.600545e-01	1.526978e+00	4.549145e+00	-5.711142e+00	9.202202e+00	1.204044e+01	1.111129e+01	1.385763e+01	3.246977e-02	1.016842e+00	2.736852e+00	-4.241580e+00	9.923762e-01	1.828166e+00	-5.021524e-01	7.282713e-01	6.216156e-01	8.262973e+00	1.013280e+01	1.564355e+01	1.112766e+00	-2.000705e+00	-3.452253e+00	7.868357e+00	6.883904e+00	1.055882e+01	1.378001e+01	1.263660e+01	8.724933e+00	1.145779e+01	1.412248e+01	1.317524e+01	1.017931e+01	1.188709e+01	8.682667e+00	1.018298e+01	1.311076e+01	1.203982e+01	1.372148e+01	1.314372e+01	1.365256e+01	1.300769e+01	1.290818e+01	1.197575e+01	6.914406e+00	1.481317e+01	1.359125e+01	5.281228e+00	4.195804e+00	1.193985e+01	1.098901e+01	1.060714e+01	1.000732e+01	9.316247e+00	9.204119e+00	9.738429e+00	8.327371e+00	8.570644e+00	5.064076e+00	2.887512e+00	2.068694e+00	1.115974e+01	1.326797e+00	1.245506e+01	5.398014e+00	2.643648e+00	6.170501e+00	4.572188e+00	1.195048e+01	7.744262e+00	8.139778e+00	7.184439e+00	6.748944e+00	6.040962e+00	8.780648e+00	2.890153e-01	9.256893e-01	9.414352e-04	9.497514e+00	1.527543e+01	8.010344e+00	9.024156e+00	2.197828e+00	4.106271e+00	6.947809e+00	2.507008e+00	-1.165286e+00	-4.945272e-01	9.470107e+00	6.174547e+00	5.040399e+00	5.089678e+00	3.990955e+00	8.430837e+00	6.328410e+00	1.126216e+01	1.193382e+01	9.337815e-01	-1.094151e-01	1.064194e+01	-1.249389e+00	-1.146585e+00	1.506575e+01	8.948539e+00	1.523940e+01	-2.411589e+00	-3.337561e+00	7.860788e+00	4.296367e+00	5.080401e+00	3.351403e+00	4.946235e+00	6.470641e+00	8.654634e+00	7.590816e-01	1.490723e+00	-2.567307e+00	2.915717e+00	1.430221e+01	-1.799903e+00	8.717002e-01	-1.053967e+00	2.310837e+00	5.108652e-01	9.295294e+00	8.754597e+00	3.641888e+00	8.311359e+00	1.058220e+01	1.079098e+01	1.021586e+01	1.041803e+01	9.850115e+00	2.313009e+00	1.002498e+01	1.114815e+01	8.348256e+00	1.278917e+01	1.262351e+01	1.357847e+01	9.338868e+00	3.531647e+00	1.185491e+01	3.939293e+00	-2.067324e+00	-8.440712e-01	-1.520727e+00	7.677539e+00	6.110942e+00	1.550597e+01	7.909726e+00	1.510120e+01	1.440012e+01	9.388856e+00	-6.361808e-02	-5.859987e-03	-6.185352e+00	3.553295e+00	2.058438e+00	1.288215e+01	2.781861e+00	1.893136e+00	2.034914e+00	3.411145e+00	1.015367e+01	9.754188e+00	1.110776e+01	8.641650e+00	9.318609e+00	6.167261e+00	6.732042e+00	7.306209e+00	6.041842e+00	6.766945e+00	1.534512e+01	1.165560e+01	1.966495e+00	8.980861e+00	4.045419e+00	1.559661e+00	2.754167e+00	3.650845e+00	-5.116640e+00	-5.941410e+00	5.403985e+00	-5.121054e+00	-3.181957e+00	1.869156e+00	1.055992e+01	1.167186e+01	1.615261e+01	5.665389e-01	7.415343e+00	7.880381e+00	4.308523e+00	9.894093e-01	1.703772e+00	1.469449e+01	9.494210e+00	1.473714e+01	2.378332e+00	1.074684e+00	9.805512e+00	1.900385e+00	-4.046875e+00	1.384279e+01	5.179550e+00	1.694044e+00	1.111545e+00	8.322982e+00	8.258068e-01	1.435366e+00	4.543441e-01	2.723243e+00	2.490101e-01	8.409896e-01	-2.029580e-01	-6.160699e-01	1.230250e+00	-1.677683e+00	1.379130e+00	5.808412e+00	7.285973e+00	-2.437872e-01	6.174639e+00	4.640165e+00	7.121975e+00	-1.234585e+00	4.395882e+00	1.301615e+00	4.999072e+00	-7.573518e-01	6.046888e-01	9.077061e+00	9.377607e+00	7.269112e+00	1.095034e+01	9.865318e+00	6.526795e+00	1.134755e+01	2.952204e+00	1.446661e+01	1.343170e+01	7.434809e+00	1.574650e+01	1.475601e+01	1.688804e+00	1.035502e+01	1.174315e+01	1.480083e+01	9.883025e+00	3.926033e+00	1.407547e+01	2.269371e+00	-3.453049e+00	1.427057e+01	-2.732129e+00	1.273009e+01	8.146191e+00	-3.914059e+00	1.195898e+01	9.247805e+00	2.600944e+00	7.293441e+00	-3.063877e+00	-3.660002e+00	8.069086e+00	2.812925e+00	3.568313e+00	1.021649e+01	7.583821e+00	7.957885e+00	1.072683e+01	9.745997e+00	3.072974e+00	2.482516e+00	1.517791e+00	7.708443e+00	-8.921680e-01	1.143441e+01	9.970351e+00	1.224363e+01	3.251175e+00	1.621437e+01	1.277361e+00	-3.844953e+00	-2.256831e+00	9.942257e+00	-2.523705e+00	1.061130e+01	1.090516e+01	5.655414e+00	5.463510e+00	8.977914e+00	-2.194896e-01	3.992230e-01	4.927806e-01	-9.178980e-01	1.248485e+01	1.407771e+01	2.587359e+00	1.217222e+01	7.780697e+00	1.533383e+01	7.360246e-01	1.139707e+01	6.206275e+00	7.202167e+00	1.300558e+00	5.471520e+00	1.322408e+01	6.968962e+00	2.173904e+00	7.527168e+00	
SCALARS Y-Momentum float 1
LOOKUP_TABLE default
-2.429610e-02	2.403264e-01	7.035772e+00	-3.832638e-01	5.903822e-01	2.223289e-01	6.505261e-02	-1.348668e-02	2.166381e-02	5.208264e-02	7.350958e-02	9.600999e-02	8.395485e-02	2.130181e-02	-3.988041e-03	1.639302e-04	5.634201e-03	3.497794e-03	9.357999e-03	1.096468e-02	-8.886920e-03	3.456770e-03	-1.934699e-03	6.572374e-03	-1.942596e-02	7.607189e-01	1.368705e+00	2.012897e+00	2.740438e+00	3.499590e+00	4.259131e+00	5.027061e+00	5.825696e+00	6.699771e+00	7.473359e+00	7.879163e+00	8.486159e+00	-5.779564e-01	2.116265e+00	3.135785e+00	3.984078e+00	4.575496e+00	4.914226e+00	5.035593e+00	4.916279e+00	4.584541e+00	4.097943e+00	3.449335e+00	2.663160e+00	1.666175e+00	-4.872433e-03	2.655405e-02	2.884253e-02	1.189354e-02	9.464443e-03	2.059542e-02	2.215055e-02	2.133718e-03	-5.432749e-02	-7.446557e-02	-9.695499e-02	-5.092985e-01	-5.760743e-01	-2.332693e-01	4.007232e-01	6.794312e-01	4.334890e-01	1.597881e-02	6.229697e-03	-2.591324e-03	-3.725142e-02	-2.320857e-02	-2.100666e-03	-4.623108e-03	4.624170e-03	-1.559155e-03	8.402899e+00	3.450654e+00	5.067839e-01	-2.386392e-01	4.716215e+00	5.116870e+00	7.349749e-01	6.412552e-01	4.435823e-01	1.652452e-01	5.229185e-01	8.826954e-01	3.985446e+00	2.937779e+00	7.084995e-01	8.952760e-01	4.354247e+00	6.634300e+00	2.758850e+00	1.625156e+00	-8.194290e-01	3.723880e-01	3.007443e-01	8.126072e-01	5.521217e-01	1.021996e+00	-6.113003e-01	2.789067e-01	-5.341358e-01	4.879057e-02	8.280815e-01	9.621091e-01	2.304690e-01	1.191533e+00	1.892052e+00	2.192935e+00	1.577227e+00	2.546655e+00	2.087795e+00	2.995254e+00	3.570546e+00	4.094468e+00	4.458529e+00	5.043942e+00	4.842347e+00	5.521766e+00	4.621468e+00	5.268881e+00	2.463203e+00	2.663114e+00	4.031099e+00	1.921060e+00	2.534452e+00	3.908672e+00	4.031022e+00	5.398694e+00	3.857910e+00	4.648777e+00	3.402203e+00	2.959191e+00	3.834836e+00	2.788857e+00	2.921853e+00	3.224535e+00	2.690446e+00	3.011258e+00	3.368561e+00	5.715466e+00	1.614501e+00	1.409662e+00	2.861618e+00	2.499031e+00	2.840430e+00	2.890416e+00	2.191506e+00	3.932565e+00	2.627787e+00	3.493449e+00	2.089867e+00	2.607073e+00	1.968308e+00	3.145618e+00	6.514739e+00	2.138094e+00	6.343242e+00	5.620879e+00	2.825155e+00	3.192601e+00	3.540301e+00	3.684414e+00	1.719918e+00	1.032482e+00	8.442543e+00	4.930177e+00	4.313892e+00	3.067920e+00	3.637080e+00	1.627368e+00	3.423257e+00	2.172996e+00	1.919505e+00	3.881291e+00	3.536646e+00	7.422836e+00	2.731124e+00	3.044177e+00	2.521535e+00	1.524967e+00	1.930263e+00	2.165489e+00	7.488079e-01	1.602868e+00	2.499296e+00	2.144094e+00	2.692270e+00	6.205792e+00	6.747093e+00	1.068588e+00	4.184506e+00	4.318836e+00	1.888818e+00	3.603265e+00	3.845924e+00	3.213952e-01	4.309628e-01	-9.688165e-02	-1.067661e-01	-6.401210e-01	4.166150e+00	3.664945e+00	1.797822e+00	5.206576e+00	2.273918e+00	1.638582e+00	1.687072e+00	1.189271e+00	1.181629e+00	2.724031e+00	8.682332e+00	7.738541e+00	9.571423e+00	2.622953e+00	1.498309e+00	2.231154e+00	1.894946e+00	3.476363e+00	1.127381e+00	5.049412e+00	2.418047e+00	3.345698e+00	2.650358e+00	9.798520e+00	9.951115e+00	1.697245e+00	7.313767e-01	9.185929e-01	1.908612e+00	1.358407e+00	3.881563e+00	4.102361e+00	1.311600e-01	6.532885e+00	3.659665e+00	7.063706e-01	1.928146e+00	1.921568e+00	3.957416e+00	-8.361795e-01	7.313208e-01	6.915761e-01	4.605182e+00	5.232507e-01	3.312825e+00	5.975608e-01	1.098142e+00	8.889885e-01	1.344386e+00	1.752781e+00	1.431434e+00	6.320526e+00	4.231967e+00	8.337941e+00	7.818574e+00	4.195890e+00	5.597723e+00	8.603488e-01	7.642286e-01	4.569396e-01	6.789128e-01	-4.390359e-01	1.032757e+00	6.583868e-01	3.945068e-01	6.591479e+00	9.463088e-01	4.352360e+00	4.149268e-01	7.165559e-01	6.067421e-01	4.440063e+00	3.766462e+00	3.264404e+00	4.147476e-01	7.943040e-01	4.559607e+00	2.525898e+00	3.121520e-01	7.625096e+00	1.142140e+00	3.198841e+00	1.376623e+00	5.847043e+00	3.910854e+00	7.776835e-01	4.612619e+00	4.386172e+00	4.626268e+00	1.335842e+00	4.370208e+00	2.268660e+00	3.455952e+00	3.383499e+00	3.626575e+00	2.065446e+00	1.282624e+00	2.510416e+00	8.577438e+00	-8.594564e-01	3.215187e+00	-4.280996e-01	4.724039e+00	2.302649e+00	1.561922e+00	4.313626e+00	1.047226e+01	1.911840e+00	1.005588e+00	1.106112e+00	8.565476e-01	5.365005e+00	1.072880e+00	5.205088e+00	1.342560e+00	1.461240e+00	2.114358e+00	2.692730e+00	1.432520e+00	2.065564e+00	1.358331e+00	1.429897e+00	3.047976e+00	2.990586e+00	5.156172e-01	1.566144e+00	2.258256e+00	3.490136e+00	3.098731e+00	1.316524e+00	1.564866e+00	3.867998e+00	1.811877e+00	3.602156e+00	1.157972e+00	1.367684e+00	6.816046e+00	2.546192e+00	3.932535e+00	1.414691e+00	-4.545104e-01	-4.566873e-01	1.272973e-01	7.907403e+00	9.443153e+00	7.946432e+00	3.704224e+00	6.865698e+00	4.015585e+00	1.651759e+00	1.311226e+00	1.001544e+01	2.447304e+00	1.124410e+00	2.888692e+00	5.318184e+00	1.277458e-01	7.079302e-01	4.414431e+00	4.704465e-01	1.894471e+00	2.379614e-03	-7.430124e-01	5.126654e-01	1.548764e+00	7.871632e-01	6.959873e+00	1.866809e+00	8.362426e+00	6.929776e-01	3.867500e+00	4.392999e+00	4.614876e-01	9.709419e-01	6.246199e+00	4.332332e+00	6.783736e+00	4.670776e+00	4.526417e+00	1.353348e+00	4.536331e+00	9.010144e-01	2.006037e+00	-4.502388e-01	4.381802e+00	1.079897e-01	3.369839e+00	8.747303e+00	5.198524e+00	2.854667e+00	
SCALARS Energy float 1
LOOKUP_TABLE default