# vtk DataFile Version 3.0
vtk output
ASCII
DATASET UNSTRUCTURED_GRID
POINTS 394 float
-3.000000e+00	0.000000e+00	0.0	-5.000000e-02	2.233284e-18	0.0	6.873209e-02	1.006853e+00	0.0	1.687770e-01	9.935094e-01	0.0	5.000000e-02	-3.745224e-18	0.0	3.000000e+00	0.000000e+00	0.0	3.000000e+00	4.000000e+00	0.0	-3.000000e+00	4.000000e+00	0.0	-3.000000e+00	3.428571e+00	0.0	-3.000000e+00	2.857143e+00	0.0	-3.000000e+00	2.285714e+00	0.0	-3.000000e+00	1.714286e+00	0.0	-3.000000e+00	1.142857e+00	0.0	-3.000000e+00	5.714286e-01	0.0	-2.473871e+00	0.000000e+00	0.0	-2.029066e+00	0.000000e+00	0.0	-1.653013e+00	0.000000e+00	0.0	-1.335087e+00	0.000000e+00	0.0	-1.066302e+00	0.000000e+00	0.0	-8.390627e-01	0.000000e+00	0.0	-6.469477e-01	0.000000e+00	0.0	-4.845277e-01	0.000000e+00	0.0	-3.472127e-01	0.000000e+00	0.0	-2.311224e-01	0.000000e+00	0.0	-1.329760e-01	0.000000e+00	0.0	-4.756401e-02	7.926408e-02	0.0	-4.221474e-02	1.580079e-01	0.0	-3.449649e-02	2.362208e-01	0.0	-2.519375e-02	3.139763e-01	0.0	-1.495930e-02	3.913603e-01	0.0	-4.301274e-03	4.684743e-01	0.0	6.440165e-03	5.454244e-01	0.0	1.708887e-02	6.223013e-01	0.0	2.758850e-02	6.991668e-01	0.0	3.795986e-02	7.760519e-01	0.0	4.823126e-02	8.529741e-01	0.0	5.853637e-02	9.299127e-01	0.0	1.187543e-01	1.000222e+00	0.0	1.584672e-01	9.165743e-01	0.0	1.482132e-01	8.396073e-01	0.0	1.379244e-01	7.626205e-01	0.0	1.275573e-01	6.856019e-01	0.0	1.170598e-01	6.085690e-01	0.0	1.064164e-01	5.315565e-01	0.0	9.568096e-02	4.546278e-01	0.0	8.503003e-02	3.778739e-01	0.0	7.480183e-02	3.014002e-01	0.0	6.550405e-02	2.253069e-01	0.0	5.779308e-02	1.496759e-01	0.0	5.241279e-02	7.456596e-02	0.0	1.329760e-01	0.000000e+00	0.0	2.311224e-01	0.000000e+00	0.0	3.472127e-01	0.000000e+00	0.0	4.845277e-01	0.000000e+00	0.0	6.469477e-01	0.000000e+00	0.0	8.390627e-01	0.000000e+00	0.0	1.066302e+00	0.000000e+00	0.0	1.335087e+00	0.000000e+00	0.0	1.653013e+00	0.000000e+00	0.0	2.029066e+00	0.000000e+00	0.0	2.473871e+00	0.000000e+00	0.0	3.000000e+00	5.714286e-01	0.0	3.000000e+00	1.142857e+00	0.0	3.000000e+00	1.714286e+00	0.0	3.000000e+00	2.285714e+00	0.0	3.000000e+00	2.857143e+00	0.0	3.000000e+00	3.428571e+00	0.0	2.400000e+00	4.000000e+00	0.0	1.800000e+00	4.000000e+00	0.0	1.200000e+00	4.000000e+00	0.0	6.000000e-01	4.000000e+00	0.0	0.000000e+00	4.000000e+00	0.0	-6.000000e-01	4.000000e+00	0.0	-1.200000e+00	4.000000e+00	0.0	-1.800000e+00	4.000000e+00	0.0	-2.400000e+00	4.000000e+00	0.0	-3.198897e-02	8.987279e-01	0.0	2.006495e-01	8.773543e-01	0.0	-1.477623e+00	2.591629e-01	0.0	1.507764e+00	2.182342e-01	0.0	1.557849e-01	5.639851e-01	0.0	-7.575179e-02	5.877313e-01	0.0	-7.407154e-01	1.709587e-01	0.0	7.538984e-01	1.492116e-01	0.0	-2.576291e+00	2.082550e+00	0.0	2.535275e+00	1.936597e+00	0.0	-9.070001e-01	3.511265e+00	0.0	9.384916e-01	3.455690e+00	0.0	1.349664e-01	3.380578e-01	0.0	-1.001042e-01	3.536257e-01	0.0	-4.106591e-01	1.167696e-01	0.0	4.203682e-01	1.036674e-01	0.0	1.802567e-01	7.179632e-01	0.0	-5.791302e-02	7.425100e-01	0.0	1.290799e-01	1.900984e-01	0.0	-1.146120e-01	1.999681e-01	0.0	2.531679e+00	8.038641e-01	0.0	-2.497655e+00	7.949505e-01	0.0	-2.048471e+00	3.455852e+00	0.0	2.077322e+00	3.433899e+00	0.0	-1.821894e-01	7.740141e-02	0.0	1.858280e-01	7.206989e-02	0.0	2.230483e+00	3.879137e-01	0.0	-2.247364e+00	3.619783e-01	0.0	2.484007e+00	1.392932e+00	0.0	2.115827e+00	1.695718e+00	0.0	2.096147e+00	2.104060e+00	0.0	1.760497e+00	1.847617e+00	0.0	1.742099e+00	1.452779e+00	0.0	1.456636e+00	1.649151e+00	0.0	1.432443e+00	1.991273e+00	0.0	1.184961e+00	1.782847e+00	0.0	1.193272e+00	1.487915e+00	0.0	9.671658e-01	1.600717e+00	0.0	9.727578e-01	1.357341e+00	0.0	7.621795e-01	1.429604e+00	0.0	7.435438e-01	1.684798e+00	0.0	5.641859e-01	1.539044e+00	0.0	5.378070e-01	1.770106e+00	0.0	3.714512e-01	1.652672e+00	0.0	3.327487e-01	1.865201e+00	0.0	1.764418e-01	1.735422e+00	0.0	1.177526e-01	1.959673e+00	0.0	-5.064885e-02	1.785115e+00	0.0	8.006158e-01	1.220408e+00	0.0	1.138981e+00	2.117499e+00	0.0	3.347604e-01	2.130254e+00	0.0	9.561629e-01	1.113813e+00	0.0	7.866875e-01	1.033803e+00	0.0	-1.222057e-01	2.068364e+00	0.0	-3.281350e-01	1.902252e+00	0.0	-2.533517e-01	1.624087e+00	0.0	-5.389936e-01	1.737490e+00	0.0	-4.806205e-01	1.489379e+00	0.0	-7.461691e-01	1.572416e+00	0.0	-7.728139e-01	1.813662e+00	0.0	-6.922094e-01	1.316589e+00	0.0	-9.686012e-01	1.401051e+00	0.0	6.524952e-01	1.110635e+00	0.0	6.389558e-01	9.442935e-01	0.0	7.714796e-01	8.560405e-01	0.0	-3.972856e-01	2.190678e+00	0.0	6.216507e-01	7.743831e-01	0.0	2.177769e-01	1.512661e+00	0.0	1.197189e-01	1.047736e+00	0.0	1.798847e-01	1.035116e+00	0.0	1.476526e-01	1.100056e+00	0.0	2.174809e-01	1.098222e+00	0.0	-1.541426e-01	2.376697e+00	0.0	-9.097275e-01	1.135153e+00	0.0	-1.202243e+00	1.216054e+00	0.0	-6.445047e-01	1.055247e+00	0.0	-8.859497e-01	8.544738e-01	0.0	-6.318749e-01	8.270862e-01	0.0	-1.263936e+00	1.517724e+00	0.0	7.528522e-01	6.843215e-01	0.0	9.125123e-01	7.606606e-01	0.0	5.997988e-01	6.189868e-01	0.0	-2.644179e-01	1.378275e+00	0.0	1.398997e+00	2.347720e+00	0.0	7.121081e-02	1.094890e+00	0.0	1.090115e-01	1.168218e+00	0.0	2.487597e-01	1.020157e+00	0.0	2.989312e-01	1.093147e+00	0.0	2.552998e-01	1.174916e+00	0.0	3.348661e-01	1.001311e+00	0.0	8.875965e-01	5.850599e-01	0.0	1.082231e+00	6.738839e-01	0.0	1.796771e-02	1.164611e+00	0.0	-4.524976e-01	9.470365e-01	0.0	-4.371546e-01	7.683047e-01	0.0	-5.878215e-01	6.407014e-01	0.0	-3.948003e-01	6.040006e-01	0.0	-1.525904e+00	1.307323e+00	0.0	3.629731e-01	1.180256e+00	0.0	-4.645627e-01	2.513584e+00	0.0	-1.884240e-01	2.734139e+00	0.0	4.838314e-01	6.972728e-01	0.0	4.616541e-01	5.518968e-01	0.0	6.428404e-02	1.254795e+00	0.0	5.721170e-01	4.727313e-01	0.0	4.366170e-01	4.134068e-01	0.0	1.075390e+00	2.486121e+00	0.0	-1.593956e+00	1.648675e+00	0.0	1.353897e+00	2.731635e+00	0.0	5.367448e-01	3.349851e-01	0.0	1.049805e+00	4.117413e-01	0.0	-1.448229e+00	1.013445e+00	0.0	-5.378298e-01	4.755640e-01	0.0	-7.045210e-01	5.028826e-01	0.0	-3.873916e-01	4.390424e-01	0.0	-2.836137e-01	8.950776e-01	0.0	-3.105342e-01	1.049480e+00	0.0	-1.968788e+00	1.424377e+00	0.0	3.547031e-01	6.312314e-01	0.0	3.864296e-01	7.674906e-01	0.0	6.868737e-01	3.888558e-01	0.0	-2.732259e-01	5.285887e-01	0.0	6.861519e-01	1.949177e+00	0.0	1.250928e+00	5.785271e-01	0.0	1.284881e+00	7.987488e-01	0.0	1.482250e+00	6.541668e-01	0.0	1.525794e+00	9.309867e-01	0.0	1.796061e+00	7.915149e-01	0.0	3.009879e-01	1.277151e+00	0.0	4.226500e-01	1.278023e+00	0.0	-4.996556e-01	3.210422e-01	0.0	-4.594566e-01	1.285994e+00	0.0	-7.287208e-01	2.297402e+00	0.0	-8.176035e-01	2.659573e+00	0.0	-1.107238e+00	2.434642e+00	0.0	-1.200830e+00	2.805846e+00	0.0	-1.572243e+00	2.470678e+00	0.0	-2.514709e-01	3.919796e-01	0.0	-4.743761e-02	1.248906e+00	0.0	-5.004190e-03	1.358806e+00	0.0	-8.353677e-02	1.150011e+00	0.0	1.586153e-01	2.560884e+00	0.0	1.533687e-01	3.017351e+00	0.0	4.869135e-01	2.773796e+00	0.0	-1.312204e+00	1.857782e+00	0.0	5.194835e-01	1.023866e+00	0.0	-2.690417e-01	3.151295e+00	0.0	-2.861002e-01	7.380110e-01	0.0	4.052295e-01	2.844540e-01	0.0	2.980458e-01	3.580073e-01	0.0	2.828667e-01	2.484344e-01	0.0	-1.771613e-02	1.087682e+00	0.0	-1.039119e-01	1.053167e+00	0.0	1.710782e+00	2.588959e+00	0.0	1.399957e+00	1.340924e+00	0.0	2.463985e+00	2.501188e+00	0.0	9.379383e-01	2.902868e+00	0.0	-1.657819e+00	2.017710e+00	0.0	3.232872e-01	4.907686e-01	0.0	2.240157e-01	4.327373e-01	0.0	1.212501e+00	1.990271e-01	0.0	-1.862224e-01	8.206501e-01	0.0	-1.759172e-01	4.756457e-01	0.0	3.878492e-01	3.515324e+00	0.0	-3.561136e-01	3.026969e-01	0.0	-2.403999e-01	2.740049e-01	0.0	4.954702e-01	8.681852e-01	0.0	2.132344e+00	1.059735e+00	0.0	-1.650179e+00	3.023677e+00	0.0	-2.002468e+00	2.673880e+00	0.0	3.529777e-01	1.396936e+00	0.0	-2.480398e+00	1.307141e+00	0.0	5.925106e-01	1.344923e+00	0.0	-1.189287e+00	2.300379e-01	0.0	-1.299218e+00	4.874433e-01	0.0	-1.585536e+00	5.393378e-01	0.0	-1.028576e+00	4.541647e-01	0.0	-1.129614e+00	7.055811e-01	0.0	1.664420e+00	3.037395e+00	0.0	-5.312162e-02	1.593509e+00	0.0	3.813242e-01	8.911247e-01	0.0	-1.674820e-01	1.236495e+00	0.0	-1.731628e-01	9.121475e-01	0.0	2.847896e-01	8.208341e-01	0.0	-1.655661e-01	7.012131e-01	0.0	-5.559288e-01	1.707880e-01	0.0	5.718479e-01	1.180035e-01	0.0	9.724231e-01	1.925083e-01	0.0	-9.474814e-01	2.000693e-01	0.0	1.834209e+00	2.683699e-01	0.0	2.954261e-01	8.669763e-02	0.0	-2.812783e-01	9.673843e-02	0.0	-1.472290e+00	3.528377e+00	0.0	1.266176e-01	1.366316e+00	0.0	2.530232e+00	3.101929e+00	0.0	2.689534e-01	5.650132e-01	0.0	-1.827194e+00	3.045080e-01	0.0	-1.963367e+00	6.935722e-01	0.0	1.338618e+00	1.063457e+00	0.0	2.584334e-01	6.630811e-01	0.0	2.753320e-01	9.268697e-01	0.0	8.126831e-01	2.232677e+00	0.0	-2.520182e+00	2.530220e+00	0.0	1.459099e+00	3.511044e+00	0.0	-1.790316e-01	5.920780e-01	0.0	2.000039e-01	9.612341e-01	0.0	-2.449894e+00	3.078726e+00	0.0	-4.518585e-02	8.195783e-01	0.0	8.364095e-01	3.031479e-01	0.0	4.883015e-01	2.416477e+00	0.0	-8.146431e-01	3.387994e-01	0.0	-6.752273e-02	6.652316e-01	0.0	1.926780e-01	7.954593e-01	0.0	-2.136660e+00	1.060610e+00	0.0	1.665035e-01	6.439160e-01	0.0	-9.300681e-02	5.167620e-01	0.0	1.498981e-01	4.884636e-01	0.0	1.095251e+00	9.168573e-01	0.0	1.428446e-01	4.105254e-01	0.0	-1.047877e-01	2.752895e-01	0.0	1.285052e-01	2.632029e-01	0.0	2.060981e-01	2.978288e-01	0.0	-9.861076e-02	4.330948e-01	0.0	2.232243e-01	1.585248e-01	0.0	-2.069746e-01	1.751281e-01	0.0	-7.770777e-01	6.581252e-01	0.0	-1.941299e-01	1.119450e+00	0.0	2.128559e+00	7.222591e-01	0.0	5.115938e-01	1.174862e+00	0.0	1.804445e+00	1.129156e+00	0.0	7.110203e-02	1.048287e+00	0.0	7.235297e-01	5.331184e-01	0.0	-6.426312e-01	3.307434e-01	0.0	2.503635e-01	7.543692e-01	0.0	-3.237952e-02	1.017676e+00	0.0	1.185977e-01	1.125468e-01	0.0	-1.139382e-01	1.196203e-01	0.0	-1.915847e+00	1.795094e+00	0.0	-2.058877e+00	2.180272e+00	0.0	-4.440811e-01	1.117760e+00	0.0	-8.752095e-01	3.065091e+00	0.0	1.648933e-01	1.247642e+00	0.0	1.160242e+00	1.213112e+00	0.0	-5.350798e-01	2.898004e+00	0.0	9.049345e-01	9.354878e-01	0.0	7.611922e-01	2.562212e+00	0.0	5.826481e-01	3.132959e+00	0.0	-1.161248e+00	9.427080e-01	0.0	2.084168e+00	2.855220e+00	0.0	1.284793e+00	3.131645e
[...]
POINT_DATA 394

SCALARS Density float 1
LOOKUP_TABLE default
1.223743e+00	1.223988e+00	1.222064e+00	1.221601e+00	1.223216e+00	1.223571e+00	1.223267e+00	1.223600e+00	1.223581e+00	1.223596e+00	1.223644e+00	1.223676e+00	1.223750e+00	1.223757e+00	1.223770e+00	1.223757e+00	1.223792e+00	1.223817e+00	1.223860e+00	1.223886e+00	1.223911e+00	1.223959e+00	1.223943e+00	1.224015e+00	1.223942e+00	1.224035e+00	1.223951e+00	1.223969e+00	1.223969e+00	1.223952e+00	1.223942e+00	1.223904e+00	1.223899e+00	1.223812e+00	1.223901e+00	1.223037e+00	1.224977e+00	1.220128e+00	1.223552e+00	1.223125e+00	1.223115e+00	1.223079e+00	1.223042e+00	1.223027e+00	1.223037e+00	1.223049e+00	1.223079e+00	1.223121e+00	1.223056e+00	1.223307e+00	1.223077e+00	1.223201e+00	1.223116e+00	1.223047e+00	1.223002e+00	1.222972e+00	1.222880e+00	1.222934e+00	1.222947e+00	1.223098e+00	1.222638e+00	1.223306e+00	1.223011e+00	1.222858e+00	1.222801e+00	1.222943e+00	1.223102e+00	1.223106e+00	1.223226e+00	1.223258e+00	1.223341e+00	1.223404e+00	1.223492e+00	1.223550e+00	1.223586e+00	1.223586e+00	1.223304e+00	1.223369e+00	1.223804e+00	1.222865e+00	1.223060e+00	1.223844e+00	1.223873e+00	1.222941e+00	1.223643e+00	1.223243e+00	1.223519e+00	1.223307e+00	1.223078e+00	1.223931e+00	1.223944e+00	1.223062e+00	1.223161e+00	1.223656e+00	1.223182e+00	1.223972e+00	1.222840e+00	1.223747e+00	1.223608e+00	1.223129e+00	1.223980e+00	1.223167e+00	1.223034e+00	1.223741e+00	1.222848e+00	1.222839e+00	1.223081e+00	1.223033e+00	1.222888e+00	1.222931e+00	1.222997e+00	1.223193e+00	1.222760e+00	1.222844e+00	1.222780e+00	1.222987e+00	1.222864e+00	1.223167e+00	1.223129e+00	1.223271e+00	1.223205e+00	1.223258e+00	1.223476e+00	1.223352e+00	1.222855e+00	1.223010e+00	1.223280e+00	1.222615e+00	1.222783e+00	1.223432e+00	1.223521e+00	1.223544e+00	1.223482e+00	1.223631e+00	1.223691e+00	1.223581e+00	1.223681e+00	1.223668e+00	1.222929e+00	1.222837e+00	1.222879e+00	1.223537e+00	1.222903e+00	1.223235e+00	1.222042e+00	1.221816e+00	1.222623e+00	1.222824e+00	1.223418e+00	1.223735e+00	1.223730e+00	1.223786e+00	1.223789e+00	1.223815e+00	1.223687e+00	1.222801e+00	1.222644e+00	1.222904e+00	1.223559e+00	1.223203e+00	1.221798e+00	1.223197e+00	1.222826e+00	1.222731e+00	1.222635e+00	1.222896e+00	1.222840e+00	1.222769e+00	1.223136e+00	1.223774e+00	1.223787e+00	1.223851e+00	1.223834e+00	1.223698e+00	1.222699e+00	1.223493e+00	1.223471e+00	1.223031e+00	1.222964e+00	1.223145e+00	1.222922e+00	1.222990e+00	1.223283e+00	1.223675e+00	1.223170e+00	1.223039e+00	1.222716e+00	1.223756e+00	1.223879e+00	1.223895e+00	1.223938e+00	1.223790e+00	1.223678e+00	1.223710e+00	1.223000e+00	1.223039e+00	1.222870e+00	1.223933e+00	1.223349e+00	1.222659e+00	1.222819e+00	1.222610e+00	1.222637e+00	1.222755e+00	1.222858e+00	1.222799e+00	1.223957e+00	1.223589e+00	1.223540e+00	1.223526e+00	1.223595e+00	1.223567e+00	1.223637e+00	1.223913e+00	1.223214e+00	1.223501e+00	1.223508e+00	1.223349e+00	1.223378e+00	1.223418e+00	1.223644e+00	1.222761e+00	1.223406e+00	1.223893e+00	1.223006e+00	1.223033e+00	1.223074e+00	1.223780e+00	1.223062e+00	1.223089e+00	1.222691e+00	1.223292e+00	1.223292e+00	1.223660e+00	1.223058e+00	1.222984e+00	1.222674e+00	1.223741e+00	1.224006e+00	1.223400e+00	1.223919e+00	1.223964e+00	1.222872e+00	1.222718e+00	1.223562e+00	1.223599e+00	1.222686e+00	1.223690e+00	1.222940e+00	1.223840e+00	1.223868e+00	1.223732e+00	1.223836e+00	1.223779e+00	1.223261e+00	1.223548e+00	1.222938e+00	1.223467e+00	1.223712e+00	1.223160e+00	1.223894e+00	1.223963e+00	1.223014e+00	1.222900e+00	1.223875e+00	1.222700e+00	1.223189e+00	1.223997e+00	1.223559e+00	1.223087e+00	1.223164e+00	1.223088e+00	1.223796e+00	1.223738e+00	1.222715e+00	1.223035e+00	1.222869e+00	1.223231e+00	1.223640e+00	1.223234e+00	1.223846e+00	1.222916e+00	1.223625e+00	1.224003e+00	1.222883e+00	1.223344e+00	1.223864e+00	1.223874e+00	1.223126e+00	1.223710e+00	1.223114e+00	1.223883e+00	1.223064e+00	1.222731e+00	1.223075e+00	1.223956e+00	1.223099e+00	1.223041e+00	1.223888e+00	1.223036e+00	1.223990e+00	1.223844e+00	1.223674e+00	1.222725e+00	1.222830e+00	1.223072e+00	1.224382e+00	1.222894e+00	1.223944e+00	1.223037e+00	1.223483e+00	1.223103e+00	1.223966e+00	1.223657e+00	1.223659e+00	1.223733e+00	1.223523e+00	1.222746e+00	1.222840e+00	1.223476e+00	1.222675e+00	1.223249e+00	1.223283e+00	1.223808e+00	1.223310e+00	1.223242e+00	1.223987e+00	1.223583e+00	1.223509e+00	1.223050e+00	1.223583e+00	1.222820e+00	1.223160e+00	1.223917e+00	1.222970e+00	1.223368e+00	1.223033e+00	1.223379e+00	1.223773e+00	1.222902e+00	1.223358e+00	1.223648e+00	1.222822e+00	1.223767e+00	1.223018e+00	1.222238e+00	1.223780e+00	1.223895e+00	1.223460e+00	1.223467e+00	1.222729e+00	1.223654e+00	1.223084e+00	1.223619e+00	1.223892e+00	1.225029e+00	1.223984e+00	1.223763e+00	1.223019e+00	1.223281e+00	1.223568e+00	1.223423e+00	1.223872e+00	1.223033e+00	1.223980e+00	1.222836e+00	1.222800e+00	1.223595e+00	1.222785e+00	1.223586e+00	1.223338e+00	1.223844e+00	1.223855e+00	1.223711e+00	1.222988e+00	1.222980e+00	1.223994e+00	1.223260e+00	1.223468e+00	1.223164e+00	1.223731e+00	1.222847e+00	1.223485e+00	1.223159e+00	1.222999e+00	1.223481e+00	1.223803e+00	1.222805e+00	1.223086e+00	1.222553e+00	1.223308e+00	1.223071e+00	1.223824e+00	1.222744e+00	
SCALARS X-Momentum float 1
LOOKUP_TABLE default
8.204058e+00	2.564816e-01	4.715098e+00	1.855124e-01	-6.806808e-01	-5.125417e+00	1.631243e+01	1.016402e+01	1.000240e+01	9.757377e+00	9.455521e+00	9.103643e+00	8.759114e+00	8.427293e+00	8.028064e+00	7.684327e+00	7.161770e+00	6.504760e+00	5.766319e+00	4.946988e+00	4.068647e+00	3.255056e+00	2.388997e+00	1.586323e+00	8.423321e-01	-6.645147e-03	1.015890e-01	2.447847e-01	3.701273e-01	4.889722e-01	5.941137e-01	6.893463e-01	7.814497e-01	8.764578e-01	9.436020e-01	8.941361e-01	6.452004e-01	4.687994e+00	2.760779e-01	2.688730e-01	4.458322e-01	5.485182e-01	6.461954e-01	7.226886e-01	7.291769e-01	6.756706e-01	5.800383e-01	4.248189e-01	2.770629e-01	1.681346e-01	-2.136323e+00	-3.837491e+00	-5.276835e+00	-6.581962e+00	-7.643216e+00	-8.409034e+00	-8.955185e+00	-9.182833e+00	-8.601280e+00	-7.663280e+00	-6.729378e+00	-1.288333e+00	4.272485e+00	9.819500e+00	1.390029e+01	1.594846e+01	1.646731e+01	1.565648e+01	1.479339e+01	1.385621e+01	1.306530e+01	1.238291e+01	1.174048e+01	1.114682e+01	1.065536e+01	1.032303e+01	1.648294e+00	9.415732e-01	7.006509e+00	-6.260283e+00	7.117309e-01	1.626770e+00	4.697779e+00	-6.126941e+00	9.360741e+00	1.240226e+01	1.126316e+01	1.389596e+01	1.695960e-01	1.137517e+00	2.840245e+00	-4.626210e+00	8.980332e-01	1.900381e+00	-4.603953e-01	8.104612e-01	8.020535e-01	8.431544e+00	1.028861e+01	1.560466e+01	1.166453e+00	-2.203926e+00	-3.472853e+00	8.047833e+00	7.233114e+00	1.095443e+01	1.411735e+01	1.305310e+01	9.118390e+00	1.191446e+01	1.453091e+01	1.366049e+01	1.063581e+01	1.241882e+01	9.090672e+00	1.070140e+01	1.368941e+01	1.266930e+01	1.427055e+01	1.374028e+01	1.409095e+01	1.346492e+01	1.321591e+01	1.229338e+01	7.213349e+00	1.518804e+01	1.387465e+01	5.487039e+00	4.307693e+00	1.215101e+01	1.120216e+01	1.088350e+01	1.022328e+01	9.566331e+00	9.419268e+00	9.934977e+00	8.569297e+00	8.771940e+00	5.201279e+00	2.882798e+00	2.077313e+00	1.133487e+01	1.298408e+00	1.309106e+01	5.578096e+00	2.483337e+00	6.482156e+00	4.675631e+00	1.211614e+01	7.952331e+00	8.322904e+00	7.429687e+00	6.947539e+00	6.266009e+00	8.960030e+00	2.457644e-01	9.113644e-01	-3.061349e-02	9.808069e+00	1.554512e+01	8.526360e+00	9.640483e+00	1.962683e+00	4.124358e+00	7.334443e+00	2.330565e+00	-1.269626e+00	-5.494007e-01	1.005967e+01	6.448100e+00	5.282653e+00	5.289645e+00	4.188018e+00	8.600520e+00	6.599224e+00	1.142432e+01	1.208286e+01	9.197111e-01	-1.140256e-01	1.130401e+01	-1.327254e+00	-1.198579e+00	1.527376e+01	9.115716e+00	1.536876e+01	-2.578500e+00	-3.546793e+00	8.033321e+00	4.465760e+00	5.252007e+00	3.507947e+00	5.222015e+00	6.776776e+00	8.817838e+00	7.756575e-01	1.449001e+00	-2.745280e+00	3.080908e+00	1.475373e+01	-1.898377e+00	9.160788e-01	-1.080445e+00	2.460254e+00	6.031155e-01	9.884945e+00	9.255567e+00	3.785300e+00	8.586867e+00	1.075530e+01	1.095694e+01	1.038711e+01	1.058383e+01	1.001592e+01	2.451619e+00	1.053249e+01	1.168180e+01	8.773219e+00	1.294152e+01	1.274504e+01	1.370196e+01	9.513205e+00	3.507868e+00	1.199673e+01	4.169160e+00	-2.205341e+00	-8.501500e-01	-1.602285e+00	8.120765e+00	6.413543e+00	1.568216e+01	8.285510e+00	1.531483e+01	1.449665e+01	9.554555e+00	-3.411746e-02	6.859255e-02	-6.530425e+00	3.772596e+00	2.201106e+00	1.296843e+01	2.912456e+00	2.009440e+00	1.968541e+00	3.648188e+00	1.031482e+01	9.915056e+00	1.179251e+01	8.802401e+00	9.828978e+00	6.344936e+00	6.908667e+00	7.483741e+00	6.215384e+00	6.944177e+00	1.539832e+01	1.203618e+01	1.824060e+00	9.355600e+00	4.284499e+00	1.425632e+00	2.923388e+00	3.780103e+00	-5.535260e+00	-6.326347e+00	5.570716e+00	-5.286057e+00	-3.494338e+00	1.947377e+00	1.071516e+01	1.235418e+01	1.618009e+01	6.098468e-01	7.599078e+00	8.053794e+00	4.525003e+00	9.846047e-01	1.439112e+00	1.500567e+01	9.653034e+00	1.472081e+01	2.530894e+00	6.921661e-01	9.963137e+00	1.959738e+00	-4.324731e+00	1.404169e+01	5.343670e+00	1.779847e+00	9.245575e-01	8.488037e+00	8.103459e-01	1.550134e+00	5.577462e-01	2.822211e+00	3.837031e-01	9.482013e-01	-9.605132e-02	-5.752404e-01	1.352541e+00	-1.802536e+00	1.464533e+00	5.997309e+00	7.622466e+00	-1.465826e-01	6.398832e+00	4.912320e+00	7.498081e+00	-1.331331e+00	4.548389e+00	1.225274e+00	5.229488e+00	-7.896129e-01	6.562308e-01	9.239074e+00	9.538545e+00	7.555702e+00	1.111107e+01	1.052775e+01	6.829690e+00	1.150398e+01	3.020629e+00	1.463365e+01	1.351825e+01	7.616909e+00	1.584192e+01	1.480366e+01	1.821310e+00	1.054305e+01	1.188117e+01	1.511614e+01	1.006339e+01	3.911321e+00	1.456453e+01	2.375648e+00	-3.730130e+00	1.458502e+01	-2.959957e+00	1.293754e+01	8.313538e+00	-4.205896e+00	1.248879e+01	9.437306e+00	2.478347e+00	7.467633e+00	-3.164796e+00	-3.619852e+00	8.246827e+00	2.974493e+00	3.728538e+00	1.062474e+01	8.065605e+00	8.268190e+00	1.136562e+01	9.917275e+00	3.197140e+00	2.494358e+00	1.639497e+00	7.880408e+00	-8.951408e-01	1.216386e+01	1.012480e+01	1.236463e+01	3.441733e+00	1.611986e+01	1.382486e+00	-4.034800e+00	-2.274363e+00	1.010161e+01	-2.699841e+00	1.077222e+01	1.128475e+01	5.829538e+00	5.752531e+00	9.137665e+00	-1.365228e-01	4.640610e-01	5.208392e-01	-1.006548e+00	1.295903e+01	1.448455e+01	2.746837e+00	1.285544e+01	8.049916e+00	1.555887e+01	7.723416e-01	1.154949e+01	6.386021e+00	7.560779e+00	1.278281e+00	5.763059e+00	1.341124e+01	7.356091e+00	2.319817e+00	7.878536e+00	
SCALARS Y-Momentum float 1
LOOKUP_TABLE default
-2.442060e-02	2.517227e-01	7.745641e+00	-5.777819e-01	6.535991e-01	2.302244e-01	5.838491e-02	-1.367740e-02	2.108222e-02	5.129300e-02	7.139504e-02	9.181197e-02	7.932792e-02	1.813649e-02	-4.372251e-03	-6.366020e-05	5.382795e-03	3.872854e-03	9.863893e-03	1.216865e-02	-6.863899e-03	5.847419e-03	-9.677058e-04	6.594370e-03	-2.084216e-02	8.007981e-01	1.443095e+00	2.112448e+00	2.858441e+00	3.629887e+00	4.410859e+00	5.222083e+00	6.102009e+00	7.086165e+00	8.012538e+00	8.572689e+00	9.366790e+00	-7.462192e-01	2.169355e+00	3.320123e+00	4.289409e+00	4.999262e+00	5.427099e+00	5.600160e+00	5.478449e+00	5.112944e+00	4.562523e+00	3.824804e+00	2.944295e+00	1.840335e+00	-5.827708e-03	2.909509e-02	2.816971e-02	9.357975e-03	5.598824e-03	1.680770e-02	1.947893e-02	-1.888328e-04	-5.863729e-02	-8.060501e-02	-1.010614e-01	-5.585514e-01	-6.433727e-01	-2.735614e-01	3.913733e-01	6.777323e-01	4.299622e-01	1.565893e-02	2.803213e-03	-8.766287e-03	-4.010429e-02	-2.465434e-02	-3.305564e-03	-4.525443e-03	4.569414e-03	-1.800185e-03	9.050042e+00	3.621531e+00	5.173574e-01	-2.985074e-01	5.175831e+00	5.302829e+00	7.718625e-01	6.259205e-01	4.427049e-01	1.174618e-01	5.132757e-01	8.254581e-01	4.389718e+00	3.038386e+00	7.459889e-01	9.173619e-01	4.694389e+00	6.978957e+00	3.015479e+00	1.700657e+00	-9.336970e-01	3.693359e-01	2.994667e-01	7.821525e-01	5.811723e-01	1.101144e+00	-6.968269e-01	2.770987e-01	-6.378740e-01	-5.001579e-02	7.762701e-01	8.686686e-01	8.634611e-02	1.058129e+00	1.806726e+00	2.086977e+00	1.423805e+00	2.432199e+00	1.929283e+00	2.879686e+00	3.528245e+00	4.094611e+00	4.491137e+00	5.137378e+00	4.882398e+00	5.621939e+00	4.613757e+00	5.305526e+00	2.313687e+00	2.589102e+00	3.998006e+00	1.775451e+00	2.443695e+00	3.854941e+00	3.984890e+00	5.426309e+00	3.816644e+00	4.634462e+00	3.380339e+00	2.927275e+00	3.838713e+00	2.798497e+00	2.824147e+00	3.232758e+00	2.681346e+00	2.948040e+00	3.456795e+00	5.921827e+00	1.681822e+00	1.345137e+00	3.007849e+00	2.490541e+00	2.767821e+00	2.924862e+00	2.218524e+00	3.976412e+00	2.684100e+00	3.563747e+00	2.103868e+00	2.639308e+00	1.928089e+00	3.246866e+00	6.618357e+00	2.063778e+00	6.932150e+00	6.070925e+00	2.823682e+00	3.176840e+00	3.615778e+00	3.745636e+00	1.700177e+00	9.562962e-01	9.121804e+00	5.004707e+00	4.414137e+00	3.155211e+00	3.746088e+00	1.643970e+00	3.397439e+00	2.118355e+00	1.850220e+00	4.060562e+00	3.708885e+00	7.958033e+00	2.815958e+00	3.191916e+00	2.443020e+00	1.535215e+00	1.854588e+00	2.222765e+00	6.966226e-01	1.625727e+00	2.586800e+00	2.220777e+00	2.786744e+00	6.373634e+00	6.886834e+00	1.073709e+00	4.442558e+00	4.548426e+00	1.908433e+00	3.714111e+00	3.826645e+00	2.247948e-01	3.033137e-01	-2.232702e-01	-2.662884e-01	-7.965372e-01	4.275196e+00	3.640284e+00	1.872153e+00	5.226742e+00	2.235058e+00	1.613172e+00	1.675547e+00	1.181737e+00	1.181803e+00	2.814227e+00	9.193863e+00	8.132040e+00	1.015829e+01	2.535104e+00	1.424697e+00	2.138749e+00	1.899595e+00	3.470861e+00	1.081939e+00	5.197830e+00	2.530607e+00	3.581926e+00	2.829600e+00	1.061152e+01	1.056024e+01	1.640339e+00	5.640122e-01	8.975104e-01	1.822655e+00	1.363785e+00	4.149590e+00	4.457410e+00	8.717722e-02	6.778808e+00	3.766895e+00	6.581534e-01	2.006049e+00	1.998116e+00	4.087446e+00	-9.967668e-01	7.294224e-01	6.923157e-01	4.720573e+00	5.208335e-01	3.219410e+00	6.172021e-01	1.125688e+00	9.021738e-01	1.389736e+00	1.797351e+00	1.367656e+00	6.460006e+00	4.402050e+00	8.649345e+00	8.143087e+00	4.429936e+00	5.803526e+00	9.039895e-01	7.638469e-01	4.277197e-01	7.078161e-01	-5.106735e-01	1.088084e+00	6.931937e-01	3.916572e-01	6.962571e+00	9.293414e-01	4.679930e+00	4.181007e-01	7.197737e-01	4.503923e-01	4.766952e+00	3.902474e+00	3.207789e+00	4.144075e-01	7.472618e-01	4.700377e+00	2.561522e+00	3.114697e-01	8.123193e+00	1.122806e+00	3.121978e+00	1.434616e+00	6.101744e+00	4.162882e+00	7.787019e-01	5.023606e+00	4.526048e+00	5.092057e+00	1.220945e+00	4.814273e+00	2.358979e+00	3.795274e+00	3.671996e+00	3.739759e+00	2.216691e+00	1.343143e+00	2.581801e+00	8.899143e+00	-1.006908e+00	3.130484e+00	-5.943729e-01	5.171096e+00	2.334832e+00	1.630199e+00	4.603933e+00	1.135227e+01	2.086159e+00	1.056017e+00	1.110920e+00	8.586329e-01	5.416747e+00	1.056197e+00	5.519632e+00	1.177573e+00	1.422167e+00	2.032775e+00	2.607302e+00	1.348880e+00	2.104136e+00	1.319191e+00	1.353524e+00	3.140504e+00	2.941202e+00	4.958114e-01	1.505749e+00	2.240708e+00	3.472816e+00	3.032175e+00	1.377733e+00	1.599803e+00	3.836673e+00	1.897559e+00	3.538833e+00	1.167285e+00	1.370826e+00	7.084015e+00	2.541140e+00	4.010137e+00	1.441367e+00	-5.672155e-01	-5.114353e-01	1.246818e-01	8.345264e+00	1.005238e+01	8.246283e+00	3.892302e+00	6.989288e+00	4.022403e+00	1.651683e+00	1.373025e+00	1.091769e+01	2.531595e+00	1.137850e+00	3.128865e+00	5.569044e+00	1.267920e-01	6.688981e-01	4.545353e+00	4.593861e-01	1.971489e+00	-8.302102e-02	-8.719349e-01	5.122027e-01	1.536425e+00	7.807390e-01	7.144904e+00	1.931876e+00	8.687555e+00	6.932355e-01	4.211695e+00	4.771815e+00	4.855175e-01	1.061865e+00	6.424893e+00	4.334651e+00	7.096805e+00	4.757919e+00	4.544720e+00	1.316156e+00	4.919525e+00	8.764078e-01	2.065878e+00	-5.944880e-01	4.656668e+00	-5.727017e-02	3.292810e+00	9.567783e+00	5.374298e+00	2.714300e+00	
SCALARS Energy float 1
LOOKUP_TABLE default