# vtk DataFile Version 3.0
vtk output
ASCII
DATASET UNSTRUCTURED_GRID
POINTS 394 float
-3.000000e+00	0.000000e+00	0.0	-5.000000e-02	1.290809e-17	0.0	-1.190965e-02	1.001697e+00	0.0	8.812407e-02	9.993970e-01	0.0	5.000000e-02	-1.486301e-18	0.0	3.000000e+00	0.000000e+00	0.0	3.000000e+00	4.000000e+00	0.0	-3.000000e+00	4.000000e+00	0.0	-3.000000e+00	3.428571e+00	0.0	-3.000000e+00	2.857143e+00	0.0	-3.000000e+00	2.285714e+00	0.0	-3.000000e+00	1.714286e+00	0.0	-3.000000e+00	1.142857e+00	0.0	-3.000000e+00	5.714286e-01	0.0	-2.473871e+00	0.000000e+00	0.0	-2.029066e+00	0.000000e+00	0.0	-1.653013e+00	0.000000e+00	0.0	-1.335087e+00	0.000000e+00	0.0	-1.066302e+00	0.000000e+00	0.0	-8.390627e-01	0.000000e+00	0.0	-6.469477e-01	0.000000e+00	0.0	-4.845277e-01	0.000000e+00	0.0	-3.472127e-01	0.000000e+00	0.0	-2.311224e-01	0.000000e+00	0.0	-1.329760e-01	0.000000e+00	0.0	-4.843736e-02	7.835264e-02	0.0	-4.534460e-02	1.562292e-01	0.0	-4.124833e-02	2.336624e-01	0.0	-3.677574e-02	3.107428e-01	0.0	-3.238995e-02	3.875742e-01	0.0	-2.839239e-02	4.642598e-01	0.0	-2.492706e-02	5.408939e-01	0.0	-2.198885e-02	6.175492e-01	0.0	-1.949308e-02	6.942572e-01	0.0	-1.734248e-02	7.710263e-01	0.0	-1.544850e-02	8.478700e-01	0.0	-1.361521e-02	9.247736e-01	0.0	3.810640e-02	1.000581e+00	0.0	8.631615e-02	9.224471e-01	0.0	8.452717e-02	8.454396e-01	0.0	8.261525e-02	7.683662e-01	0.0	8.046707e-02	6.912154e-01	0.0	7.797023e-02	6.140009e-01	0.0	7.503083e-02	5.367291e-01	0.0	7.156521e-02	4.594286e-01	0.0	6.757095e-02	3.821747e-01	0.0	6.318961e-02	3.050654e-01	0.0	5.871925e-02	2.282030e-01	0.0	5.462703e-02	1.516870e-01	0.0	5.151197e-02	7.560105e-02	0.0	1.329760e-01	0.000000e+00	0.0	2.311224e-01	0.000000e+00	0.0	3.472127e-01	0.000000e+00	0.0	4.845277e-01	0.000000e+00	0.0	6.469477e-01	0.000000e+00	0.0	8.390627e-01	0.000000e+00	0.0	1.066302e+00	0.000000e+00	0.0	1.335087e+00	0.000000e+00	0.0	1.653013e+00	0.000000e+00	0.0	2.029066e+00	0.000000e+00	0.0	2.473871e+00	0.000000e+00	0.0	3.000000e+00	5.714286e-01	0.0	3.000000e+00	1.142857e+00	0.0	3.000000e+00	1.714286e+00	0.0	3.000000e+00	2.285714e+00	0.0	3.000000e+00	2.857143e+00	0.0	3.000000e+00	3.428571e+00	0.0	2.400000e+00	4.000000e+00	0.0	1.800000e+00	4.000000e+00	0.0	1.200000e+00	4.000000e+00	0.0	6.000000e-01	4.000000e+00	0.0	0.000000e+00	4.000000e+00	0.0	-6.000000e-01	4.000000e+00	0.0	-1.200000e+00	4.000000e+00	0.0	-1.800000e+00	4.000000e+00	0.0	-2.400000e+00	4.000000e+00	0.0	-9.770866e-02	8.899194e-01	0.0	1.330620e-01	8.866896e-01	0.0	-1.482914e+00	2.509643e-01	0.0	1.501377e+00	2.263714e-01	0.0	1.208314e-01	5.723135e-01	0.0	-1.107588e-01	5.787955e-01	0.0	-7.459368e-01	1.630392e-01	0.0	7.478159e-01	1.577316e-01	0.0	-2.586925e+00	2.077231e+00	0.0	2.519074e+00	1.945873e+00	0.0	-9.289227e-01	3.509601e+00	0.0	9.140637e-01	3.460708e+00	0.0	1.198904e-01	3.445120e-01	0.0	-1.149615e-01	3.473872e-01	0.0	-4.139633e-01	1.112785e-01	0.0	4.165583e-01	1.088650e-01	0.0	1.296750e-01	7.271061e-01	0.0	-1.079793e-01	7.329293e-01	0.0	1.229670e-01	1.945294e-01	0.0	-1.206896e-01	1.957931e-01	0.0	2.524583e+00	8.147850e-01	0.0	-2.504240e+00	7.874074e-01	0.0	-2.058869e+00	3.451978e+00	0.0	2.065669e+00	3.438891e+00	0.0	-1.836770e-01	7.509485e-02	0.0	1.842519e-01	7.445875e-02	0.0	2.224445e+00	3.971949e-01	0.0	-2.250837e+00	3.564885e-01	0.0	2.467536e+00	1.405829e+00	0.0	2.089164e+00	1.712472e+00	0.0	2.067548e+00	2.117042e+00	0.0	1.724050e+00	1.865152e+00	0.0	1.709098e+00	1.474325e+00	0.0	1.412442e+00	1.670104e+00	0.0	1.387273e+00	2.008639e+00	0.0	1.131936e+00	1.802156e+00	0.0	1.142654e+00	1.510016e+00	0.0	9.080732e-01	1.620192e+00	0.0	9.161547e-01	1.379593e+00	0.0	6.962547e-01	1.449203e+00	0.0	6.769205e-01	1.700137e+00	0.0	4.906385e-01	1.552918e+00	0.0	4.671144e-01	1.781013e+00	0.0	2.955831e-01	1.662011e+00	0.0	2.602464e-01	1.872830e+00	0.0	9.926919e-02	1.739087e+00	0.0	4.557996e-02	1.963248e+00	0.0	-1.277212e-01	1.784329e+00	0.0	7.399025e-01	1.241920e+00	0.0	1.087299e+00	2.133421e+00	0.0	2.675497e-01	2.137237e+00	0.0	9.047002e-01	1.138085e+00	0.0	7.326456e-01	1.055801e+00	0.0	-1.903831e-01	2.067854e+00	0.0	-3.963141e-01	1.895715e+00	0.0	-3.302253e-01	1.616195e+00	0.0	-6.031350e-01	1.724304e+00	0.0	-5.488180e-01	1.472534e+00	0.0	-8.044814e-01	1.555242e+00	0.0	-8.305608e-01	1.798756e+00	0.0	-7.512992e-01	1.294225e+00	0.0	-1.017198e+00	1.380714e+00	0.0	5.899794e-01	1.129700e+00	0.0	5.830235e-01	9.642974e-01	0.0	7.254888e-01	8.778312e-01	0.0	-4.591256e-01	2.185055e+00	0.0	5.760055e-01	7.948609e-01	0.0	1.377086e-01	1.517477e+00	0.0	3.796848e-02	1.047628e+00	0.0	9.833315e-02	1.040288e+00	0.0	6.557827e-02	1.101839e+00	0.0	1.368933e-01	1.103680e+00	0.0	-2.156253e-01	2.375433e+00	0.0	-9.536836e-01	1.113129e+00	0.0	-1.238510e+00	1.195129e+00	0.0	-6.981935e-01	1.032200e+00	0.0	-9.165819e-01	8.311451e-01	0.0	-6.705813e-01	8.031250e-01	0.0	-1.304670e+00	1.498582e+00	0.0	7.165633e-01	7.056418e-01	0.0	8.750920e-01	7.839462e-01	0.0	5.645032e-01	6.385359e-01	0.0	-3.415242e-01	1.365409e+00	0.0	1.356309e+00	2.361878e+00	0.0	-1.102351e-02	1.091347e+00	0.0	2.651142e-02	1.168039e+00	0.0	1.713560e-01	1.028520e+00	0.0	2.214153e-01	1.102457e+00	0.0	1.746818e-01	1.181646e+00	0.0	2.628082e-01	1.013372e+00	0.0	8.594254e-01	6.069446e-01	0.0	1.052761e+00	6.958922e-01	0.0	-6.336615e-02	1.159388e+00	0.0	-5.072348e-01	9.249081e-01	0.0	-4.789723e-01	7.455391e-01	0.0	-6.160235e-01	6.201446e-01	0.0	-4.251777e-01	5.831038e-01	0.0	-1.556085e+00	1.287716e+00	0.0	2.863146e-01	1.191037e+00	0.0	-5.180595e-01	2.508880e+00	0.0	-2.391187e-01	2.731765e+00	0.0	4.395710e-01	7.168772e-01	0.0	4.289772e-01	5.695114e-01	0.0	-1.804338e-02	1.252653e+00	0.0	5.468593e-01	4.897825e-01	0.0	4.149343e-01	4.279540e-01	0.0	1.027083e+00	2.497956e+00	0.0	-1.627366e+00	1.632113e+00	0.0	1.316255e+00	2.743047e+00	0.0	5.205823e-01	3.486715e-01	0.0	1.032817e+00	4.296647e-01	0.0	-1.472898e+00	9.937353e-01	0.0	-5.568206e-01	4.585789e-01	0.0	-7.236577e-01	4.852734e-01	0.0	-4.058893e-01	4.232971e-01	0.0	-3.418479e-01	8.743825e-01	0.0	-3.768183e-01	1.030972e+00	0.0	-1.991211e+00	1.409456e+00	0.0	3.129418e-01	6.494688e-01	0.0	3.335078e-01	7.857996e-01	0.0	6.676000e-01	4.050460e-01	0.0	-3.004533e-01	5.118042e-01	0.0	6.196263e-01	1.960483e+00	0.0	1.228402e+00	5.976904e-01	0.0	1.255418e+00	8.210500e-01	0.0	1.461255e+00	6.735780e-01	0.0	1.496557e+00	9.526655e-01	0.0	1.777010e+00	8.096530e-01	0.0	2.219911e-01	1.285323e+00	0.0	3.469417e-01	1.289730e+00	0.0	-5.103235e-01	3.084751e-01	0.0	-5.258386e-01	1.265682e+00	0.0	-7.824729e-01	2.288697e+00	0.0	-8.615181e-01	2.653546e+00	0.0	-1.150151e+00	2.424954e+00	0.0	-1.235746e+00	2.800543e+00	0.0	-1.605529e+00	2.460049e+00	0.0	-2.676552e-01	3.790080e-01	0.0	-1.278500e-01	1.241869e+00	0.0	-8.630888e-02	1.354438e+00	0.0	-1.618516e-01	1.140098e+00	0.0	9.888597e-02	2.564919e+00	0.0	1.108299e-01	3.018932e+00	0.0	4.365099e-01	2.780277e+00	0.0	-1.353905e+00	1.841785e+00	0.0	4.538231e-01	1.041685e+00	0.0	-3.043333e-01	3.148118e+00	0.0	-3.300297e-01	7.172722e-01	0.0	3.927587e-01	2.954004e-01	0.0	2.812230e-01	3.708608e-01	0.0	2.730438e-01	2.576246e-01	0.0	-9.690829e-02	1.079665e+00	0.0	-1.782059e-01	1.041282e+00	0.0	1.677970e+00	2.601311e+00	0.0	1.358592e+00	1.364186e+00	0.0	2.446045e+00	2.508233e+00	0.0	8.963004e-01	2.911538e+00	0.0	-1.691015e+00	2.002932e+00	0.0	2.945784e-01	5.073221e-01	0.0	2.010017e-01	4.444568e-01	0.0	1.205747e+00	2.073906e-01	0.0	-2.411887e-01	8.033805e-01	0.0	-1.992052e-01	4.635511e-01	0.0	3.632776e-01	3.516174e+00	0.0	-3.664823e-01	2.917715e-01	0.0	-2.496476e-01	2.649446e-01	0.0	4.372887e-01	8.869786e-01	0.0	2.112823e+00	1.077608e+00	0.0	-1.672463e+00	3.018957e+00	0.0	-2.023020e+00	2.668050e+00	0.0	2.751109e-01	1.406276e+00	0.0	-2.491648e+00	1.297344e+00	0.0	5.220713e-01	1.360985e+00	0.0	-1.194591e+00	2.215177e-01	0.0	-1.311862e+00	4.725678e-01	0.0	-1.597189e+00	5.251048e-01	0.0	-1.042501e+00	4.365942e-01	0.0	-1.150277e+00	6.849950e-01	0.0	1.636878e+00	3.045971e+00	0.0	-1.330425e-01	1.590611e+00	0.0	3.182625e-01	9.063682e-01	0.0	-2.450585e-01	1.224767e+00	0.0	-2.356424e-01	8.957991e-01	0.0	2.253237e-01	8.351016e-01	0.0	-2.091579e-01	6.856673e-01	0.0	-5.605473e-01	1.620072e-01	0.0	5.672741e-01	1.244783e-01	0.0	9.650972e-01	2.027522e-01	0.0	-9.525050e-01	1.911562e-01	0.0	1.828038e+00	2.770351e-01	0.0	2.926893e-01	9.028190e-02	0.0	-2.836265e-01	9.299976e-02	0.0	-1.487839e+00	3.526095e+00	0.0	4.490568e-02	1.367456e+00	0.0	2.520728e+00	3.105091e+00	0.0	2.334560e-01	5.798608e-01	0.0	-1.831665e+00	2.968073e-01	0.0	-1.975076e+00	6.795646e-01	0.0	1.302106e+00	1.086231e+00	0.0	2.136095e-01	6.768263e-01	0.0	2.051285e-01	9.383074e-01	0.0	7.528674e-01	2.243506e+00	0.0	-2.530381e+00	2.525361e+00	0.0	1.440588e+00	3.515767e+00	0.0	-2.131464e-01	5.774787e-01	0.0	1.230764e-01	9.691151e-01	0.0	-2.459714e+00	3.076928e+00	0.0	-1.028464e-01	8.103668e-01	0.0	8.228029e-01	3.180415e-01	0.0	4.269879e-01	2.423591e+00	0.0	-8.256355e-01	3.248327e-01	0.0	-1.095162e-01	6.558642e-01	0.0	1.342348e-01	8.049277e-01	0.0	-2.151569e+00	1.046822e+00	0.0	1.236872e-01	6.525809e-01	0.0	-1.211613e-01	5.077719e-01	0.0	1.221407e-01	4.965659e-01	0.0	1.055750e+00	9.415022e-01	0.0	1.221812e-01	4.178906e-01	0.0	-1.147308e-01	2.702476e-01	0.0	1.185328e-01	2.685289e-01	0.0	1.934553e-01	3.064585e-01	0.0	-1.194210e-01	4.255144e-01	0.0	2.179076e-01	1.642207e-01	0.0	-2.120528e-01	1.694827e-01	0.0	-8.012615e-01	6.373728e-01	0.0	-2.675807e-01	1.104889e+00	0.0	2.116412e+00	7.373579e-01	0.0	4.410440e-01	1.190468e+00	0.0	1.776765e+00	1.150095e+00	0.0	-9.971554e-03	1.044430e+00	0.0	6.961204e-01	5.523027e-01	0.0	-6.538851e-01	3.171419e-01	0.0	1.966472e-01	7.670750e-01	0.0	-1.075490e-01	1.009064e+00	0.0	1.161309e-01	1.149945e-01	0.0	-1.164563e-01	1.172666e-01	0.0	-1.942684e+00	1.781129e+00	0.0	-2.081781e+00	2.168832e+00	0.0	-5.072132e-01	1.097691e+00	0.0	-9.083749e-01	3.061890e+00	0.0	8.234692e-02	1.249996e+00	0.0	1.113465e+00	1.236555e+00	0.0	-5.759813e-01	2.894316e+00	0.0	8.588109e-01	9.593140e-01	0.0	7.080959e-01	2.571346e+00	0.0	5.444655e-01	3.137520e+00	0.0	-1.189372e+00	9.215422e-01	0.0	2.061604e+00	2.864551e+00	0.0	1.254951e+0
[...]
POINT_DATA 394

SCALARS Density float 1
LOOKUP_TABLE default
1.223755e+00	1.223963e+00	1.222419e+00	1.222008e+00	1.223551e+00	1.223787e+00	1.223246e+00	1.223612e+00	1.223594e+00	1.223609e+00	1.223658e+00	1.223689e+00	1.223767e+00	1.223772e+00	1.223784e+00	1.223763e+00	1.223797e+00	1.223821e+00	1.223858e+00	1.223881e+00	1.223905e+00	1.223944e+00	1.223926e+00	1.223987e+00	1.223920e+00	1.223999e+00	1.223924e+00	1.223941e+00	1.223943e+00	1.223931e+00	1.223923e+00	1.223890e+00	1.223887e+00	1.223806e+00	1.223887e+00	1.223092e+00	1.224882e+00	1.220701e+00	1.223911e+00	1.223548e+00	1.223557e+00	1.223489e+00	1.223432e+00	1.223401e+00	1.223403e+00	1.223411e+00	1.223440e+00	1.223476e+00	1.223419e+00	1.223647e+00	1.223424e+00	1.223533e+00	1.223447e+00	1.223377e+00	1.223332e+00	1.223300e+00	1.223206e+00	1.223257e+00	1.223253e+00	1.223381e+00	1.222913e+00	1.223509e+00	1.223180e+00	1.222973e+00	1.222849e+00	1.222943e+00	1.223083e+00	1.223104e+00	1.223226e+00	1.223268e+00	1.223355e+00	1.223415e+00	1.223499e+00	1.223557e+00	1.223593e+00	1.223595e+00	1.223436e+00	1.223749e+00	1.223808e+00	1.223192e+00	1.223452e+00	1.223835e+00	1.223865e+00	1.223300e+00	1.223656e+00	1.223297e+00	1.223528e+00	1.223307e+00	1.223444e+00	1.223906e+00	1.223926e+00	1.223417e+00	1.223576e+00	1.223679e+00	1.223534e+00	1.223944e+00	1.223046e+00	1.223756e+00	1.223618e+00	1.223111e+00	1.223956e+00	1.223512e+00	1.223301e+00	1.223751e+00	1.222979e+00	1.222974e+00	1.223128e+00	1.223116e+00	1.223074e+00	1.223055e+00	1.223043e+00	1.223267e+00	1.222958e+00	1.222979e+00	1.223012e+00	1.223171e+00	1.222932e+00	1.223221e+00	1.223152e+00	1.223267e+00	1.223209e+00	1.223258e+00	1.223477e+00	1.223359e+00	1.223186e+00	1.223029e+00	1.223278e+00	1.222979e+00	1.223193e+00	1.223440e+00	1.223535e+00	1.223557e+00	1.223501e+00	1.223646e+00	1.223700e+00	1.223598e+00	1.223697e+00	1.223678e+00	1.223282e+00	1.223270e+00	1.223305e+00	1.223557e+00	1.223347e+00	1.223257e+00	1.222492e+00	1.222243e+00	1.222827e+00	1.223095e+00	1.223430e+00	1.223740e+00	1.223739e+00	1.223795e+00	1.223788e+00	1.223816e+00	1.223698e+00	1.223235e+00	1.223075e+00	1.223334e+00	1.223566e+00	1.223201e+00	1.222024e+00	1.223280e+00	1.223237e+00	1.223087e+00	1.222878e+00	1.223303e+00	1.223245e+00	1.223155e+00	1.223166e+00	1.223775e+00	1.223781e+00	1.223847e+00	1.223837e+00	1.223702e+00	1.222995e+00	1.223509e+00	1.223487e+00	1.223458e+00	1.223383e+00	1.223163e+00	1.223327e+00	1.223380e+00	1.223276e+00	1.223684e+00	1.223147e+00	1.223428e+00	1.223084e+00	1.223761e+00	1.223871e+00	1.223889e+00	1.223916e+00	1.223811e+00	1.223692e+00	1.223719e+00	1.223423e+00	1.223473e+00	1.223265e+00	1.223922e+00	1.223339e+00	1.223040e+00	1.223170e+00	1.222950e+00	1.222955e+00	1.223049e+00	1.223020e+00	1.222994e+00	1.223949e+00	1.223619e+00	1.223552e+00	1.223538e+00	1.223606e+00	1.223578e+00	1.223647e+00	1.223899e+00	1.223231e+00	1.223498e+00	1.223513e+00	1.223368e+00	1.223389e+00	1.223414e+00	1.223653e+00	1.223192e+00	1.223416e+00	1.223885e+00	1.223383e+00	1.223415e+00	1.223441e+00	1.223752e+00	1.223082e+00	1.223085e+00	1.222936e+00	1.223305e+00	1.223296e+00	1.223670e+00	1.223449e+00	1.223375e+00	1.223026e+00	1.223767e+00	1.223979e+00	1.223409e+00	1.223897e+00	1.223942e+00	1.223330e+00	1.222967e+00	1.223571e+00	1.223609e+00	1.222780e+00	1.223701e+00	1.223134e+00	1.223838e+00	1.223871e+00	1.223738e+00	1.223836e+00	1.223784e+00	1.223263e+00	1.223534e+00	1.223390e+00	1.223463e+00	1.223729e+00	1.223589e+00	1.223879e+00	1.223945e+00	1.223367e+00	1.223256e+00	1.223868e+00	1.223007e+00	1.223532e+00	1.223973e+00	1.223566e+00	1.223128e+00	1.223158e+00	1.223485e+00	1.223803e+00	1.223745e+00	1.223033e+00	1.223458e+00	1.223322e+00	1.223223e+00	1.223651e+00	1.223232e+00	1.223840e+00	1.223328e+00	1.223636e+00	1.223975e+00	1.223248e+00	1.223343e+00	1.223865e+00	1.223877e+00	1.223560e+00	1.223720e+00	1.223511e+00	1.223871e+00	1.223436e+00	1.223100e+00	1.223446e+00	1.223931e+00	1.223464e+00	1.223415e+00	1.223873e+00	1.223397e+00	1.223966e+00	1.223851e+00	1.223681e+00	1.223004e+00	1.223134e+00	1.223314e+00	1.224127e+00	1.223308e+00	1.223938e+00	1.223482e+00	1.223515e+00	1.223462e+00	1.223941e+00	1.223667e+00	1.223669e+00	1.223736e+00	1.223534e+00	1.222872e+00	1.223132e+00	1.223489e+00	1.223094e+00	1.223243e+00	1.223299e+00	1.223814e+00	1.223306e+00	1.223235e+00	1.223969e+00	1.223599e+00	1.223521e+00	1.223074e+00	1.223596e+00	1.223216e+00	1.223187e+00	1.223899e+00	1.223331e+00	1.223359e+00	1.223388e+00	1.223378e+00	1.223782e+00	1.223267e+00	1.223335e+00	1.223660e+00	1.223278e+00	1.223771e+00	1.223332e+00	1.222514e+00	1.223798e+00	1.223872e+00	1.223524e+00	1.223478e+00	1.222935e+00	1.223671e+00	1.223177e+00	1.223630e+00	1.223888e+00	1.224801e+00	1.223958e+00	1.223772e+00	1.223380e+00	1.223327e+00	1.223577e+00	1.223437e+00	1.223877e+00	1.223032e+00	1.223960e+00	1.223177e+00	1.223097e+00	1.223607e+00	1.223197e+00	1.223595e+00	1.223348e+00	1.223845e+00	1.223852e+00	1.223721e+00	1.223360e+00	1.223370e+00	1.223969e+00	1.223594e+00	1.223483e+00	1.223147e+00	1.223733e+00	1.222936e+00	1.223507e+00	1.223162e+00	1.223409e+00	1.223493e+00	1.223802e+00	1.223011e+00	1.223500e+00	1.222828e+00	1.223326e+00	1.223142e+00	1.223820e+00	1.223031e+00	
SCALARS X-Momentum float 1
LOOKUP_TABLE default
7.940933e+00	2.298642e-01	4.041730e+00	5.608479e-01	-6.229542e-01	-5.190548e+00	1.643834e+01	1.001412e+01	9.844170e+00	9.587342e+00	9.272380e+00	8.905427e+00	8.542582e+00	8.184629e+00	7.751799e+00	7.394210e+00	6.856042e+00	6.192353e+00	5.457004e+00	4.652468e+00	3.805165e+00	3.025883e+00	2.207216e+00	1.456642e+00	7.681494e-01	-2.014044e-02	4.673097e-02	1.318849e-01	1.883204e-01	2.334247e-01	2.684061e-01	2.920306e-01	3.143127e-01	3.374361e-01	3.343575e-01	2.910421e-01	5.025744e-02	4.633636e+00	4.335714e-01	2.565488e-01	2.762487e-01	2.601131e-01	2.768655e-01	3.094412e-01	3.196092e-01	3.069946e-01	2.821974e-01	2.163011e-01	1.574593e-01	1.207314e-01	-1.943209e+00	-3.506766e+00	-4.859268e+00	-6.123288e+00	-7.182000e+00	-7.970665e+00	-8.557217e+00	-8.837987e+00	-8.340251e+00	-7.511213e+00	-6.685971e+00	-1.503353e+00	3.901919e+00	9.407024e+00	1.359325e+01	1.581923e+01	1.649977e+01	1.580042e+01	1.490682e+01	1.390991e+01	1.305558e+01	1.231925e+01	1.164134e+01	1.102713e+01	1.052258e+01	1.018038e+01	9.764513e-01	9.022690e-01	6.704792e+00	-6.056121e+00	3.255237e-01	1.143291e+00	4.397050e+00	-5.815845e+00	9.170713e+00	1.206628e+01	1.112967e+01	1.387843e+01	-1.031002e-01	8.791557e-01	2.607404e+00	-4.333090e+00	6.069335e-01	1.269336e+00	-5.466367e-01	6.727678e-01	6.149704e-01	8.190481e+00	1.013522e+01	1.564295e+01	1.046998e+00	-2.049774e+00	-3.479904e+00	7.781207e+00	6.911201e+00	1.063447e+01	1.384122e+01	1.273553e+01	8.828639e+00	1.159011e+01	1.423090e+01	1.331401e+01	1.032488e+01	1.204185e+01	8.824597e+00	1.033369e+01	1.324372e+01	1.216079e+01	1.381024e+01	1.320732e+01	1.369421e+01	1.301243e+01	1.290896e+01	1.194074e+01	7.025446e+00	1.491162e+01	1.361825e+01	5.368799e+00	4.219243e+00	1.191940e+01	1.094303e+01	1.052208e+01	9.935109e+00	9.199790e+00	9.112116e+00	9.676413e+00	8.185819e+00	8.470087e+00	5.098647e+00	2.815947e+00	2.005647e+00	1.113456e+01	1.170345e+00	1.246636e+01	5.288647e+00	2.573705e+00	6.104721e+00	4.531585e+00	1.194311e+01	7.608936e+00	8.038393e+00	6.988451e+00	6.584081e+00	5.817461e+00	8.705146e+00	1.705808e-01	8.858026e-01	-1.854983e-01	9.338975e+00	1.534602e+01	7.769455e+00	8.895295e+00	2.070363e+00	4.067246e+00	6.949302e+00	2.366718e+00	-1.248954e+00	-5.222111e-01	9.224223e+00	5.888952e+00	4.736696e+00	4.863391e+00	3.710589e+00	8.351659e+00	6.366090e+00	1.125332e+01	1.193861e+01	6.897694e-01	-3.381905e-01	1.050283e+01	-1.421277e+00	-1.328436e+00	1.512000e+01	8.890498e+00	1.527696e+01	-2.553132e+00	-3.411795e+00	7.761090e+00	4.091304e+00	4.896569e+00	3.136441e+00	4.541813e+00	6.140098e+00	8.592725e+00	4.629893e-01	1.196749e+00	-2.698701e+00	2.642580e+00	1.439128e+01	-1.831481e+00	8.882361e-01	-1.059085e+00	2.359238e+00	5.309169e-01	9.338373e+00	8.845097e+00	3.467545e+00	8.134992e+00	1.055826e+01	1.078402e+01	1.019578e+01	1.041209e+01	9.829349e+00	2.116722e+00	9.814705e+00	1.101974e+01	8.021685e+00	1.279789e+01	1.264128e+01	1.360187e+01	9.287689e+00	3.477047e+00	1.187105e+01	3.552445e+00	-2.201431e+00	-1.011815e+00	-1.630172e+00	7.275486e+00	5.646008e+00	1.554921e+01	8.032748e+00	1.511702e+01	1.442896e+01	9.349712e+00	-3.068726e-01	-2.308914e-01	-6.273616e+00	3.057673e+00	1.807005e+00	1.290818e+01	2.617110e+00	1.758113e+00	1.847836e+00	3.455689e+00	1.014969e+01	9.739143e+00	1.117938e+01	8.584831e+00	9.446540e+00	6.033686e+00	6.604138e+00	7.197282e+00	5.892188e+00	6.626871e+00	1.536512e+01	1.159116e+01	1.722846e+00	8.738449e+00	3.515155e+00	1.225025e+00	2.306961e+00	3.500260e+00	-5.220221e+00	-6.038169e+00	5.256887e+00	-5.167389e+00	-3.255212e+00	1.768719e+00	1.057076e+01	1.161291e+01	1.614746e+01	2.602500e-01	7.313309e+00	7.791246e+00	4.384119e+00	6.390743e-01	1.438285e+00	1.476234e+01	9.474229e+00	1.474759e+01	2.033768e+00	8.406857e-01	9.797780e+00	1.259539e+00	-4.151126e+00	1.387250e+01	5.017084e+00	1.222754e+00	7.419724e-01	8.250720e+00	4.548011e-01	1.139411e+00	1.796293e-01	2.762942e+00	4.471741e-02	7.555121e-01	-2.824320e-01	-7.378270e-01	1.020946e+00	-1.746321e+00	1.290520e+00	5.622362e+00	6.945608e+00	-2.310156e-01	6.233157e+00	4.711979e+00	6.835413e+00	-1.373241e+00	4.225346e+00	9.308747e-01	4.422301e+00	-7.854799e-01	5.660358e-01	9.030940e+00	9.346678e+00	7.032644e+00	1.095654e+01	9.820823e+00	6.637487e+00	1.135291e+01	2.966695e+00	1.450493e+01	1.345504e+01	7.310370e+00	1.576512e+01	1.477774e+01	1.501863e+00	1.031115e+01	1.176909e+01	1.487427e+01	9.841230e+00	3.887689e+00	1.419989e+01	2.143165e+00	-3.567068e+00	1.432276e+01	-2.829566e+00	1.273054e+01	8.063373e+00	-4.030754e+00	1.189488e+01	9.178659e+00	2.459340e+00	7.176747e+00	-3.092743e+00	-3.699812e+00	7.988514e+00	2.207901e+00	2.974658e+00	1.004558e+01	7.530892e+00	7.714246e+00	1.084070e+01	9.713163e+00	2.923495e+00	1.764162e+00	1.378954e+00	7.609590e+00	-9.730800e-01	1.144708e+01	9.971017e+00	1.226870e+01	2.903964e+00	1.619759e+01	1.178176e+00	-3.899323e+00	-2.269209e+00	9.936158e+00	-2.629455e+00	1.061650e+01	1.079143e+01	5.486630e+00	5.013701e+00	8.934006e+00	-3.900267e-01	1.112912e-01	4.626710e-01	-9.396152e-01	1.245469e+01	1.413923e+01	2.042641e+00	1.226114e+01	7.594410e+00	1.537659e+01	3.990582e-01	1.141317e+01	6.044160e+00	7.278277e+00	9.639474e-01	5.565348e+00	1.323587e+01	6.564452e+00	1.765232e+00	7.644037e+00	
SCALARS Y-Momentum float 1
LOOKUP_TABLE default
-2.539262e-02	2.257162e-01	7.366872e+00	-2.816909e-01	6.013011e-01	2.227628e-01	6.314119e-02	-1.372474e-02	2.328979e-02	5.470477e-02	7.720126e-02	1.005343e-01	8.845625e-02	2.361825e-02	-4.085990e-03	2.496064e-04	5.375309e-03	3.226978e-03	9.145407e-03	1.081987e-02	-8.904972e-03	2.340352e-03	-2.144817e-03	6.857372e-03	-1.811492e-02	7.096592e-01	1.268288e+00	1.856174e+00	2.519992e+00	3.218525e+00	3.929336e+00	4.665931e+00	5.453367e+00	6.335354e+00	7.147198e+00	7.627926e+00	8.380191e+00	-2.118459e-01	2.362177e+00	3.428147e+00	4.290398e+00	4.886637e+00	5.229433e+00	5.345319e+00	5.203100e+00	4.839322e+00	4.307665e+00	3.603182e+00	2.758789e+00	1.709318e+00	-6.029238e-03	2.486471e-02	2.841069e-02	1.201484e-02	1.028637e-02	2.279265e-02	2.399291e-02	1.971387e-03	-5.635774e-02	-7.613961e-02	-9.632302e-02	-5.152125e-01	-6.035228e-01	-2.830960e-01	3.454541e-01	6.388293e-01	4.157206e-01	1.681240e-02	6.566936e-03	-3.160629e-03	-3.743783e-02	-2.320193e-02	-2.278150e-03	-4.680717e-03	5.089479e-03	-1.271586e-03	8.265381e+00	3.669532e+00	5.076990e-01	-2.571783e-01	5.012894e+00	4.813597e+00	7.138710e-01	6.662843e-01	4.549650e-01	1.086070e-01	5.314115e-01	8.645991e-01	4.200792e+00	2.725028e+00	6.744409e-01	9.337221e-01	4.636744e+00	6.357398e+00	2.876414e+00	1.510226e+00	-8.467629e-01	3.809987e-01	3.086253e-01	7.924196e-01	5.187659e-01	1.054690e+00	-6.316987e-01	2.841561e-01	-5.825195e-01	-8.518024e-03	7.733295e-01	9.084479e-01	1.737049e-01	1.145022e+00	1.847783e+00	2.167675e+00	1.544402e+00	2.547437e+00	2.077722e+00	3.037102e+00	3.613648e+00	4.192177e+00	4.527315e+00	5.151903e+00	4.902944e+00	5.609930e+00	4.666144e+00	5.335888e+00	2.473340e+00	2.633695e+00	4.055511e+00	1.897756e+00	2.529600e+00	3.943269e+00	4.076046e+00	5.470770e+00	3.906622e+00	4.707438e+00	3.446409e+00	3.001362e+00	3.876139e+00	2.824443e+00	2.944106e+00	3.246757e+00	2.701639e+00	3.042456e+00	3.424615e+00	5.867349e+00	1.895241e+00	1.578174e+00	3.146814e+00	2.705963e+00	2.859084e+00	2.914117e+00	2.218922e+00	3.950749e+00	2.633355e+00	3.478915e+00	2.123157e+00	2.648299e+00	1.963572e+00	3.240935e+00	6.610381e+00	2.093366e+00	6.654116e+00	5.907564e+00	2.957345e+00	3.346843e+00	3.769303e+00	3.783649e+00	1.738285e+00	1.009995e+00	8.704689e+00	4.927241e+00	4.257499e+00	3.020442e+00	3.531340e+00	1.654345e+00	3.586235e+00	2.195809e+00	1.929084e+00	4.002519e+00	3.692004e+00	7.661889e+00	2.843433e+00	3.197311e+00	2.488431e+00	1.553276e+00	1.889653e+00	2.266727e+00	7.488185e-01	1.624430e+00	2.430444e+00	2.105114e+00	2.582391e+00	6.168351e+00	6.792554e+00	1.090026e+00	4.383669e+00	4.461613e+00	1.959186e+00	3.436136e+00	3.873050e+00	2.869328e-01	3.839496e-01	-1.462876e-01	-1.685586e-01	-6.926495e-01	4.379152e+00	3.813924e+00	1.732833e+00	5.268043e+00	2.306074e+00	1.663347e+00	1.717588e+00	1.211876e+00	1.206369e+00	2.572934e+00	8.877265e+00	7.916778e+00	9.758044e+00	2.624464e+00	1.494086e+00	2.215650e+00	1.928752e+00	3.523138e+00	1.133622e+00	4.929260e+00	2.537004e+00	3.524138e+00	2.777576e+00	1.004727e+01	1.008595e+01	1.650895e+00	6.769505e-01	8.699323e-01	1.879262e+00	1.386107e+00	4.094068e+00	4.339539e+00	1.250565e-01	6.405478e+00	3.447160e+00	6.982090e-01	1.837620e+00	1.807954e+00	4.026042e+00	-8.845901e-01	7.474744e-01	7.073578e-01	4.776521e+00	5.357906e-01	3.403041e+00	5.936439e-01	1.099300e+00	8.963593e-01	1.334133e+00	1.757306e+00	1.394716e+00	6.422285e+00	4.329935e+00	8.478700e+00	7.767436e+00	4.380691e+00	5.388226e+00	8.271569e-01	7.982018e-01	4.690595e-01	6.675044e-01	-4.622844e-01	1.071130e+00	6.224922e-01	4.030914e-01	6.792448e+00	9.162578e-01	4.599217e+00	4.193082e-01	7.277945e-01	5.514327e-01	4.695618e+00	3.896667e+00	3.256010e+00	4.255447e-01	7.744633e-01	4.331036e+00	2.660880e+00	3.203866e-01	7.390245e+00	1.176777e+00	3.195264e+00	1.349565e+00	5.549403e+00	4.171754e+00	7.933548e-01	4.907781e+00	4.103293e+00	4.905801e+00	1.298699e+00	4.620237e+00	2.103850e+00	3.624269e+00	3.557153e+00	3.374883e+00	2.150472e+00	1.202517e+00	2.491438e+00	8.693262e+00	-9.006272e-01	3.296567e+00	-4.873942e-01	5.109482e+00	2.368239e+00	1.517582e+00	4.557439e+00	1.062365e+01	1.976123e+00	9.384618e-01	1.129318e+00	8.760572e-01	5.405155e+00	1.089789e+00	5.458968e+00	1.299119e+00	1.477584e+00	2.097096e+00	2.670150e+00	1.414642e+00	2.082662e+00	1.318402e+00	1.396468e+00	2.853519e+00	3.030577e+00	5.198180e-01	1.515100e+00	2.294902e+00	3.583664e+00	3.099006e+00	1.247411e+00	1.638244e+00	3.882754e+00	1.892908e+00	3.622056e+00	1.178327e+00	1.426778e+00	6.961352e+00	2.584993e+00	3.996491e+00	1.426721e+00	-4.925170e-01	-4.651652e-01	1.304042e-01	7.764973e+00	9.438427e+00	8.093759e+00	3.970777e+00	6.952968e+00	4.149008e+00	1.683620e+00	1.252991e+00	1.001847e+01	2.286298e+00	1.139655e+00	3.023644e+00	5.527271e+00	1.314996e-01	7.073983e-01	4.249928e+00	4.586121e-01	1.767645e+00	-2.703945e-02	-7.822721e-01	5.250965e-01	1.586203e+00	8.027571e-01	7.078277e+00	1.844855e+00	8.410974e+00	7.088803e-01	4.081066e+00	4.658001e+00	4.325524e-01	9.968656e-01	6.359205e+00	4.371224e+00	6.578680e+00	4.807921e+00	4.567580e+00	1.303757e+00	4.814894e+00	9.119388e-01	1.999187e+00	-5.043038e-01	4.590596e+00	4.645417e-02	3.376712e+00	9.090033e+00	4.940548e+00	2.897448e+00	
SCALARS Energy float 1
LOOKUP_TABLE default