# vtk DataFile Version 3.0
vtk output
ASCII
DATASET UNSTRUCTURED_GRID
POINTS 394 float
-3.000000e+00	0.000000e+00	0.0	-5.000000e-02	2.084143e-17	0.0	2.529193e-01	1.019350e+00	0.0	3.529725e-01	9.808115e-01	0.0	5.000000e-02	-8.709419e-18	0.0	3.000000e+00	0.000000e+00	0.0	3.000000e+00	4.000000e+00	0.0	-3.000000e+00	4.000000e+00	0.0	-3.000000e+00	3.428571e+00	0.0	-3.000000e+00	2.857143e+00	0.0	-3.000000e+00	2.285714e+00	0.0	-3.000000e+00	1.714286e+00	0.0	-3.000000e+00	1.142857e+00	0.0	-3.000000e+00	5.714286e-01	0.0	-2.473871e+00	0.000000e+00	0.0	-2.029066e+00	0.000000e+00	0.0	-1.653013e+00	0.000000e+00	0.0	-1.335087e+00	0.000000e+00	0.0	-1.066302e+00	0.000000e+00	0.0	-8.390627e-01	0.000000e+00	0.0	-6.469477e-01	0.000000e+00	0.0	-4.845277e-01	0.000000e+00	0.0	-3.472127e-01	0.000000e+00	0.0	-2.311224e-01	0.000000e+00	0.0	-1.329760e-01	0.000000e+00	0.0	-4.552624e-02	8.143997e-02	0.0	-3.510029e-02	1.622112e-01	0.0	-1.932225e-02	2.422379e-01	0.0	7.001923e-04	3.216067e-01	0.0	2.401041e-02	4.003945e-01	0.0	4.975910e-02	4.786721e-01	0.0	7.720122e-02	5.565146e-01	0.0	1.057139e-01	6.340090e-01	0.0	1.348198e-01	7.112561e-01	0.0	1.642137e-01	7.883532e-01	0.0	1.937182e-01	8.653879e-01	0.0	2.233517e-01	9.423698e-01	0.0	3.029479e-01	1.000129e+00	0.0	3.232826e-01	9.039057e-01	0.0	2.937043e-01	8.269828e-01	0.0	2.641855e-01	7.501015e-01	0.0	2.347998e-01	6.732963e-01	0.0	2.057006e-01	5.966511e-01	0.0	1.771961e-01	5.202686e-01	0.0	1.497609e-01	4.442501e-01	0.0	1.240188e-01	3.686826e-01	0.0	1.007142e-01	2.936396e-01	0.0	8.069698e-02	2.191906e-01	0.0	6.492856e-02	1.454057e-01	0.0	5.444715e-02	7.234534e-02	0.0	1.329760e-01	0.000000e+00	0.0	2.311224e-01	0.000000e+00	0.0	3.472127e-01	0.000000e+00	0.0	4.845277e-01	0.000000e+00	0.0	6.469477e-01	0.000000e+00	0.0	8.390627e-01	0.000000e+00	0.0	1.066302e+00	0.000000e+00	0.0	1.335087e+00	0.000000e+00	0.0	1.653013e+00	0.000000e+00	0.0	2.029066e+00	0.000000e+00	0.0	2.473871e+00	0.000000e+00	0.0	3.000000e+00	5.714286e-01	0.0	3.000000e+00	1.142857e+00	0.0	3.000000e+00	1.714286e+00	0.0	3.000000e+00	2.285714e+00	0.0	3.000000e+00	2.857143e+00	0.0	3.000000e+00	3.428571e+00	0.0	2.400000e+00	4.000000e+00	0.0	1.800000e+00	4.000000e+00	0.0	1.200000e+00	4.000000e+00	0.0	6.000000e-01	4.000000e+00	0.0	0.000000e+00	4.000000e+00	0.0	-6.000000e-01	4.000000e+00	0.0	-1.200000e+00	4.000000e+00	0.0	-1.800000e+00	4.000000e+00	0.0	-2.400000e+00	4.000000e+00	0.0	1.162934e-01	9.192960e-01	0.0	3.556077e-01	8.569595e-01	0.0	-1.467768e+00	2.769937e-01	0.0	1.524637e+00	1.998976e-01	0.0	2.352653e-01	5.456453e-01	0.0	2.654433e-03	6.089340e-01	0.0	-7.308300e-01	1.889199e-01	0.0	7.693692e-01	1.310515e-01	0.0	-2.554797e+00	2.095152e+00	0.0	2.574462e+00	1.917946e+00	0.0	-8.607094e-01	3.517874e+00	0.0	9.963072e-01	3.447905e+00	0.0	1.690852e-01	3.243154e-01	0.0	-6.759739e-02	3.683732e-01	0.0	-4.043299e-01	1.293258e-01	0.0	4.296704e-01	9.277627e-02	0.0	2.961371e-01	6.978619e-01	0.0	5.508705e-02	7.650382e-01	0.0	1.431751e-01	1.807868e-01	0.0	-1.016058e-01	2.097235e-01	0.0	2.551294e+00	7.785493e-01	0.0	-2.485365e+00	8.112282e-01	0.0	-2.027610e+00	3.465232e+00	0.0	2.106043e+00	3.423703e+00	0.0	-1.792596e-01	8.271377e-02	0.0	1.896681e-01	6.706138e-02	0.0	2.247035e+00	3.663126e-01	0.0	-2.241143e+00	3.735162e-01	0.0	2.525334e+00	1.365436e+00	0.0	2.181664e+00	1.660538e+00	0.0	2.165377e+00	2.078381e+00	0.0	1.849499e+00	1.811917e+00	0.0	1.824097e+00	1.406519e+00	0.0	1.564117e+00	1.606011e+00	0.0	1.541114e+00	1.957178e+00	0.0	1.311851e+00	1.744789e+00	0.0	1.315375e+00	1.442458e+00	0.0	1.107543e+00	1.562359e+00	0.0	1.108258e+00	1.311870e+00	0.0	9.176711e-01	1.390889e+00	0.0	8.995759e-01	1.656515e+00	0.0	7.352685e-01	1.513945e+00	0.0	7.015106e-01	1.752402e+00	0.0	5.461641e-01	1.638474e+00	0.0	4.991674e-01	1.855292e+00	0.0	3.521531e-01	1.734234e+00	0.0	2.819539e-01	1.958833e+00	0.0	1.232818e-01	1.793751e+00	0.0	9.449155e-01	1.176413e+00	0.0	1.261656e+00	2.087595e+00	0.0	4.887384e-01	2.121779e+00	0.0	1.080217e+00	1.062917e+00	0.0	9.161596e-01	9.878447e-01	0.0	3.078100e-02	2.076502e+00	0.0	-1.774038e-01	1.923448e+00	0.0	-8.181715e-02	1.647983e+00	0.0	-3.997275e-01	1.772928e+00	0.0	-3.319934e-01	1.532386e+00	0.0	-6.210290e-01	1.615441e+00	0.0	-6.489425e-01	1.852235e+00	0.0	-5.650558e-01	1.370108e+00	0.0	-8.665595e-01	1.449169e+00	0.0	8.003769e-01	1.071703e+00	0.0	7.721716e-01	9.025237e-01	0.0	8.827091e-01	8.099065e-01	0.0	-2.612362e-01	2.210411e+00	0.0	7.311683e-01	7.308454e-01	0.0	4.007246e-01	1.507946e+00	0.0	3.062642e-01	1.049703e+00	0.0	3.663919e-01	1.024688e+00	0.0	3.349273e-01	1.098694e+00	0.0	4.023050e-01	1.088508e+00	0.0	-1.689063e-02	2.386899e+00	0.0	-8.184008e-01	1.186112e+00	0.0	-1.128342e+00	1.264085e+00	0.0	-5.292565e-01	1.109766e+00	0.0	-8.239494e-01	9.070230e-01	0.0	-5.500391e-01	8.823686e-01	0.0	-1.180063e+00	1.562762e+00	0.0	8.411698e-01	6.383451e-01	0.0	1.004193e+00	7.107982e-01	0.0	6.847122e-01	5.767562e-01	0.0	-9.284184e-02	1.411824e+00	0.0	1.500982e+00	2.320989e+00	0.0	2.582559e-01	1.105100e+00	0.0	2.968300e-01	1.171954e+00	0.0	4.272393e-01	1.003125e+00	0.0	4.779017e-01	1.075178e+00	0.0	4.404474e-01	1.163420e+00	0.0	5.023858e-01	9.767246e-01	0.0	9.570884e-01	5.374050e-01	0.0	1.155627e+00	6.263108e-01	0.0	2.018196e-01	1.179309e+00	0.0	-3.333402e-01	9.990107e-01	0.0	-3.467668e-01	8.212469e-01	0.0	-5.293322e-01	6.877291e-01	0.0	-3.294968e-01	6.521778e-01	0.0	-1.465252e+00	1.351972e+00	0.0	5.404938e-01	1.160116e+00	0.0	-3.477227e-01	2.531038e+00	0.0	-7.655433e-02	2.746294e+00	0.0	5.881070e-01	6.551453e-01	0.0	5.392382e-01	5.139029e-01	0.0	2.507593e-01	1.263656e+00	0.0	6.333415e-01	4.358266e-01	0.0	4.884171e-01	3.819677e-01	0.0	1.189300e+00	2.465483e+00	0.0	-1.525989e+00	1.687684e+00	0.0	1.443806e+00	2.710579e+00	0.0	5.760557e-01	3.055014e-01	0.0	1.092654e+00	3.723357e-01	0.0	-1.399328e+00	1.057712e+00	0.0	-4.990620e-01	5.138848e-01	0.0	-6.661847e-01	5.425736e-01	0.0	-3.487645e-01	4.750098e-01	0.0	-1.545674e-01	9.432009e-01	0.0	-1.641609e-01	1.093874e+00	0.0	-1.924297e+00	1.458460e+00	0.0	4.514969e-01	5.917760e-01	0.0	5.094178e-01	7.279932e-01	0.0	7.343205e-01	3.538788e-01	0.0	-2.140882e-01	5.675138e-01	0.0	8.404840e-01	1.930742e+00	0.0	1.307822e+00	5.367468e-01	0.0	1.358622e+00	7.500310e-01	0.0	1.535645e+00	6.111307e-01	0.0	1.598990e+00	8.838202e-01	0.0	1.845040e+00	7.509730e-01	0.0	4.828751e-01	1.263421e+00	0.0	5.981851e-01	1.256503e+00	0.0	-4.782731e-01	3.492653e-01	0.0	-3.146852e-01	1.335509e+00	0.0	-6.128920e-01	2.323160e+00	0.0	-7.236867e-01	2.678602e+00	0.0	-1.016739e+00	2.460904e+00	0.0	-1.127054e+00	2.821958e+00	0.0	-1.503299e+00	2.497557e+00	0.0	-2.168543e-01	4.219306e-01	0.0	1.333241e-01	1.268511e+00	0.0	1.781515e-01	1.373433e+00	0.0	9.212738e-02	1.174995e+00	0.0	2.940785e-01	2.558817e+00	0.0	2.489316e-01	3.019584e+00	0.0	6.029387e-01	2.765319e+00	0.0	-1.225738e+00	1.896667e+00	0.0	6.735994e-01	9.873509e-01	0.0	-1.925579e-01	3.163435e+00	0.0	-1.891720e-01	7.861275e-01	0.0	4.349608e-01	2.609850e-01	0.0	3.370262e-01	3.303456e-01	0.0	3.059162e-01	2.288004e-01	0.0	1.609098e-01	1.107611e+00	0.0	6.244747e-02	1.081741e+00	0.0	1.789731e+00	2.564970e+00	0.0	1.501409e+00	1.291531e+00	0.0	2.506707e+00	2.487610e+00	0.0	1.035636e+00	2.888532e+00	0.0	-1.589875e+00	2.053021e+00	0.0	3.896663e-01	4.549209e-01	0.0	2.764834e-01	4.074202e-01	0.0	1.230067e+00	1.803486e-01	0.0	-6.334703e-02	8.606178e-01	0.0	-1.248216e-01	5.039023e-01	0.0	4.431569e-01	3.517235e+00	0.0	-3.348952e-01	3.275473e-01	0.0	-2.210628e-01	2.947552e-01	0.0	6.323976e-01	8.289922e-01	0.0	2.182347e+00	1.020051e+00	0.0	-1.604014e+00	3.036722e+00	0.0	-1.960243e+00	2.688917e+00	0.0	5.324627e-01	1.381388e+00	0.0	-2.458581e+00	1.329065e+00	0.0	7.573267e-01	1.313960e+00	0.0	-1.179364e+00	2.486255e-01	0.0	-1.274630e+00	5.202916e-01	0.0	-1.563127e+00	5.705444e-01	0.0	-1.001323e+00	4.931110e-01	0.0	-1.088790e+00	7.513670e-01	0.0	1.730565e+00	3.021249e+00	0.0	1.269081e-01	1.606274e+00	0.0	5.290124e-01	8.593287e-01	0.0	5.802113e-03	1.266438e+00	0.0	-3.369385e-02	9.502058e-01	0.0	4.221934e-01	7.896929e-01	0.0	-6.819653e-02	7.375426e-01	0.0	-5.470979e-01	1.905802e-01	0.0	5.832050e-01	1.043906e-01	0.0	9.912919e-01	1.700490e-01	0.0	-9.381269e-01	2.197846e-01	0.0	1.850715e+00	2.485453e-01	0.0	3.020700e-01	7.919628e-02	0.0	-2.767287e-01	1.052912e-01	0.0	-1.440321e+00	3.535268e+00	0.0	3.123545e-01	1.368788e+00	0.0	2.553051e+00	3.095742e+00	0.0	3.504099e-01	5.325526e-01	0.0	-1.819050e+00	3.209818e-01	0.0	-1.941008e+00	7.241393e-01	0.0	1.429013e+00	1.014612e+00	0.0	3.616159e-01	6.330493e-01	0.0	4.382369e-01	9.026390e-01	0.0	9.517226e-01	2.215250e+00	0.0	-2.499392e+00	2.541742e+00	0.0	1.503814e+00	3.502657e+00	0.0	-1.033450e-01	6.261793e-01	0.0	3.767275e-01	9.441726e-01	0.0	-2.429696e+00	3.083799e+00	0.0	8.493876e-02	8.411912e-01	0.0	8.705493e-01	2.708696e-01	0.0	6.287874e-01	2.407570e+00	0.0	-7.932406e-01	3.701517e-01	0.0	2.693232e-02	6.874759e-01	0.0	3.266602e-01	7.748409e-01	0.0	-2.107726e+00	1.091229e+00	0.0	2.642688e-01	6.248377e-01	0.0	-3.028599e-02	5.380916e-01	0.0	2.127305e-01	4.707673e-01	0.0	1.192218e+00	8.640106e-01	0.0	1.895004e-01	3.946889e-01	0.0	-8.325262e-02	2.871489e-01	0.0	1.512256e-01	2.519624e-01	0.0	2.351741e-01	2.794488e-01	0.0	-5.271373e-02	4.510742e-01	0.0	2.358113e-01	1.465040e-01	0.0	-1.965262e-01	1.880566e-01	0.0	-7.283670e-01	7.048274e-01	0.0	-3.051167e-02	1.154929e+00	0.0	2.160677e+00	6.878082e-01	0.0	6.764586e-01	1.144100e+00	0.0	1.873915e+00	1.083369e+00	0.0	2.560233e-01	1.058778e+00	0.0	7.905811e-01	4.915331e-01	0.0	-6.204900e-01	3.613330e-01	0.0	3.741212e-01	7.266502e-01	0.0	1.368694e-01	1.038268e+00	0.0	1.243670e-01	1.074369e-01	0.0	-1.086289e-01	1.251459e-01	0.0	-1.861668e+00	1.827881e+00	0.0	-2.012473e+00	2.207209e+00	0.0	-3.063669e-01	1.166086e+00	0.0	-8.044692e-01	3.076611e+00	0.0	3.531144e-01	1.246458e+00	0.0	1.273897e+00	1.163904e+00	0.0	-4.468131e-01	2.911871e+00	0.0	1.016690e+00	8.849969e-01	0.0	8.845108e-01	2.548056e+00	0.0	6.705695e-01	3.127720e+00	0.0	-1.105027e+00	9.905468e-01	0.0	2.138572e+00	2.836653e+00	0.0	1.356249e+00	3.116251e+00	0.0	-1.329422e
[...]
POINT_DATA 394

SCALARS Density float 1
LOOKUP_TABLE default
1.223723e+00	1.223970e+00	1.221635e+00	1.221657e+00	1.223217e+00	1.223557e+00	1.223274e+00	1.223588e+00	1.223571e+00	1.223584e+00	1.223628e+00	1.223657e+00	1.223726e+00	1.223732e+00	1.223745e+00	1.223735e+00	1.223768e+00	1.223791e+00	1.223834e+00	1.223861e+00	1.223883e+00	1.223944e+00	1.223920e+00	1.224016e+00	1.223918e+00	1.224049e+00	1.223927e+00	1.223943e+00	1.223935e+00	1.223903e+00	1.223882e+00	1.223834e+00	1.223821e+00	1.223730e+00	1.223815e+00	1.222951e+00	1.224936e+00	1.219675e+00	1.223646e+00	1.223177e+00	1.223185e+00	1.223152e+00	1.223096e+00	1.223067e+00	1.223060e+00	1.223063e+00	1.223087e+00	1.223126e+00	1.223056e+00	1.223289e+00	1.223073e+00	1.223187e+00	1.223111e+00	1.223051e+00	1.223009e+00	1.222980e+00	1.222894e+00	1.222921e+00	1.222939e+00	1.223093e+00	1.222632e+00	1.223289e+00	1.223016e+00	1.222860e+00	1.222808e+00	1.222948e+00	1.223102e+00	1.223103e+00	1.223234e+00	1.223267e+00	1.223349e+00	1.223405e+00	1.223489e+00	1.223543e+00	1.223577e+00	1.223576e+00	1.223056e+00	1.223499e+00	1.223778e+00	1.222873e+00	1.223106e+00	1.223784e+00	1.223855e+00	1.222945e+00	1.223626e+00	1.223277e+00	1.223511e+00	1.223306e+00	1.223088e+00	1.223896e+00	1.223931e+00	1.223054e+00	1.223243e+00	1.223568e+00	1.223182e+00	1.223949e+00	1.222884e+00	1.223725e+00	1.223597e+00	1.223132e+00	1.223975e+00	1.223156e+00	1.223040e+00	1.223718e+00	1.222902e+00	1.222835e+00	1.223088e+00	1.223056e+00	1.222921e+00	1.222950e+00	1.222996e+00	1.223217e+00	1.222742e+00	1.222819e+00	1.222821e+00	1.222980e+00	1.222832e+00	1.223147e+00	1.223109e+00	1.223259e+00	1.223176e+00	1.223236e+00	1.223453e+00	1.223329e+00	1.222808e+00	1.223007e+00	1.223260e+00	1.222624e+00	1.222794e+00	1.223415e+00	1.223503e+00	1.223514e+00	1.223451e+00	1.223598e+00	1.223667e+00	1.223554e+00	1.223646e+00	1.223641e+00	1.222949e+00	1.222851e+00	1.222930e+00	1.223512e+00	1.222953e+00	1.223194e+00	1.221466e+00	1.221603e+00	1.222620e+00	1.222723e+00	1.223409e+00	1.223711e+00	1.223701e+00	1.223755e+00	1.223765e+00	1.223784e+00	1.223660e+00	1.222854e+00	1.222682e+00	1.222955e+00	1.223530e+00	1.223198e+00	1.221617e+00	1.223134e+00	1.222661e+00	1.222645e+00	1.222512e+00	1.222881e+00	1.222892e+00	1.222817e+00	1.223111e+00	1.223737e+00	1.223767e+00	1.223814e+00	1.223788e+00	1.223681e+00	1.222586e+00	1.223475e+00	1.223458e+00	1.223093e+00	1.223010e+00	1.223092e+00	1.222970e+00	1.223034e+00	1.223283e+00	1.223653e+00	1.223174e+00	1.223048e+00	1.222777e+00	1.223732e+00	1.223848e+00	1.223865e+00	1.223931e+00	1.223697e+00	1.223614e+00	1.223691e+00	1.223060e+00	1.223126e+00	1.222915e+00	1.223875e+00	1.223355e+00	1.222686e+00	1.222872e+00	1.222647e+00	1.222659e+00	1.222796e+00	1.222781e+00	1.222744e+00	1.223919e+00	1.223538e+00	1.223529e+00	1.223513e+00	1.223578e+00	1.223556e+00	1.223619e+00	1.223878e+00	1.223151e+00	1.223478e+00	1.223458e+00	1.223333e+00	1.223370e+00	1.223406e+00	1.223626e+00	1.222729e+00	1.223404e+00	1.223838e+00	1.223027e+00	1.223049e+00	1.223087e+00	1.223717e+00	1.223053e+00	1.223092e+00	1.222700e+00	1.223292e+00	1.223290e+00	1.223642e+00	1.223103e+00	1.222996e+00	1.222697e+00	1.223649e+00	1.223977e+00	1.223400e+00	1.223907e+00	1.223943e+00	1.222887e+00	1.222713e+00	1.223551e+00	1.223589e+00	1.222619e+00	1.223669e+00	1.222864e+00	1.223817e+00	1.223840e+00	1.223708e+00	1.223812e+00	1.223744e+00	1.223258e+00	1.223511e+00	1.222961e+00	1.223434e+00	1.223675e+00	1.223211e+00	1.223843e+00	1.223954e+00	1.223021e+00	1.222922e+00	1.223854e+00	1.222721e+00	1.223183e+00	1.223990e+00	1.223552e+00	1.223037e+00	1.223164e+00	1.223147e+00	1.223773e+00	1.223718e+00	1.222768e+00	1.223091e+00	1.222835e+00	1.223222e+00	1.223627e+00	1.223236e+00	1.223789e+00	1.222917e+00	1.223612e+00	1.224004e+00	1.222912e+00	1.223341e+00	1.223829e+00	1.223816e+00	1.223181e+00	1.223688e+00	1.223173e+00	1.223826e+00	1.223097e+00	1.222769e+00	1.223093e+00	1.223932e+00	1.223104e+00	1.223042e+00	1.223840e+00	1.223030e+00	1.223973e+00	1.223793e+00	1.223609e+00	1.222716e+00	1.222809e+00	1.223100e+00	1.225051e+00	1.222941e+00	1.223911e+00	1.223081e+00	1.223419e+00	1.223095e+00	1.223950e+00	1.223637e+00	1.223641e+00	1.223678e+00	1.223511e+00	1.222665e+00	1.222867e+00	1.223469e+00	1.222703e+00	1.223240e+00	1.223278e+00	1.223777e+00	1.223306e+00	1.223244e+00	1.223942e+00	1.223561e+00	1.223504e+00	1.223059e+00	1.223562e+00	1.222744e+00	1.223153e+00	1.223894e+00	1.222993e+00	1.223361e+00	1.223047e+00	1.223370e+00	1.223743e+00	1.222940e+00	1.223325e+00	1.223629e+00	1.222795e+00	1.223744e+00	1.223031e+00	1.222219e+00	1.223751e+00	1.223815e+00	1.223279e+00	1.223412e+00	1.222498e+00	1.223615e+00	1.223067e+00	1.223599e+00	1.223841e+00	1.225351e+00	1.223946e+00	1.223736e+00	1.223033e+00	1.223219e+00	1.223562e+00	1.223415e+00	1.223808e+00	1.223030e+00	1.223951e+00	1.222855e+00	1.222802e+00	1.223578e+00	1.222800e+00	1.223573e+00	1.223306e+00	1.223814e+00	1.223794e+00	1.223693e+00	1.223016e+00	1.223020e+00	1.223979e+00	1.223259e+00	1.223462e+00	1.223148e+00	1.223616e+00	1.222744e+00	1.223429e+00	1.223157e+00	1.223044e+00	1.223468e+00	1.223770e+00	1.222827e+00	1.223170e+00	1.222569e+00	1.223283e+00	1.222938e+00	1.223728e+00	1.222708e+00	
SCALARS X-Momentum float 1
LOOKUP_TABLE default
8.590959e+00	3.422458e-01	6.101061e+00	-1.657354e-01	-6.465598e-01	-4.697397e+00	1.620760e+01	1.030873e+01	1.016603e+01	9.947891e+00	9.678594e+00	9.365710e+00	9.065813e+00	8.781543e+00	8.434242e+00	8.120527e+00	7.644456e+00	7.033082e+00	6.337133e+00	5.547288e+00	4.667798e+00	3.824447e+00	2.874791e+00	1.956640e+00	1.068814e+00	3.924522e-02	2.848772e-01	6.269949e-01	9.985133e-01	1.394726e+00	1.782335e+00	2.155134e+00	2.521519e+00	2.871947e+00	3.145242e+00	3.130696e+00	2.892988e+00	4.381545e+00	5.231230e-01	7.129890e-01	1.114595e+00	1.371105e+00	1.543647e+00	1.621483e+00	1.552979e+00	1.368436e+00	1.111400e+00	7.874573e-01	4.814671e-01	2.392514e-01	-2.083551e+00	-3.756172e+00	-5.156051e+00	-6.397821e+00	-7.395897e+00	-8.124202e+00	-8.630057e+00	-8.848795e+00	-8.299074e+00	-7.344314e+00	-6.361347e+00	-8.054039e-01	4.762711e+00	1.021013e+01	1.411651e+01	1.600085e+01	1.641544e+01	1.553002e+01	1.467709e+01	1.375922e+01	1.299496e+01	1.234756e+01	1.175203e+01	1.120635e+01	1.075409e+01	1.045074e+01	3.707440e+00	1.428698e+00	7.511404e+00	-6.008423e+00	1.555324e+00	3.126336e+00	5.343461e+00	-5.836518e+00	9.602082e+00	1.256170e+01	1.134792e+01	1.385534e+01	7.481011e-01	1.935993e+00	3.429335e+00	-4.394099e+00	1.654215e+00	3.778769e+00	-1.663381e-01	1.219083e+00	1.097202e+00	8.786754e+00	1.043529e+01	1.552402e+01	1.506784e+00	-2.065364e+00	-3.203052e+00	8.448459e+00	7.448913e+00	1.100479e+01	1.414681e+01	1.304212e+01	9.072777e+00	1.183533e+01	1.451790e+01	1.363154e+01	1.050333e+01	1.237497e+01	8.897510e+00	1.062955e+01	1.382246e+01	1.287409e+01	1.456186e+01	1.415576e+01	1.444893e+01	1.394858e+01	1.356762e+01	1.274632e+01	6.972608e+00	1.522834e+01	1.412022e+01	5.237800e+00	4.130833e+00	1.244983e+01	1.155989e+01	1.141890e+01	1.063714e+01	1.013431e+01	9.875437e+00	1.029117e+01	9.184216e+00	9.234626e+00	4.999092e+00	2.856313e+00	2.094000e+00	1.158675e+01	1.550849e+00	1.367609e+01	5.695141e+00	2.308462e+00	6.659696e+00	4.639090e+00	1.231603e+01	8.520668e+00	8.773942e+00	8.202650e+00	7.604576e+00	7.116164e+00	9.334197e+00	4.716954e-01	9.353912e-01	4.035942e-01	1.056576e+01	1.554976e+01	9.400811e+00	1.037428e+01	1.915900e+00	4.031674e+00	7.477165e+00	2.367745e+00	-1.080540e+00	-4.953715e-01	1.115932e+01	7.496464e+00	6.391945e+00	6.160110e+00	5.259856e+00	8.978888e+00	6.545328e+00	1.160599e+01	1.221413e+01	1.437004e+00	4.687295e-01	1.222273e+01	-8.530608e-01	-6.632439e-01	1.531146e+01	9.433442e+00	1.535833e+01	-2.156004e+00	-3.336057e+00	8.474105e+00	5.292672e+00	5.990355e+00	4.407294e+00	6.609759e+00	7.961007e+00	9.143705e+00	1.454066e+00	2.023987e+00	-2.368412e+00	4.187933e+00	1.494714e+01	-1.788486e+00	9.017552e-01	-9.954465e-01	2.441887e+00	7.001940e-01	1.018140e+01	9.326506e+00	4.532107e+00	9.331660e+00	1.098618e+01	1.112992e+01	1.060184e+01	1.075534e+01	1.023105e+01	3.348804e+00	1.156268e+01	1.254202e+01	1.003332e+01	1.308646e+01	1.280879e+01	1.376840e+01	9.816651e+00	3.409767e+00	1.207591e+01	5.538052e+00	-1.777956e+00	-3.069400e-01	-1.209045e+00	9.521031e+00	7.953330e+00	1.566189e+01	8.143303e+00	1.536047e+01	1.450376e+01	9.819911e+00	6.264608e-01	7.577490e-01	-6.253569e+00	5.424626e+00	3.298407e+00	1.295859e+01	3.660567e+00	2.697292e+00	2.228901e+00	3.755069e+00	1.048120e+01	1.011357e+01	1.217314e+01	9.111714e+00	9.808628e+00	6.905895e+00	7.444538e+00	7.955058e+00	6.828738e+00	7.518323e+00	1.535213e+01	1.262887e+01	2.181917e+00	1.038468e+01	6.005776e+00	2.018834e+00	4.496534e+00	4.436768e+00	-5.260177e+00	-6.051646e+00	6.185543e+00	-5.044383e+00	-3.308878e+00	2.429718e+00	1.083268e+01	1.312968e+01	1.613909e+01	1.361331e+00	8.048221e+00	8.460276e+00	4.405328e+00	1.742164e+00	1.782092e+00	1.512405e+01	9.864341e+00	1.464891e+01	3.869615e+00	8.793794e-01	1.014074e+01	3.999366e+00	-4.026378e+00	1.418305e+01	6.014154e+00	3.478415e+00	1.546105e+00	8.842353e+00	1.635798e+00	2.825973e+00	1.357866e+00	2.688690e+00	1.089189e+00	1.532973e+00	3.396342e-01	-8.710723e-02	2.384825e+00	-1.542950e+00	1.949843e+00	6.727490e+00	8.862037e+00	1.597702e-02	6.236791e+00	4.911732e+00	8.255978e+00	-9.775225e-01	5.260798e+00	1.931874e+00	6.982816e+00	-6.212784e-01	9.189541e-01	9.521060e+00	9.779696e+00	8.468146e+00	1.124038e+01	1.113114e+01	6.630459e+00	1.163166e+01	2.878193e+00	1.470309e+01	1.353019e+01	8.139486e+00	1.580682e+01	1.476691e+01	2.737721e+00	1.084838e+01	1.192288e+01	1.510915e+01	1.034701e+01	3.789226e+00	1.464180e+01	2.983455e+00	-3.395168e+00	1.477665e+01	-2.656906e+00	1.317906e+01	8.700504e+00	-3.866473e+00	1.319796e+01	9.803226e+00	2.555897e+00	7.963381e+00	-2.992713e+00	-3.245675e+00	8.627122e+00	4.899630e+00	5.561861e+00	1.150632e+01	8.425443e+00	9.230787e+00	1.156353e+01	1.016807e+01	3.869701e+00	4.566253e+00	2.387073e+00	8.317347e+00	-5.271022e-01	1.276221e+01	1.027769e+01	1.239127e+01	4.735228e+00	1.602587e+01	1.967540e+00	-3.838485e+00	-2.090943e+00	1.027497e+01	-2.412625e+00	1.090838e+01	1.200226e+01	6.509237e+00	7.253316e+00	9.412620e+00	4.718522e-01	1.229974e+00	6.941425e-01	-9.246534e-01	1.354607e+01	1.474228e+01	4.546364e+00	1.322921e+01	8.811536e+00	1.555369e+01	1.573379e+00	1.163875e+01	7.035034e+00	7.604505e+00	1.962871e+00	5.670010e+00	1.360033e+01	8.597495e+00	3.835520e+00	7.680070e+00	
SCALARS Y-Momentum float 1
LOOKUP_TABLE default
-2.138352e-02	3.361573e-01	6.840087e+00	-8.737370e-01	6.160576e-01	2.331676e-01	5.817571e-02	-1.290762e-02	1.768760e-02	4.611758e-02	6.355339e-02	8.135430e-02	6.848287e-02	1.305173e-02	-4.114756e-03	-2.815708e-04	5.901469e-03	4.850313e-03	1.065787e-02	1.320971e-02	-3.486965e-03	1.594767e-02	4.283372e-03	7.112557e-03	-2.772220e-02	1.085097e+00	1.955156e+00	2.816368e+00	3.726906e+00	4.611039e+00	5.449826e+00	6.263923e+00	7.099932e+00	8.006280e+00	8.787456e+00	9.164936e+00	9.622805e+00	-1.913985e+00	1.567167e+00	2.563505e+00	3.454599e+00	4.128909e+00	4.545051e+00	4.742979e+00	4.692985e+00	4.429741e+00	3.997905e+00	3.392126e+00	2.655765e+00	1.696866e+00	-3.216666e-03	3.421832e-02	2.636085e-02	7.706076e-03	2.124494e-03	9.594552e-03	1.354319e-02	1.387316e-03	-5.027308e-02	-7.462377e-02	-1.026240e-01	-5.663952e-01	-6.005728e-01	-1.563958e-01	5.320317e-01	7.790818e-01	4.694082e-01	1.329900e-02	2.049140e-04	-1.117718e-02	-4.099703e-02	-2.583394e-02	-4.525421e-03	-4.850729e-03	3.174770e-03	-2.654536e-03	9.445490e+00	2.995133e+00	5.096386e-01	-2.676407e-01	4.328255e+00	6.153536e+00	8.481508e-01	5.299275e-01	4.090075e-01	2.106191e-01	4.683511e-01	8.152042e-01	3.783121e+00	3.816458e+00	8.972399e-01	7.703761e-01	3.871296e+00	7.689900e+00	2.652119e+00	2.226835e+00	-9.366428e-01	3.418555e-01	2.722496e-01	7.992294e-01	7.483971e-01	9.867849e-01	-6.913973e-01	2.588920e-01	-5.974037e-01	-3.028812e-02	8.238469e-01	8.302756e-01	2.010941e-02	9.084700e-01	1.721418e+00	1.873919e+00	1.165146e+00	2.092738e+00	1.566375e+00	2.392221e+00	3.166267e+00	3.608339e+00	4.197049e+00	4.800269e+00	4.693829e+00	5.431635e+00	4.472507e+00	5.152983e+00	1.887142e+00	2.478359e+00	3.867703e+00	1.503718e+00	2.157116e+00	3.708987e+00	3.818210e+00	5.258708e+00	3.638126e+00	4.460746e+00	3.216485e+00	2.756037e+00	3.705406e+00	2.667053e+00	2.418735e+00	2.957768e+00	2.474907e+00	2.791185e+00	3.180976e+00	5.580072e+00	8.613663e-01	8.011483e-01	2.190133e+00	1.802201e+00	2.638085e+00	2.839864e+00	2.117750e+00	3.927444e+00	2.657600e+00	3.606843e+00	1.982906e+00	2.424410e+00	1.806357e+00	2.893791e+00	6.445852e+00	2.035907e+00	6.293366e+00	5.468726e+00	2.382167e+00	2.594680e+00	2.878755e+00	3.366283e+00	1.576268e+00	9.191341e-01	8.766056e+00	5.032623e+00	4.584501e+00	3.301131e+00	4.071161e+00	1.549184e+00	2.723914e+00	1.982952e+00	1.742285e+00	3.627432e+00	3.198901e+00	7.613775e+00	2.431399e+00	2.699472e+00	2.397877e+00	1.437145e+00	1.854476e+00	1.874469e+00	6.516304e-01	1.546583e+00	2.812488e+00	2.345157e+00	3.158273e+00	6.518998e+00	6.833765e+00	1.002607e+00	3.810283e+00	4.052004e+00	1.652972e+00	4.236722e+00	3.610020e+00	2.427880e-01	2.823443e-01	-1.902328e-01	-2.733441e-01	-7.795338e-01	3.590461e+00	2.970649e+00	2.110473e+00	5.071220e+00	2.084012e+00	1.493918e+00	1.550840e+00	1.089054e+00	1.092558e+00	3.344309e+00	8.993689e+00	7.923025e+00	9.986222e+00	2.435737e+00	1.354798e+00	2.077044e+00	1.775338e+00	3.106191e+00	1.005108e+00	5.544706e+00	2.134005e+00	3.037753e+00	2.421944e+00	1.030310e+01	1.047732e+01	1.663615e+00	4.188129e-01	9.832059e-01	1.798426e+00	1.267892e+00	3.504886e+00	3.764663e+00	8.587878e-02	7.146993e+00	4.443990e+00	6.293254e-01	2.352773e+00	2.452903e+00	3.766389e+00	-1.006021e+00	6.699532e-01	6.400253e-01	4.158595e+00	4.816282e-01	2.614293e+00	6.258836e-01	1.113551e+00	8.711437e-01	1.416098e+00	1.772385e+00	1.387176e+00	6.301864e+00	4.030055e+00	8.483352e+00	8.360257e+00	3.835513e+00	6.377247e+00	1.035974e+00	6.338897e-01	3.715055e-01	7.434722e-01	-4.783978e-01	9.453733e-01	8.639843e-01	3.570441e-01	6.624934e+00	9.786223e-01	3.935480e+00	4.003921e-01	6.798290e-01	3.626247e-01	3.994174e+00	3.486468e+00	3.094383e+00	3.818869e-01	7.528507e-01	5.365191e+00	2.174634e+00	2.856127e-01	8.732824e+00	9.869101e-01	3.028283e+00	1.522213e+00	6.895405e+00	3.400195e+00	7.267236e-01	4.168756e+00	5.377161e+00	4.296606e+00	1.109413e+00	4.107814e+00	3.034716e+00	3.307236e+00	3.153280e+00	4.570346e+00	1.931629e+00	1.707731e+00	2.634084e+00	8.774136e+00	-9.975807e-01	2.581811e+00	-6.189085e-01	4.170460e+00	2.081265e+00	1.786094e+00	3.861029e+00	1.125158e+01	1.872103e+00	1.394712e+00	1.034302e+00	7.955552e-01	5.332253e+00	9.721040e-01	4.920010e+00	9.672003e-01	1.317505e+00	1.851540e+00	2.552362e+00	1.309113e+00	2.036624e+00	1.362231e+00	1.359180e+00	3.817099e+00	2.766775e+00	4.542130e-01	1.509924e+00	2.091185e+00	3.004982e+00	2.799685e+00	1.673585e+00	1.336346e+00	3.702339e+00	1.611620e+00	3.416698e+00	1.096728e+00	1.155395e+00	6.880285e+00	2.392645e+00	3.687811e+00	1.392458e+00	-5.245057e-01	-5.211203e-01	1.145713e-01	8.770235e+00	1.023639e+01	8.073287e+00	3.145922e+00	6.838441e+00	3.423486e+00	1.532913e+00	1.609959e+00	1.108130e+01	3.145216e+00	1.082000e+00	2.710043e+00	5.055762e+00	1.146591e-01	6.234609e-01	5.027291e+00	4.744911e-01	2.507177e+00	-4.265134e-02	-8.402642e-01	4.705980e-01	1.377715e+00	7.148386e-01	6.975566e+00	1.996334e+00	8.694234e+00	6.434855e-01	3.586977e+00	3.995815e+00	6.406584e-01	9.723384e-01	6.248220e+00	4.151703e+00	7.649586e+00	4.271351e+00	4.432902e+00	1.368467e+00	4.100260e+00	8.034613e-01	2.078674e+00	-6.126426e-01	3.995484e+00	-1.194712e-01	3.186756e+00	8.890841e+00	6.084548e+00	2.185761e+00	
SCALARS Energy float 1
LOOKUP_TABLE default