# vtk DataFile Version 3.0
vtk output
ASCII
DATASET UNSTRUCTURED_GRID
POINTS 394 float
-3.000000e+00	0.000000e+00	0.0	-5.000000e-02	5.108428e-17	0.0	4.234421e-01	1.031519e+00	0.0	5.234927e-01	9.682641e-01	0.0	5.000000e-02	-1.270751e-17	0.0	3.000000e+00	0.000000e+00	0.0	3.000000e+00	4.000000e+00	0.0	-3.000000e+00	4.000000e+00	0.0	-3.000000e+00	3.428571e+00	0.0	-3.000000e+00	2.857143e+00	0.0	-3.000000e+00	2.285714e+00	0.0	-3.000000e+00	1.714286e+00	0.0	-3.000000e+00	1.142857e+00	0.0	-3.000000e+00	5.714286e-01	0.0	-2.473871e+00	0.000000e+00	0.0	-2.029066e+00	0.000000e+00	0.0	-1.653013e+00	0.000000e+00	0.0	-1.335087e+00	0.000000e+00	0.0	-1.066302e+00	0.000000e+00	0.0	-8.390627e-01	0.000000e+00	0.0	-6.469477e-01	0.000000e+00	0.0	-4.845277e-01	0.000000e+00	0.0	-3.472127e-01	0.000000e+00	0.0	-2.311224e-01	0.000000e+00	0.0	-1.329760e-01	0.000000e+00	0.0	-4.379375e-02	8.333780e-02	0.0	-2.896016e-02	1.659211e-01	0.0	-6.098244e-03	2.475769e-01	0.0	2.338000e-02	3.283747e-01	0.0	5.820844e-02	4.083947e-01	0.0	9.725323e-02	4.877310e-01	0.0	1.395336e-01	5.664834e-01	0.0	1.842187e-01	6.447424e-01	0.0	2.306028e-01	7.225932e-01	0.0	2.781104e-01	8.001164e-01	0.0	3.262763e-01	8.774076e-01	0.0	3.748439e-01	9.544956e-01	0.0	4.734691e-01	9.999371e-01	0.0	4.747867e-01	8.914019e-01	0.0	4.262777e-01	8.146127e-01	0.0	3.781037e-01	7.380211e-01	0.0	3.306066e-01	6.616878e-01	0.0	2.842297e-01	5.856978e-01	0.0	2.395517e-01	5.101334e-01	0.0	1.972767e-01	4.350753e-01	0.0	1.582370e-01	3.606105e-01	0.0	1.234118e-01	2.868346e-01	0.0	9.393556e-02	2.138388e-01	0.0	7.108006e-02	1.416949e-01	0.0	5.616577e-02	7.043963e-02	0.0	1.329760e-01	0.000000e+00	0.0	2.311224e-01	0.000000e+00	0.0	3.472127e-01	0.000000e+00	0.0	4.845277e-01	0.000000e+00	0.0	6.469477e-01	0.000000e+00	0.0	8.390627e-01	0.000000e+00	0.0	1.066302e+00	0.000000e+00	0.0	1.335087e+00	0.000000e+00	0.0	1.653013e+00	0.000000e+00	0.0	2.029066e+00	0.000000e+00	0.0	2.473871e+00	0.000000e+00	0.0	3.000000e+00	5.714286e-01	0.0	3.000000e+00	1.142857e+00	0.0	3.000000e+00	1.714286e+00	0.0	3.000000e+00	2.285714e+00	0.0	3.000000e+00	2.857143e+00	0.0	3.000000e+00	3.428571e+00	0.0	2.400000e+00	4.000000e+00	0.0	1.800000e+00	4.000000e+00	0.0	1.200000e+00	4.000000e+00	0.0	6.000000e-01	4.000000e+00	0.0	0.000000e+00	4.000000e+00	0.0	-6.000000e-01	4.000000e+00	0.0	-1.200000e+00	4.000000e+00	0.0	-1.800000e+00	4.000000e+00	0.0	-2.400000e+00	4.000000e+00	0.0	2.499002e-01	9.383769e-01	0.0	4.978820e-01	8.375258e-01	0.0	-1.460903e+00	2.920499e-01	0.0	1.542462e+00	1.834342e-01	0.0	3.057720e-01	5.293043e-01	0.0	7.138928e-02	6.282478e-01	0.0	-7.238482e-01	2.046163e-01	0.0	7.846028e-01	1.161569e-01	0.0	-2.538056e+00	2.106761e+00	0.0	2.612166e+00	1.903581e+00	0.0	-8.226023e-01	3.526195e+00	0.0	1.050845e+00	3.444510e+00	0.0	1.992494e-01	3.127508e-01	0.0	-3.985636e-02	3.816063e-01	0.0	-3.997898e-01	1.403093e-01	0.0	4.383210e-01	8.408341e-02	0.0	4.006560e-01	6.792958e-01	0.0	1.557114e-01	7.857741e-01	0.0	1.557728e-01	1.731363e-01	0.0	-9.084936e-02	2.183474e-01	0.0	2.573013e+00	7.550798e-01	0.0	-2.476701e+00	8.248514e-01	0.0	-2.011455e+00	3.474008e+00	0.0	2.134515e+00	3.415636e+00	0.0	-1.770851e-01	8.734256e-02	0.0	1.932329e-01	6.304770e-02	0.0	2.265260e+00	3.461030e-01	0.0	-2.237000e+00	3.829141e-01	0.0	2.566788e+00	1.342513e+00	0.0	2.246793e+00	1.631642e+00	0.0	2.232336e+00	2.059052e+00	0.0	1.936721e+00	1.783750e+00	0.0	1.906033e+00	1.367115e+00	0.0	1.669209e+00	1.571166e+00	0.0	1.646048e+00	1.931576e+00	0.0	1.433920e+00	1.715822e+00	0.0	1.433912e+00	1.405506e+00	0.0	1.241761e+00	1.532919e+00	0.0	1.238824e+00	1.275064e+00	0.0	1.065351e+00	1.360827e+00	0.0	1.046668e+00	1.636861e+00	0.0	8.955637e-01	1.496874e+00	0.0	8.539546e-01	1.742929e+00	0.0	7.080004e-01	1.632011e+00	0.0	6.525599e-01	1.853289e+00	0.0	5.127685e-01	1.739845e+00	0.0	4.317847e-01	1.964923e+00	0.0	2.806415e-01	1.808015e+00	0.0	1.083021e+00	1.140555e+00	0.0	1.378499e+00	2.066577e+00	0.0	6.302267e-01	2.121081e+00	0.0	1.200434e+00	1.020364e+00	0.0	1.040976e+00	9.493844e-01	0.0	1.679913e-01	2.090363e+00	0.0	-4.464550e-02	1.948519e+00	0.0	7.128397e-02	1.675253e+00	0.0	-2.800176e-01	1.810035e+00	0.0	-2.036003e-01	1.575730e+00	0.0	-5.150696e-01	1.657859e+00	0.0	-5.441759e-01	1.891266e+00	0.0	-4.571033e-01	1.420857e+00	0.0	-7.826446e-01	1.493928e+00	0.0	9.413770e-01	1.039754e+00	0.0	8.998777e-01	8.673840e-01	0.0	9.907465e-01	7.708837e-01	0.0	-1.424709e-01	2.234748e+00	0.0	8.363389e-01	6.937533e-01	0.0	5.690208e-01	1.509276e+00	0.0	4.788257e-01	1.052644e+00	0.0	5.393070e-01	1.015070e+00	0.0	5.080343e-01	1.099466e+00	0.0	5.739282e-01	1.081273e+00	0.0	1.051222e-01	2.403025e+00	0.0	-7.443460e-01	1.232357e+00	0.0	-1.069962e+00	1.307227e+00	0.0	-4.318588e-01	1.160755e+00	0.0	-7.755376e-01	9.531745e-01	0.0	-4.824778e-01	9.324428e-01	0.0	-1.112884e+00	1.604226e+00	0.0	9.269471e-01	5.987863e-01	0.0	1.094134e+00	6.683845e-01	0.0	7.656414e-01	5.403189e-01	0.0	5.994347e-02	1.446403e+00	0.0	1.598592e+00	2.302156e+00	0.0	4.305956e-01	1.116395e+00	0.0	4.698492e-01	1.178175e+00	0.0	5.938003e-01	9.880816e-01	0.0	6.450189e-01	1.060742e+00	0.0	6.124477e-01	1.155789e+00	0.0	6.597022e-01	9.557444e-01	0.0	1.025242e+00	4.961928e-01	0.0	1.228758e+00	5.855354e-01	0.0	3.695120e-01	1.195235e+00	0.0	-2.309602e-01	1.047379e+00	0.0	-2.702082e-01	8.695998e-01	0.0	-4.823328e-01	7.296235e-01	0.0	-2.748458e-01	6.954121e-01	0.0	-1.418203e+00	1.391687e+00	0.0	7.065939e-01	1.145077e+00	0.0	-2.469061e-01	2.553074e+00	0.0	2.121450e-02	2.763617e+00	0.0	6.854757e-01	6.186440e-01	0.0	6.116958e-01	4.813490e-01	0.0	4.211586e-01	1.275247e+00	0.0	6.917272e-01	4.043202e-01	0.0	5.366816e-01	3.553337e-01	0.0	1.296917e+00	2.452918e+00	0.0	-1.472441e+00	1.723513e+00	0.0	1.529807e+00	2.696342e+00	0.0	6.133346e-01	2.807613e-01	0.0	1.135449e+00	3.380508e-01	0.0	-1.362097e+00	1.096496e+00	0.0	-4.686110e-01	5.473279e-01	0.0	-6.367593e-01	5.772003e-01	0.0	-3.176022e-01	5.066861e-01	0.0	-4.128042e-02	9.877062e-01	0.0	-3.556937e-02	1.136352e+00	0.0	-1.890372e+00	1.488758e+00	0.0	5.396645e-01	5.576534e-01	0.0	6.228642e-01	6.932317e-01	0.0	7.802477e-01	3.242250e-01	0.0	-1.640436e-01	6.024653e-01	0.0	9.843280e-01	1.920898e+00	0.0	1.365348e+00	5.005856e-01	0.0	1.432701e+00	7.075354e-01	0.0	1.590147e+00	5.729671e-01	0.0	1.672685e+00	8.428900e-01	0.0	1.895708e+00	7.146891e-01	0.0	6.520150e-01	1.254868e+00	0.0	7.624974e-01	1.241062e+00	0.0	-4.618800e-01	3.736691e-01	0.0	-1.895576e-01	1.383514e+00	0.0	-5.145884e-01	2.351828e+00	0.0	-6.448797e-01	2.700458e+00	0.0	-9.420912e-01	2.488132e+00	0.0	-1.066156e+00	2.839905e+00	0.0	-1.447795e+00	2.523846e+00	0.0	-1.881245e-01	4.484676e-01	0.0	2.967303e-01	1.289662e+00	0.0	3.440586e-01	1.391049e+00	0.0	2.504545e-01	1.200024e+00	0.0	4.168726e-01	2.563623e+00	0.0	3.342296e-01	3.027131e+00	0.0	7.098090e-01	2.763606e+00	0.0	-1.155881e+00	1.933545e+00	0.0	8.194240e-01	9.569226e-01	0.0	-1.273981e-01	3.178874e+00	0.0	-1.051394e-01	8.299903e-01	0.0	4.623511e-01	2.415137e-01	0.0	3.719900e-01	3.073226e-01	0.0	3.268174e-01	2.126614e-01	0.0	3.233073e-01	1.127355e+00	0.0	2.118195e-01	1.109206e+00	0.0	1.865749e+00	2.547305e+00	0.0	1.601537e+00	1.249815e+00	0.0	2.547243e+00	2.477703e+00	0.0	1.127400e+00	2.880766e+00	0.0	-1.535949e+00	2.085906e+00	0.0	4.494078e-01	4.245187e-01	0.0	3.229532e-01	3.859729e-01	0.0	1.248186e+00	1.637640e-01	0.0	4.540932e-02	8.973224e-01	0.0	-8.112009e-02	5.293005e-01	0.0	4.922966e-01	3.522612e+00	0.0	-3.181986e-01	3.492194e-01	0.0	-2.054219e-01	3.129110e-01	0.0	7.618952e-01	7.958634e-01	0.0	2.233894e+00	9.849259e-01	0.0	-1.566872e+00	3.050297e+00	0.0	-1.926629e+00	2.703799e+00	0.0	6.993249e-01	1.372119e+00	0.0	-2.442452e+00	1.348119e+00	0.0	9.128148e-01	1.290509e+00	0.0	-1.172414e+00	2.643657e-01	0.0	-1.256432e+00	5.485156e-01	0.0	-1.546756e+00	5.971718e-01	0.0	-9.810351e-01	5.266050e-01	0.0	-1.057924e+00	7.909864e-01	0.0	1.794166e+00	3.009943e+00	0.0	2.896135e-01	1.623627e+00	0.0	6.682262e-01	8.320332e-01	0.0	1.609788e-01	1.296759e+00	0.0	9.010291e-02	9.855339e-01	0.0	5.485138e-01	7.613513e-01	0.0	1.728080e-02	7.707991e-01	0.0	-5.407735e-01	2.077238e-01	0.0	5.939850e-01	9.345618e-02	0.0	1.010354e+00	1.508051e-01	0.0	-9.316407e-01	2.366453e-01	0.0	1.868418e+00	2.303568e-01	0.0	3.082354e-01	7.321184e-02	0.0	-2.734091e-01	1.127480e-01	0.0	-1.414830e+00	3.542793e+00	0.0	4.825363e-01	1.375525e+00	0.0	2.575024e+00	3.091065e+00	0.0	4.233963e-01	5.043032e-01	0.0	-1.813531e+00	3.346610e-01	0.0	-1.924796e+00	7.500923e-01	0.0	1.519050e+00	9.728819e-01	0.0	4.550086e-01	6.064510e-01	0.0	5.907467e-01	8.808249e-01	0.0	1.081364e+00	2.206359e+00	0.0	-2.483017e+00	2.552391e+00	0.0	1.547053e+00	3.497473e+00	0.0	-3.763732e-02	6.571147e-01	0.0	5.410156e-01	9.277639e-01	0.0	-2.413591e+00	3.089137e+00	0.0	2.014322e-01	8.611807e-01	0.0	9.041705e-01	2.435162e-01	0.0	7.577167e-01	2.406383e+00	0.0	-7.774499e-01	3.973531e-01	0.0	1.103096e-01	7.079092e-01	0.0	4.484873e-01	7.556725e-01	0.0	-2.086292e+00	1.117688e+00	0.0	3.516075e-01	6.075380e-01	0.0	2.430871e-02	5.574559e-01	0.0	2.681851e-01	4.553304e-01	0.0	1.287748e+00	8.188317e-01	0.0	2.306133e-01	3.811851e-01	0.0	-6.512185e-02	2.977171e-01	0.0	1.714042e-01	2.426096e-01	0.0	2.611380e-01	2.642672e-01	0.0	-1.319511e-02	4.672997e-01	0.0	2.473103e-01	1.367818e-01	0.0	-1.882456e-01	1.993220e-01	0.0	-6.906777e-01	7.456647e-01	0.0	1.152804e-01	1.189454e+00	0.0	2.194791e+00	6.563012e-01	0.0	8.319352e-01	1.119738e+00	0.0	1.944104e+00	1.043428e+00	0.0	4.269865e-01	1.069991e+00	0.0	8.555315e-01	4.557746e-01	0.0	-6.039209e-01	3.878469e-01	0.0	4.869892e-01	7.015877e-01	0.0	2.900809e-01	1.057899e+00	0.0	1.295279e-01	1.032841e-01	0.0	-1.043667e-01	1.300196e-01	0.0	-1.819436e+00	1.857837e+00	0.0	-1.976173e+00	2.231904e+00	0.0	-1.873514e-01	1.212329e+00	0.0	-7.453899e-01	3.090685e+00	0.0	5.265770e-01	1.248887e+00	0.0	1.385016e+00	1.122801e+00	0.0	-3.719458e-01	2.929325e+00	0.0	1.125427e+00	8.422868e-01	0.0	9.992371e-01	2.541590e+00	0.0	7.513562e-01	3.127912e+00	0.0	-1.061782e+00	1.032714e+00	0.0	2.191034e+00	2.822426e+00	0.0	1.424733e+00	3.106225e+00	0.0	-1.008421e-01	4.407
[...]
POINT_DATA 394

SCALARS Density float 1
LOOKUP_TABLE default
1.223710e+00	1.223909e+00	1.221570e+00	1.221974e+00	1.223448e+00	1.223630e+00	1.223276e+00	1.223588e+00	1.223573e+00	1.223584e+00	1.223624e+00	1.223649e+00	1.223712e+00	1.223718e+00	1.223726e+00	1.223713e+00	1.223741e+00	1.223758e+00	1.223797e+00	1.223821e+00	1.223837e+00	1.223903e+00	1.223867e+00	1.223978e+00	1.223853e+00	1.224026e+00	1.223860e+00	1.223865e+00	1.223846e+00	1.223800e+00	1.223771e+00	1.223716e+00	1.223702e+00	1.223611e+00	1.223691e+00	1.222923e+00	1.224765e+00	1.219796e+00	1.223812e+00	1.223353e+00	1.223411e+00	1.223405e+00	1.223362e+00	1.223339e+00	1.223334e+00	1.223335e+00	1.223352e+00	1.223379e+00	1.223312e+00	1.223498e+00	1.223317e+00	1.223407e+00	1.223346e+00	1.223290e+00	1.223248e+00	1.223214e+00	1.223132e+00	1.223123e+00	1.223125e+00	1.223258e+00	1.222788e+00	1.223366e+00	1.223097e+00	1.222913e+00	1.222837e+00	1.222951e+00	1.223089e+00	1.223111e+00	1.223252e+00	1.223290e+00	1.223372e+00	1.223418e+00	1.223492e+00	1.223542e+00	1.223573e+00	1.223576e+00	1.222939e+00	1.223737e+00	1.223749e+00	1.223073e+00	1.223380e+00	1.223686e+00	1.223821e+00	1.223184e+00	1.223619e+00	1.223314e+00	1.223511e+00	1.223306e+00	1.223351e+00	1.223819e+00	1.223890e+00	1.223291e+00	1.223495e+00	1.223488e+00	1.223423e+00	1.223883e+00	1.223036e+00	1.223707e+00	1.223594e+00	1.223125e+00	1.223938e+00	1.223384e+00	1.223188e+00	1.223699e+00	1.223004e+00	1.222898e+00	1.223107e+00	1.223111e+00	1.223041e+00	1.223023e+00	1.223021e+00	1.223278e+00	1.222825e+00	1.222878e+00	1.222971e+00	1.223075e+00	1.222855e+00	1.223145e+00	1.223132e+00	1.223249e+00	1.223165e+00	1.223226e+00	1.223433e+00	1.223316e+00	1.222918e+00	1.223026e+00	1.223248e+00	1.222818e+00	1.222992e+00	1.223401e+00	1.223492e+00	1.223495e+00	1.223431e+00	1.223569e+00	1.223637e+00	1.223533e+00	1.223609e+00	1.223616e+00	1.223117e+00	1.223051e+00	1.223166e+00	1.223500e+00	1.223205e+00	1.223180e+00	1.221236e+00	1.221663e+00	1.222778e+00	1.222774e+00	1.223412e+00	1.223683e+00	1.223670e+00	1.223717e+00	1.223731e+00	1.223742e+00	1.223635e+00	1.223115e+00	1.222935e+00	1.223222e+00	1.223503e+00	1.223191e+00	1.221701e+00	1.223141e+00	1.222667e+00	1.222748e+00	1.222544e+00	1.223015e+00	1.223151e+00	1.223054e+00	1.223137e+00	1.223680e+00	1.223727e+00	1.223756e+00	1.223728e+00	1.223665e+00	1.222634e+00	1.223465e+00	1.223457e+00	1.223349e+00	1.223278e+00	1.223060e+00	1.223243e+00	1.223305e+00	1.223284e+00	1.223635e+00	1.223166e+00	1.223290e+00	1.223050e+00	1.223708e+00	1.223796e+00	1.223818e+00	1.223892e+00	1.223600e+00	1.223549e+00	1.223674e+00	1.223329e+00	1.223401e+00	1.223191e+00	1.223781e+00	1.223358e+00	1.222912e+00	1.223094e+00	1.222869e+00	1.222841e+00	1.222988e+00	1.222817e+00	1.222820e+00	1.223854e+00	1.223503e+00	1.223526e+00	1.223508e+00	1.223566e+00	1.223554e+00	1.223606e+00	1.223809e+00	1.223113e+00	1.223469e+00	1.223424e+00	1.223339e+00	1.223371e+00	1.223389e+00	1.223609e+00	1.222896e+00	1.223411e+00	1.223746e+00	1.223290e+00	1.223308e+00	1.223345e+00	1.223596e+00	1.223089e+00	1.223102e+00	1.222830e+00	1.223287e+00	1.223305e+00	1.223628e+00	1.223376e+00	1.223256e+00	1.222941e+00	1.223569e+00	1.223893e+00	1.223410e+00	1.223865e+00	1.223890e+00	1.223108e+00	1.222832e+00	1.223549e+00	1.223586e+00	1.222635e+00	1.223656e+00	1.222889e+00	1.223784e+00	1.223804e+00	1.223682e+00	1.223777e+00	1.223705e+00	1.223268e+00	1.223451e+00	1.223170e+00	1.223393e+00	1.223646e+00	1.223430e+00	1.223751e+00	1.223919e+00	1.223267e+00	1.223161e+00	1.223818e+00	1.222926e+00	1.223417e+00	1.223948e+00	1.223552e+00	1.223044e+00	1.223166e+00	1.223408e+00	1.223749e+00	1.223700e+00	1.222974e+00	1.223352e+00	1.223021e+00	1.223215e+00	1.223622e+00	1.223245e+00	1.223702e+00	1.223099e+00	1.223608e+00	1.223962e+00	1.223157e+00	1.223348e+00	1.223780e+00	1.223740e+00	1.223381e+00	1.223672e+00	1.223430e+00	1.223729e+00	1.223364e+00	1.222980e+00	1.223365e+00	1.223867e+00	1.223362e+00	1.223293e+00	1.223754e+00	1.223274e+00	1.223916e+00	1.223733e+00	1.223537e+00	1.222854e+00	1.222936e+00	1.223233e+00	1.225427e+00	1.223201e+00	1.223857e+00	1.223307e+00	1.223390e+00	1.223338e+00	1.223897e+00	1.223622e+00	1.223629e+00	1.223601e+00	1.223508e+00	1.222708e+00	1.223028e+00	1.223470e+00	1.222925e+00	1.223238e+00	1.223296e+00	1.223739e+00	1.223299e+00	1.223247e+00	1.223851e+00	1.223547e+00	1.223508e+00	1.223085e+00	1.223547e+00	1.222856e+00	1.223157e+00	1.223838e+00	1.223246e+00	1.223362e+00	1.223300e+00	1.223359e+00	1.223714e+00	1.223206e+00	1.223270e+00	1.223615e+00	1.222964e+00	1.223716e+00	1.223218e+00	1.222355e+00	1.223734e+00	1.223676e+00	1.223160e+00	1.223365e+00	1.222401e+00	1.223586e+00	1.223115e+00	1.223584e+00	1.223766e+00	1.225424e+00	1.223853e+00	1.223709e+00	1.223292e+00	1.223190e+00	1.223566e+00	1.223420e+00	1.223725e+00	1.223040e+00	1.223878e+00	1.223063e+00	1.222966e+00	1.223569e+00	1.223039e+00	1.223563e+00	1.223290e+00	1.223773e+00	1.223710e+00	1.223680e+00	1.223290e+00	1.223294e+00	1.223922e+00	1.223489e+00	1.223491e+00	1.223134e+00	1.223475e+00	1.222720e+00	1.223377e+00	1.223154e+00	1.223316e+00	1.223462e+00	1.223723e+00	1.222949e+00	1.223414e+00	1.222720e+00	1.223281e+00	1.222904e+00	1.223587e+00	1.222815e+00	
SCALARS X-Momentum float 1
LOOKUP_TABLE default
8.791797e+00	4.276176e-01	6.856282e+00	8.173434e-02	-5.511516e-01	-4.145992e+00	1.617712e+01	1.030051e+01	1.017517e+01	9.981183e+00	9.741740e+00	9.465287e+00	9.206741e+00	8.959527e+00	8.646963e+00	8.356695e+00	7.920747e+00	7.354189e+00	6.707707e+00	5.961874e+00	5.109899e+00	4.268348e+00	3.273410e+00	2.275885e+00	1.275456e+00	1.148201e-01	5.564431e-01	1.164186e+00	1.834584e+00	2.529888e+00	3.189687e+00	3.802354e+00	4.389273e+00	4.931973e+00	5.307806e+00	5.263080e+00	4.914882e+00	3.965430e+00	1.114854e+00	1.318856e+00	1.779944e+00	2.054082e+00	2.203092e+00	2.232676e+00	2.098945e+00	1.826004e+00	1.464399e+00	1.029867e+00	6.161439e-01	2.782087e-01	-1.830007e+00	-3.334759e+00	-4.609823e+00	-5.742367e+00	-6.653017e+00	-7.337042e+00	-7.809265e+00	-8.031464e+00	-7.574484e+00	-6.692763e+00	-5.758478e+00	-3.567778e-01	5.020196e+00	1.024820e+01	1.401157e+01	1.587041e+01	1.633962e+01	1.549047e+01	1.461639e+01	1.365554e+01	1.284950e+01	1.217871e+01	1.160240e+01	1.110199e+01	1.069416e+01	1.042452e+01	5.552370e+00	2.089527e+00	7.820748e+00	-5.382277e+00	2.149866e+00	4.680653e+00	5.823712e+00	-5.145010e+00	9.681937e+00	1.235827e+01	1.126176e+01	1.372353e+01	1.169516e+00	2.868903e+00	3.925081e+00	-3.831112e+00	2.298822e+00	5.574724e+00	1.076046e-01	1.698589e+00	1.343527e+00	8.967556e+00	1.042187e+01	1.539848e+01	1.832141e+00	-1.747343e+00	-2.772143e+00	8.663249e+00	7.399052e+00	1.070342e+01	1.380492e+01	1.261821e+01	8.737408e+00	1.135132e+01	1.405768e+01	1.311470e+01	1.001917e+01	1.184365e+01	8.452587e+00	1.012887e+01	1.336876e+01	1.246151e+01	1.427094e+01	1.395062e+01	1.433530e+01	1.395278e+01	1.359149e+01	1.287366e+01	6.629541e+00	1.482786e+01	1.404847e+01	5.022521e+00	4.086608e+00	1.252997e+01	1.170530e+01	1.167937e+01	1.083775e+01	1.045411e+01	1.012078e+01	1.045323e+01	9.562101e+00	9.500629e+00	4.877207e+00	3.061224e+00	2.332543e+00	1.165815e+01	2.004068e+00	1.360319e+01	5.561841e+00	2.376455e+00	6.508042e+00	4.556202e+00	1.233604e+01	8.885311e+00	9.041971e+00	8.735146e+00	8.064921e+00	7.752069e+00	9.528934e+00	9.087697e-01	1.200637e+00	9.581243e-01	1.100561e+01	1.520026e+01	9.576986e+00	1.041791e+01	2.189277e+00	4.021192e+00	7.274093e+00	2.705236e+00	-6.313764e-01	-1.798160e-01	1.152834e+01	8.266846e+00	7.273564e+00	6.849079e+00	6.184096e+00	9.185295e+00	6.316585e+00	1.161259e+01	1.217454e+01	2.027886e+00	1.049594e+00	1.240663e+01	-2.777333e-01	-1.114292e-01	1.506244e+01	9.581682e+00	1.513117e+01	-1.582371e+00	-2.799582e+00	8.739541e+00	5.975062e+00	6.561286e+00	5.217261e+00	7.686968e+00	8.802268e+00	9.302453e+00	2.048817e+00	2.650600e+00	-1.777992e+00	5.241247e+00	1.464197e+01	-1.400157e+00	1.059494e+00	-6.993610e-01	2.476444e+00	8.764983e-01	9.911562e+00	8.967909e+00	5.161123e+00	9.799667e+00	1.103843e+01	1.112579e+01	1.063950e+01	1.075189e+01	1.027577e+01	4.244642e+00	1.201220e+01	1.282781e+01	1.074993e+01	1.305336e+01	1.271929e+01	1.366836e+01	9.944529e+00	3.540542e+00	1.198733e+01	6.696774e+00	-1.252669e+00	1.834595e-01	-7.676170e-01	1.024373e+01	9.020944e+00	1.537289e+01	7.779998e+00	1.512438e+01	1.435016e+01	9.916487e+00	1.171057e+00	1.270337e+00	-5.564797e+00	6.819018e+00	4.428686e+00	1.282415e+01	4.343861e+00	3.388271e+00	2.704956e+00	3.764760e+00	1.048026e+01	1.014806e+01	1.187892e+01	9.255066e+00	9.370110e+00	7.273509e+00	7.794076e+00	8.240962e+00	7.257992e+00	7.909843e+00	1.516529e+01	1.283344e+01	2.768321e+00	1.099275e+01	7.382416e+00	2.670596e+00	5.943494e+00	4.961495e+00	-4.612696e+00	-5.364633e+00	6.614608e+00	-4.509784e+00	-2.853836e+00	2.861673e+00	1.078409e+01	1.318486e+01	1.598188e+01	1.934225e+00	8.305295e+00	8.687113e+00	4.284667e+00	2.349413e+00	2.409639e+00	1.486812e+01	9.915165e+00	1.452395e+01	5.185144e+00	1.462335e+00	1.015946e+01	5.855877e+00	-3.407325e+00	1.408275e+01	6.511368e+00	5.168449e+00	2.179987e+00	9.026398e+00	2.261932e+00	4.198679e+00	1.907940e+00	2.702488e+00	1.581745e+00	2.230063e+00	6.842621e-01	3.336537e-01	3.545183e+00	-1.176296e+00	2.439525e+00	7.272546e+00	9.693094e+00	2.329322e-01	6.007392e+00	4.800970e+00	8.351495e+00	-4.342324e-01	5.822474e+00	2.558843e+00	8.188127e+00	-4.129093e-01	1.209333e+00	9.637550e+00	9.856679e+00	9.087438e+00	1.119338e+01	1.104262e+01	6.334115e+00	1.158433e+01	2.926166e+00	1.454471e+01	1.341139e+01	8.478563e+00	1.558457e+01	1.460872e+01	3.721829e+00	1.096571e+01	1.179916e+01	1.472191e+01	1.044918e+01	3.840863e+00	1.419207e+01	3.538925e+00	-2.821556e+00	1.460377e+01	-2.166704e+00	1.319349e+01	8.915541e+00	-3.245375e+00	1.335361e+01	9.982132e+00	2.921991e+00	8.279461e+00	-2.567282e+00	-2.772600e+00	8.823914e+00	6.533819e+00	7.037664e+00	1.194891e+01	8.295040e+00	9.862281e+00	1.115876e+01	1.024427e+01	4.444024e+00	6.253060e+00	3.197931e+00	8.576481e+00	-1.615382e-01	1.261500e+01	1.027536e+01	1.226498e+01	5.914516e+00	1.594126e+01	2.603227e+00	-3.316203e+00	-1.734428e+00	1.028551e+01	-1.859158e+00	1.087171e+01	1.232986e+01	7.009246e+00	8.362533e+00	9.523858e+00	9.386278e-01	1.785085e+00	8.701619e-01	-7.606337e-01	1.363802e+01	1.455032e+01	6.154541e+00	1.291743e+01	9.306865e+00	1.524314e+01	2.160542e+00	1.155366e+01	7.499679e+00	7.400725e+00	2.578065e+00	5.468221e+00	1.357378e+01	9.151402e+00	5.310021e+00	7.291344e+00	
SCALARS Y-Momentum float 1
LOOKUP_TABLE default
-1.819749e-02	4.224695e-01	5.160591e+00	-8.327160e-01	5.208745e-01	2.311035e-01	6.447254e-02	-1.216253e-02	1.405760e-02	4.032219e-02	5.637922e-02	7.396369e-02	6.242304e-02	1.188605e-02	-3.374921e-03	-9.757348e-06	6.952328e-03	5.889727e-03	1.182033e-02	1.415699e-02	3.857265e-04	2.727350e-02	1.177810e-02	8.555920e-03	-3.342663e-02	1.369014e+00	2.437295e+00	3.416395e+00	4.375544e+00	5.237438e+00	5.994056e+00	6.666705e+00	7.295150e+00	7.941732e+00	8.379767e+00	8.421593e+00	8.440831e+00	-2.506411e+00	1.055898e+00	1.820365e+00	2.537378e+00	3.094708e+00	3.449294e+00	3.642546e+00	3.649798e+00	3.479928e+00	3.166853e+00	2.714018e+00	2.158437e+00	1.408118e+00	-2.858178e-04	3.548225e-02	2.514257e-02	8.908305e-03	2.715808e-03	7.184904e-03	1.043411e-02	3.177232e-03	-4.144169e-02	-6.583003e-02	-1.012013e-01	-5.056058e-01	-4.487033e-01	5.131691e-02	7.184049e-01	8.991692e-01	5.161401e-01	1.044064e-02	2.480685e-04	-7.392849e-03	-3.807693e-02	-2.543719e-02	-4.969694e-03	-5.727518e-03	1.607844e-03	-3.280507e-03	8.705272e+00	2.263522e+00	4.914917e-01	-2.081558e-01	3.289352e+00	6.416806e+00	8.831211e-01	4.353328e-01	3.713497e-01	3.903978e-01	4.251475e-01	8.464309e-01	2.977313e+00	4.355727e+00	1.008122e+00	6.218216e-01	2.895202e+00	7.567339e+00	2.129573e+00	2.684029e+00	-8.154415e-01	3.166192e-01	2.415274e-01	8.382407e-01	8.949905e-01	8.187794e-01	-6.125118e-01	2.424192e-01	-4.206777e-01	1.183792e-01	9.435202e-01	8.880769e-01	1.013461e-01	8.726091e-01	1.684169e+00	1.710452e+00	1.024116e+00	1.799251e+00	1.324694e+00	1.954634e+00	2.741712e+00	3.010419e+00	3.746907e+00	4.237675e+00	4.354184e+00	5.027848e+00	4.260003e+00	4.883264e+00	1.580253e+00	2.367469e+00	3.687801e+00	1.347008e+00	1.923343e+00	3.568745e+00	3.655343e+00	4.994981e+00	3.463609e+00	4.249628e+00	3.043218e+00	2.590018e+00	3.526829e+00	2.503301e+00	2.077232e+00	2.633986e+00	2.225085e+00	2.668952e+00	2.769442e+00	4.904317e+00	1.397748e-01	3.839272e-01	1.284639e+00	1.130821e+00	2.549978e+00	2.694119e+00	1.975158e+00	3.777853e+00	2.546821e+00	3.512897e+00	1.831777e+00	2.116454e+00	1.659688e+00	2.406540e+00	6.080378e+00	2.035609e+00	5.046496e+00	4.367504e+00	1.936765e+00	2.008891e+00	2.033180e+00	2.903616e+00	1.402266e+00	8.880114e-01	7.613032e+00	4.876217e+00	4.520034e+00	3.287336e+00	4.144685e+00	1.427755e+00	2.039187e+00	1.882011e+00	1.684918e+00	3.000312e+00	2.553487e+00	6.613594e+00	1.959639e+00	2.125756e+00	2.365949e+00	1.316175e+00	1.889384e+00	1.487581e+00	5.996960e-01	1.437334e+00	2.888276e+00	2.359746e+00	3.338624e+00	6.294631e+00	6.499521e+00	9.192576e-01	3.001802e+00	3.323478e+00	1.350722e+00	4.461355e+00	3.302366e+00	2.904400e-01	3.307492e-01	-8.436665e-02	-1.590709e-01	-6.366668e-01	2.723407e+00	2.254034e+00	2.237954e+00	4.826638e+00	1.949604e+00	1.381450e+00	1.417738e+00	9.874334e-01	9.879544e-01	3.666734e+00	8.145485e+00	7.191752e+00	9.064165e+00	2.386991e+00	1.339896e+00	2.067347e+00	1.628710e+00	2.715821e+00	9.622078e-01	5.513092e+00	1.691497e+00	2.395118e+00	1.937329e+00	9.020155e+00	9.565828e+00	1.721341e+00	4.204793e-01	1.105939e+00	1.819294e+00	1.152649e+00	2.732859e+00	2.924361e+00	9.327845e-02	6.950432e+00	4.795502e+00	6.389344e-01	2.572125e+00	2.782535e+00	3.274121e+00	-8.541311e-01	6.012491e-01	5.772531e-01	3.374902e+00	4.417793e-01	2.033229e+00	6.147156e-01	1.071724e+00	8.257201e-01	1.390623e+00	1.693981e+00	1.448187e+00	5.902201e+00	3.454242e+00	7.878364e+00	7.949255e+00	3.030663e+00	6.396882e+00	1.115660e+00	5.088211e-01	3.171587e-01	7.485584e-01	-3.978502e-01	7.758052e-01	1.002062e+00	3.187141e-01	5.789720e+00	1.044912e+00	3.033151e+00	3.795136e-01	6.349595e-01	3.936527e-01	3.048128e+00	2.911219e+00	2.947703e+00	3.442122e-01	7.920667e-01	5.591875e+00	1.762736e+00	2.555694e-01	8.325575e+00	8.321796e-01	2.943129e+00	1.540646e+00	6.981344e+00	2.520999e+00	6.702495e-01	3.137951e+00	5.762052e+00	3.304527e+00	1.062162e+00	3.201628e+00	3.568941e+00	2.630383e+00	2.501023e+00	5.054809e+00	1.564509e+00	2.009657e+00	2.579577e+00	8.172256e+00	-8.567638e-01	2.077531e+00	-4.882734e-01	2.840034e+00	1.744763e+00	1.852068e+00	2.938306e+00	9.993146e+00	1.532701e+00	1.708218e+00	9.428019e-01	7.208533e-01	5.106806e+00	8.904195e-01	3.925835e+00	8.894067e-01	1.236418e+00	1.702553e+00	2.519042e+00	1.328541e+00	1.918267e+00	1.436999e+00	1.413224e+00	4.248049e+00	2.614025e+00	4.259799e-01	1.560481e+00	1.937162e+00	2.526372e+00	2.540585e+00	1.891890e+00	1.064854e+00	3.499875e+00	1.294853e+00	3.304225e+00	1.011974e+00	9.288676e-01	6.285419e+00	2.227378e+00	3.252486e+00	1.312409e+00	-4.120411e-01	-4.750670e-01	1.071262e-01	8.344428e+00	9.465764e+00	7.481058e+00	2.187153e+00	6.455939e+00	2.718286e+00	1.396028e+00	1.767886e+00	9.911495e+00	3.588952e+00	1.009742e+00	2.167866e+00	4.178992e+00	1.012551e-01	6.095288e-01	5.144023e+00	4.980668e-01	2.937278e+00	2.628075e-02	-7.093488e-01	4.214079e-01	1.174932e+00	6.430483e-01	6.517027e+00	1.977924e+00	8.160215e+00	5.873353e-01	2.813173e+00	3.063063e+00	7.874151e-01	8.100752e-01	5.774117e+00	3.856682e+00	7.483238e+00	3.572844e+00	4.242312e+00	1.459399e+00	3.112932e+00	7.435999e-01	2.015442e+00	-4.707624e-01	3.130136e+00	-3.359501e-02	3.098952e+00	7.316641e+00	6.252577e+00	1.756129e+00	
SCALARS Energy float 1
LOOKUP_TABLE default