# vtk DataFile Version 3.0
vtk output
ASCII
DATASET UNSTRUCTURED_GRID
POINTS 394 float
-3.000000e+00	0.000000e+00	0.0	-5.000000e-02	7.432668e-18	0.0	1.773992e-01	1.015741e+00	0.0	2.774525e-01	9.845682e-01	0.0	5.000000e-02	-7.237077e-18	0.0	3.000000e+00	0.000000e+00	0.0	3.000000e+00	4.000000e+00	0.0	-3.000000e+00	4.000000e+00	0.0	-3.000000e+00	3.428571e+00	0.0	-3.000000e+00	2.857143e+00	0.0	-3.000000e+00	2.285714e+00	0.0	-3.000000e+00	1.714286e+00	0.0	-3.000000e+00	1.142857e+00	0.0	-3.000000e+00	5.714286e-01	0.0	-2.473871e+00	0.000000e+00	0.0	-2.029066e+00	0.000000e+00	0.0	-1.653013e+00	0.000000e+00	0.0	-1.335087e+00	0.000000e+00	0.0	-1.066302e+00	0.000000e+00	0.0	-8.390627e-01	0.000000e+00	0.0	-6.469477e-01	0.000000e+00	0.0	-4.845277e-01	0.000000e+00	0.0	-3.472127e-01	0.000000e+00	0.0	-2.311224e-01	0.000000e+00	0.0	-1.329760e-01	0.000000e+00	0.0	-4.721423e-02	7.981193e-02	0.0	-4.054546e-02	1.593231e-01	0.0	-3.017584e-02	2.384740e-01	0.0	-1.664823e-02	3.172997e-01	0.0	-4.457696e-04	3.958247e-01	0.0	1.797906e-02	4.740682e-01	0.0	3.820116e-02	5.520476e-01	0.0	5.982268e-02	6.297788e-01	0.0	8.246656e-02	7.072817e-01	0.0	1.057966e-01	7.845846e-01	0.0	1.295113e-01	8.617396e-01	0.0	1.534821e-01	9.387673e-01	0.0	2.274259e-01	1.000201e+00	0.0	2.534174e-01	9.076652e-01	0.0	2.295045e-01	8.307987e-01	0.0	2.057756e-01	7.540541e-01	0.0	1.824507e-01	6.774674e-01	0.0	1.598077e-01	6.010843e-01	0.0	1.381878e-01	5.249350e-01	0.0	1.179666e-01	4.490395e-01	0.0	9.954367e-02	3.734148e-01	0.0	8.334322e-02	2.980793e-01	0.0	6.981803e-02	2.230533e-01	0.0	5.945500e-02	1.483579e-01	0.0	5.274835e-02	7.401285e-02	0.0	1.329760e-01	0.000000e+00	0.0	2.311224e-01	0.000000e+00	0.0	3.472127e-01	0.000000e+00	0.0	4.845277e-01	0.000000e+00	0.0	6.469477e-01	0.000000e+00	0.0	8.390627e-01	0.000000e+00	0.0	1.066302e+00	0.000000e+00	0.0	1.335087e+00	0.000000e+00	0.0	1.653013e+00	0.000000e+00	0.0	2.029066e+00	0.000000e+00	0.0	2.473871e+00	0.000000e+00	0.0	3.000000e+00	5.714286e-01	0.0	3.000000e+00	1.142857e+00	0.0	3.000000e+00	1.714286e+00	0.0	3.000000e+00	2.285714e+00	0.0	3.000000e+00	2.857143e+00	0.0	3.000000e+00	3.428571e+00	0.0	2.400000e+00	4.000000e+00	0.0	1.800000e+00	4.000000e+00	0.0	1.200000e+00	4.000000e+00	0.0	6.000000e-01	4.000000e+00	0.0	0.000000e+00	4.000000e+00	0.0	-6.000000e-01	4.000000e+00	0.0	-1.200000e+00	4.000000e+00	0.0	-1.800000e+00	4.000000e+00	0.0	-2.400000e+00	4.000000e+00	0.0	5.208222e-02	9.126011e-01	0.0	2.887551e-01	8.632306e-01	0.0	-1.472277e+00	2.696234e-01	0.0	1.516843e+00	2.072314e-01	0.0	1.933108e-01	5.528004e-01	0.0	-3.776066e-02	6.006029e-01	0.0	-7.359606e-01	1.808961e-01	0.0	7.614906e-01	1.386010e-01	0.0	-2.563557e+00	2.090256e+00	0.0	2.558075e+00	1.924855e+00	0.0	-8.790438e-01	3.515303e+00	0.0	9.726938e-01	3.450607e+00	0.0	1.478432e-01	3.311347e-01	0.0	-8.725643e-02	3.610750e-01	0.0	-4.081814e-01	1.231612e-01	0.0	4.242728e-01	9.786179e-02	0.0	2.413494e-01	7.046165e-01	0.0	2.132224e-03	7.571129e-01	0.0	1.335341e-01	1.859619e-01	0.0	-1.103164e-01	2.043673e-01	0.0	2.542377e+00	7.887422e-01	0.0	-2.490557e+00	8.047592e-01	0.0	-2.035887e+00	3.461624e+00	0.0	2.094102e+00	3.427585e+00	0.0	-1.813287e-01	7.965479e-02	0.0	1.869907e-01	6.992481e-02	0.0	2.239451e+00	3.750407e-01	0.0	-2.243847e+00	3.688828e-01	0.0	2.507620e+00	1.375928e+00	0.0	2.153784e+00	1.673852e+00	0.0	2.136533e+00	2.087791e+00	0.0	1.812177e+00	1.825168e+00	0.0	1.789092e+00	1.424180e+00	0.0	1.519001e+00	1.622042e+00	0.0	1.496009e+00	1.969629e+00	0.0	1.259226e+00	1.758633e+00	0.0	1.264171e+00	1.459225e+00	0.0	1.049387e+00	1.576202e+00	0.0	1.051506e+00	1.328389e+00	0.0	8.533681e-01	1.404650e+00	0.0	8.356326e-01	1.666484e+00	0.0	6.654302e-01	1.522629e+00	0.0	6.348915e-01	1.758473e+00	0.0	4.752435e-01	1.643315e+00	0.0	4.317330e-01	1.858648e+00	0.0	2.811159e-01	1.734533e+00	0.0	2.155795e-01	1.959017e+00	0.0	5.305203e-02	1.790696e+00	0.0	8.844489e-01	1.192153e+00	0.0	1.211174e+00	2.098385e+00	0.0	4.264212e-01	2.124623e+00	0.0	1.027390e+00	1.081567e+00	0.0	8.609322e-01	1.004462e+00	0.0	-3.098244e-02	2.073409e+00	0.0	-2.383802e-01	1.915582e+00	0.0	-1.513708e-01	1.639544e+00	0.0	-4.564493e-01	1.759698e+00	0.0	-3.930549e-01	1.516676e+00	0.0	-6.724759e-01	1.599398e+00	0.0	-6.994155e-01	1.837722e+00	0.0	-6.182061e-01	1.350396e+00	0.0	-9.089172e-01	1.430951e+00	0.0	7.382443e-01	1.085378e+00	0.0	7.150480e-01	9.172771e-01	0.0	8.341268e-01	8.268229e-01	0.0	-3.160921e-01	2.202822e+00	0.0	6.825080e-01	7.467080e-01	0.0	3.266046e-01	1.509498e+00	0.0	2.301173e-01	1.049073e+00	0.0	2.902513e-01	1.027817e+00	0.0	2.586685e-01	1.099063e+00	0.0	3.268368e-01	1.091531e+00	0.0	-7.216037e-02	2.382800e+00	0.0	-8.569806e-01	1.166591e+00	0.0	-1.159356e+00	1.245370e+00	0.0	-5.785137e-01	1.089490e+00	0.0	-8.513761e-01	8.859092e-01	0.0	-5.868195e-01	8.606373e-01	0.0	-1.214672e+00	1.545433e+00	0.0	8.013025e-01	6.557588e-01	0.0	9.635238e-01	7.295521e-01	0.0	6.453764e-01	5.927650e-01	0.0	-1.630730e-01	1.400189e+00	0.0	1.458938e+00	2.330677e+00	0.0	1.820161e-01	1.101920e+00	0.0	2.204648e-01	1.170727e+00	0.0	3.536242e-01	1.008397e+00	0.0	4.043596e-01	1.080930e+00	0.0	3.650068e-01	1.167110e+00	0.0	4.324275e-01	9.846299e-01	0.0	9.252507e-01	5.559048e-01	0.0	1.122772e+00	6.444938e-01	0.0	1.267878e-01	1.174554e+00	0.0	-3.852518e-01	9.799483e-01	0.0	-3.884930e-01	8.007360e-01	0.0	-5.568317e-01	6.684304e-01	0.0	-3.619167e-01	6.324901e-01	0.0	-1.490578e+00	1.334478e+00	0.0	4.676635e-01	1.166737e+00	0.0	-3.946315e-01	2.524165e+00	0.0	-1.214206e-01	2.741291e+00	0.0	5.403376e-01	6.704349e-01	0.0	5.017105e-01	5.284519e-01	0.0	1.750179e-01	1.260715e+00	0.0	6.036454e-01	4.504589e-01	0.0	4.618119e-01	3.949798e-01	0.0	1.142708e+00	2.472804e+00	0.0	-1.553887e+00	1.672569e+00	0.0	1.406847e+00	2.718225e+00	0.0	5.560007e-01	3.178520e-01	0.0	1.072626e+00	3.880090e-01	0.0	-1.420173e+00	1.040075e+00	0.0	-5.183681e-01	4.973510e-01	0.0	-6.844684e-01	5.258235e-01	0.0	-3.691930e-01	4.590785e-01	0.0	-2.115419e-01	9.262510e-01	0.0	-2.262893e-01	1.078400e+00	0.0	-1.942706e+00	1.445071e+00	0.0	4.049221e-01	6.060609e-01	0.0	4.539483e-01	7.416965e-01	0.0	7.113143e-01	3.679123e-01	0.0	-2.448986e-01	5.512049e-01	0.0	7.776998e-01	1.937053e+00	0.0	1.282241e+00	5.528987e-01	0.0	1.326072e+00	7.687674e-01	0.0	1.511818e+00	6.279482e-01	0.0	1.567102e+00	9.019139e-01	0.0	1.823382e+00	7.668878e-01	0.0	4.087130e-01	1.267977e+00	0.0	5.262827e-01	1.263746e+00	0.0	-4.896826e-01	3.363443e-01	0.0	-3.750411e-01	1.317554e+00	0.0	-6.595328e-01	2.313282e+00	0.0	-7.612912e-01	2.671208e+00	0.0	-1.053119e+00	2.450834e+00	0.0	-1.156555e+00	2.815778e+00	0.0	-1.531061e+00	2.487234e+00	0.0	-2.367682e-01	4.079190e-01	0.0	5.954070e-02	1.261974e+00	0.0	1.037605e-01	1.368471e+00	0.0	1.983782e-02	1.166777e+00	0.0	2.395057e-01	2.559328e+00	0.0	2.105060e-01	3.018353e+00	0.0	5.559842e-01	2.768191e+00	0.0	-1.260978e+00	1.881767e+00	0.0	6.087343e-01	9.997396e-01	0.0	-2.230687e-01	3.158441e+00	0.0	-2.349216e-01	7.678160e-01	0.0	4.186829e-01	2.715850e-01	0.0	3.146139e-01	3.429973e-01	0.0	2.919089e-01	2.384052e-01	0.0	8.744809e-02	1.101265e+00	0.0	-6.997587e-03	1.072363e+00	0.0	1.757106e+00	2.573800e+00	0.0	1.458266e+00	1.310141e+00	0.0	2.489087e+00	2.492523e+00	0.0	9.958227e-01	2.893618e+00	0.0	-1.617507e+00	2.039396e+00	0.0	3.547274e-01	4.692927e-01	0.0	2.469185e-01	4.185302e-01	0.0	1.221800e+00	1.878858e-01	0.0	-1.188836e-01	8.465976e-01	0.0	-1.528913e-01	4.913515e-01	0.0	4.209363e-01	3.516153e+00	0.0	-3.469509e-01	3.156796e-01	0.0	-2.329846e-01	2.843083e-01	0.0	5.731579e-01	8.423211e-01	0.0	2.160520e+00	1.035547e+00	0.0	-1.622429e+00	3.031703e+00	0.0	-1.977189e+00	2.683148e+00	0.0	4.593621e-01	1.386667e+00	0.0	-2.467666e+00	1.320388e+00	0.0	6.894130e-01	1.324753e+00	0.0	-1.184079e+00	2.407957e-01	0.0	-1.285772e+00	5.067843e-01	0.0	-1.573062e+00	5.578516e-01	0.0	-1.014207e+00	4.768383e-01	0.0	-1.107106e+00	7.326546e-01	0.0	1.703334e+00	3.027154e+00	0.0	5.407805e-02	1.601843e+00	0.0	4.654801e-01	8.698004e-01	0.0	-6.543411e-02	1.256320e+00	0.0	-9.460485e-02	9.371795e-01	0.0	3.611435e-01	8.001039e-01	0.0	-1.150658e-01	7.238191e-01	0.0	-5.522325e-01	1.812657e-01	0.0	5.770799e-01	1.103474e-01	0.0	9.820504e-01	1.792168e-01	0.0	-9.428500e-01	2.112296e-01	0.0	1.843154e+00	2.565097e-01	0.0	2.979004e-01	8.298543e-02	0.0	-2.797067e-01	1.007942e-01	0.0	-1.452946e+00	3.532639e+00	0.0	2.370446e-01	1.367934e+00	0.0	2.543636e+00	3.098018e+00	0.0	3.088154e-01	5.450430e-01	0.0	-1.822711e+00	3.142586e-01	0.0	-1.950696e+00	7.118636e-01	0.0	1.389997e+00	1.033108e+00	0.0	3.119157e-01	6.438494e-01	0.0	3.693063e-01	9.102121e-01	0.0	8.951931e-01	2.221230e+00	0.0	-2.507821e+00	2.537272e+00	0.0	1.485408e+00	3.505675e+00	0.0	-1.418461e-01	6.126782e-01	0.0	3.033975e-01	9.492559e-01	0.0	-2.437754e+00	3.081892e+00	0.0	2.640741e-02	8.338551e-01	0.0	8.539838e-01	2.838820e-01	0.0	5.720234e-01	2.410503e+00	0.0	-8.037657e-01	3.566313e-01	0.0	-1.954245e-02	6.790728e-01	0.0	2.661961e-01	7.814910e-01	0.0	-2.119927e+00	1.079062e+00	0.0	2.155789e-01	6.317243e-01	0.0	-6.423044e-02	5.291180e-01	0.0	1.776493e-01	4.782736e-01	0.0	1.149981e+00	8.838667e-01	0.0	1.619066e-01	4.020770e-01	0.0	-9.695071e-02	2.809343e-01	0.0	1.363496e-01	2.579493e-01	0.0	2.172645e-01	2.884528e-01	0.0	-7.897489e-02	4.427809e-01	0.0	2.275676e-01	1.527494e-01	0.0	-2.033988e-01	1.812208e-01	0.0	-7.508030e-01	6.855496e-01	0.0	-9.873683e-02	1.142925e+00	0.0	2.146284e+00	7.015558e-01	0.0	6.081572e-01	1.154589e+00	0.0	1.843876e+00	1.101008e+00	0.0	1.803493e-01	1.055565e+00	0.0	7.592745e-01	5.077412e-01	0.0	-6.317790e-01	3.477840e-01	0.0	3.174035e-01	7.360463e-01	0.0	6.632049e-02	1.031684e+00	0.0	1.202231e-01	1.105573e-01	0.0	-1.123797e-01	1.218289e-01	0.0	-1.883818e+00	1.815150e+00	0.0	-2.031330e+00	2.196778e+00	0.0	-3.645266e-01	1.148717e+00	0.0	-8.326705e-01	3.072111e+00	0.0	2.767647e-01	1.246814e+00	0.0	1.225599e+00	1.182145e+00	0.0	-4.820720e-01	2.906323e+00	0.0	9.683009e-01	9.036275e-01	0.0	8.344273e-01	2.552956e+00	0.0	6.349823e-01	3.129360e+00	0.0	-1.129272e+00	9.713980e-01	0.0	2.116085e+00	2.843572e+00	0.0	1.326902e+00	3.121862e+00	0.0	-1.
[...]
POINT_DATA 394

SCALARS Density float 1
LOOKUP_TABLE default
1.223731e+00	1.223979e+00	1.221772e+00	1.221639e+00	1.223215e+00	1.223565e+00	1.223270e+00	1.223592e+00	1.223575e+00	1.223589e+00	1.223634e+00	1.223665e+00	1.223736e+00	1.223742e+00	1.223755e+00	1.223743e+00	1.223777e+00	1.223802e+00	1.223845e+00	1.223872e+00	1.223896e+00	1.223951e+00	1.223932e+00	1.224015e+00	1.223931e+00	1.224037e+00	1.223936e+00	1.223953e+00	1.223949e+00	1.223921e+00	1.223901e+00	1.223852e+00	1.223840e+00	1.223745e+00	1.223833e+00	1.222972e+00	1.224944e+00	1.219826e+00	1.223623e+00	1.223136e+00	1.223143e+00	1.223110e+00	1.223065e+00	1.223044e+00	1.223046e+00	1.223053e+00	1.223079e+00	1.223120e+00	1.223050e+00	1.223301e+00	1.223071e+00	1.223195e+00	1.223112e+00	1.223049e+00	1.223004e+00	1.222974e+00	1.222883e+00	1.222923e+00	1.222939e+00	1.223092e+00	1.222630e+00	1.223294e+00	1.223013e+00	1.222859e+00	1.222804e+00	1.222946e+00	1.223102e+00	1.223104e+00	1.223230e+00	1.223262e+00	1.223345e+00	1.223404e+00	1.223490e+00	1.223546e+00	1.223580e+00	1.223580e+00	1.223127e+00	1.223454e+00	1.223788e+00	1.222865e+00	1.223081e+00	1.223799e+00	1.223862e+00	1.222941e+00	1.223633e+00	1.223263e+00	1.223514e+00	1.223305e+00	1.223080e+00	1.223907e+00	1.223935e+00	1.223059e+00	1.223201e+00	1.223594e+00	1.223182e+00	1.223956e+00	1.222862e+00	1.223734e+00	1.223601e+00	1.223130e+00	1.223974e+00	1.223163e+00	1.223035e+00	1.223727e+00	1.222879e+00	1.222834e+00	1.223084e+00	1.223045e+00	1.222904e+00	1.222940e+00	1.222995e+00	1.223207e+00	1.222747e+00	1.222830e+00	1.222803e+00	1.222984e+00	1.222845e+00	1.223151e+00	1.223118e+00	1.223261e+00	1.223186e+00	1.223241e+00	1.223460e+00	1.223336e+00	1.222828e+00	1.223007e+00	1.223266e+00	1.222620e+00	1.222786e+00	1.223420e+00	1.223509e+00	1.223525e+00	1.223461e+00	1.223609e+00	1.223675e+00	1.223564e+00	1.223659e+00	1.223650e+00	1.222939e+00	1.222846e+00	1.222905e+00	1.223521e+00	1.222926e+00	1.223208e+00	1.221652e+00	1.221679e+00	1.222644e+00	1.222769e+00	1.223412e+00	1.223719e+00	1.223712e+00	1.223766e+00	1.223774e+00	1.223794e+00	1.223671e+00	1.222825e+00	1.222660e+00	1.222930e+00	1.223538e+00	1.223200e+00	1.221674e+00	1.223162e+00	1.222716e+00	1.222683e+00	1.222559e+00	1.222887e+00	1.222862e+00	1.222793e+00	1.223124e+00	1.223749e+00	1.223773e+00	1.223827e+00	1.223803e+00	1.223688e+00	1.222633e+00	1.223481e+00	1.223463e+00	1.223059e+00	1.222985e+00	1.223109e+00	1.222945e+00	1.223010e+00	1.223282e+00	1.223662e+00	1.223172e+00	1.223043e+00	1.222746e+00	1.223741e+00	1.223858e+00	1.223877e+00	1.223937e+00	1.223727e+00	1.223636e+00	1.223698e+00	1.223029e+00	1.223091e+00	1.222892e+00	1.223893e+00	1.223351e+00	1.222669e+00	1.222844e+00	1.222626e+00	1.222643e+00	1.222775e+00	1.222818e+00	1.222769e+00	1.223935e+00	1.223556e+00	1.223533e+00	1.223517e+00	1.223585e+00	1.223560e+00	1.223626e+00	1.223892e+00	1.223171e+00	1.223486e+00	1.223475e+00	1.223338e+00	1.223372e+00	1.223409e+00	1.223632e+00	1.222743e+00	1.223404e+00	1.223859e+00	1.223014e+00	1.223035e+00	1.223083e+00	1.223740e+00	1.223059e+00	1.223090e+00	1.222693e+00	1.223293e+00	1.223290e+00	1.223648e+00	1.223081e+00	1.222986e+00	1.222682e+00	1.223674e+00	1.223990e+00	1.223399e+00	1.223907e+00	1.223949e+00	1.222875e+00	1.222710e+00	1.223555e+00	1.223593e+00	1.222646e+00	1.223677e+00	1.222897e+00	1.223826e+00	1.223852e+00	1.223717e+00	1.223822e+00	1.223757e+00	1.223258e+00	1.223521e+00	1.222945e+00	1.223444e+00	1.223686e+00	1.223180e+00	1.223858e+00	1.223957e+00	1.223016e+00	1.222907e+00	1.223863e+00	1.222707e+00	1.223185e+00	1.223992e+00	1.223554e+00	1.223057e+00	1.223164e+00	1.223114e+00	1.223782e+00	1.223726e+00	1.222741e+00	1.223055e+00	1.222838e+00	1.223224e+00	1.223632e+00	1.223235e+00	1.223806e+00	1.222926e+00	1.223617e+00	1.224003e+00	1.222897e+00	1.223340e+00	1.223843e+00	1.223834e+00	1.223149e+00	1.223697e+00	1.223141e+00	1.223843e+00	1.223076e+00	1.222750e+00	1.223084e+00	1.223940e+00	1.223099e+00	1.223040e+00	1.223854e+00	1.223029e+00	1.223982e+00	1.223812e+00	1.223629e+00	1.222715e+00	1.222822e+00	1.223086e+00	1.224860e+00	1.222917e+00	1.223926e+00	1.223047e+00	1.223440e+00	1.223097e+00	1.223956e+00	1.223645e+00	1.223648e+00	1.223695e+00	1.223515e+00	1.222700e+00	1.222853e+00	1.223471e+00	1.222686e+00	1.223243e+00	1.223279e+00	1.223789e+00	1.223308e+00	1.223243e+00	1.223957e+00	1.223569e+00	1.223506e+00	1.223054e+00	1.223569e+00	1.222776e+00	1.223154e+00	1.223904e+00	1.222980e+00	1.223362e+00	1.223038e+00	1.223372e+00	1.223755e+00	1.222918e+00	1.223332e+00	1.223636e+00	1.222802e+00	1.223753e+00	1.223021e+00	1.222223e+00	1.223763e+00	1.223835e+00	1.223334e+00	1.223431e+00	1.222575e+00	1.223627e+00	1.223076e+00	1.223606e+00	1.223865e+00	1.225262e+00	1.223962e+00	1.223747e+00	1.223023e+00	1.223242e+00	1.223565e+00	1.223418e+00	1.223831e+00	1.223031e+00	1.223965e+00	1.222843e+00	1.222796e+00	1.223584e+00	1.222789e+00	1.223578e+00	1.223317e+00	1.223826e+00	1.223812e+00	1.223700e+00	1.223004e+00	1.222998e+00	1.223986e+00	1.223260e+00	1.223467e+00	1.223152e+00	1.223642e+00	1.222788e+00	1.223447e+00	1.223158e+00	1.223013e+00	1.223473e+00	1.223782e+00	1.222812e+00	1.223129e+00	1.222557e+00	1.223292e+00	1.222984e+00	1.223751e+00	1.222722e+00	
SCALARS X-Momentum float 1
LOOKUP_TABLE default
8.435224e+00	2.980268e-01	5.711502e+00	-5.909230e-02	-6.762303e-01	-4.897013e+00	1.625246e+01	1.025243e+01	1.010208e+01	9.872931e+00	9.590214e+00	9.261097e+00	8.942798e+00	8.639027e+00	8.270555e+00	7.944064e+00	7.448148e+00	6.816477e+00	6.100835e+00	5.295539e+00	4.412127e+00	3.577695e+00	2.661075e+00	1.791139e+00	9.646135e-01	-6.648609e-04	1.474085e-01	3.644556e-01	6.046388e-01	8.844491e-01	1.186121e+00	1.501229e+00	1.831878e+00	2.166592e+00	2.432873e+00	2.451127e+00	2.237346e+00	4.484882e+00	5.100080e-01	6.427743e-01	9.674835e-01	1.144514e+00	1.245709e+00	1.268171e+00	1.173620e+00	9.970007e-01	7.860922e-01	5.389331e-01	3.275122e-01	1.813999e-01	-2.127495e+00	-3.825454e+00	-5.255812e+00	-6.536770e+00	-7.570798e+00	-8.317506e+00	-8.838289e+00	-9.053404e+00	-8.478127e+00	-7.518774e+00	-6.546654e+00	-1.017281e+00	4.562140e+00	1.006262e+01	1.404429e+01	1.599174e+01	1.644219e+01	1.558574e+01	1.473226e+01	1.380965e+01	1.303561e+01	1.237231e+01	1.175468e+01	1.118695e+01	1.071715e+01	1.040138e+01	3.063467e+00	1.347634e+00	7.305951e+00	-6.166223e+00	1.249323e+00	2.505094e+00	5.069664e+00	-6.023725e+00	9.506596e+00	1.250963e+01	1.131968e+01	1.388510e+01	4.302368e-01	1.503069e+00	3.163898e+00	-4.545392e+00	1.459108e+00	3.123801e+00	-3.585740e-01	9.807698e-01	9.592902e-01	8.644309e+00	1.037876e+01	1.556759e+01	1.339823e+00	-2.160136e+00	-3.346170e+00	8.287147e+00	7.360493e+00	1.099185e+01	1.414971e+01	1.305826e+01	9.093821e+00	1.187419e+01	1.453409e+01	1.364739e+01	1.055965e+01	1.238970e+01	8.976187e+00	1.064857e+01	1.375971e+01	1.277399e+01	1.443831e+01	1.398051e+01	1.430746e+01	1.376057e+01	1.343646e+01	1.257726e+01	7.073411e+00	1.522000e+01	1.403064e+01	5.342290e+00	4.216908e+00	1.234190e+01	1.142785e+01	1.122022e+01	1.048110e+01	9.920038e+00	9.700581e+00	1.015534e+01	8.948198e+00	9.054981e+00	5.097403e+00	2.897586e+00	2.098987e+00	1.149566e+01	1.472794e+00	1.343616e+01	5.632926e+00	2.353020e+00	6.560892e+00	4.627602e+00	1.224718e+01	8.298432e+00	8.596859e+00	7.905639e+00	7.344358e+00	6.783292e+00	9.188434e+00	3.741306e-01	9.126028e-01	2.271825e-01	1.028740e+01	1.556165e+01	9.088061e+00	1.008278e+01	1.956537e+00	4.064284e+00	7.388648e+00	2.397920e+00	-1.190187e+00	-5.500562e-01	1.076649e+01	7.103339e+00	5.964678e+00	5.808130e+00	4.823795e+00	8.829783e+00	6.547786e+00	1.154175e+01	1.217192e+01	1.266025e+00	2.341708e-01	1.187313e+01	-1.075031e+00	-9.133563e-01	1.530850e+01	9.309073e+00	1.537748e+01	-2.377353e+00	-3.473982e+00	8.298851e+00	4.943373e+00	5.684266e+00	4.014215e+00	6.111555e+00	7.534248e+00	9.014705e+00	1.224502e+00	1.868297e+00	-2.570363e+00	3.713848e+00	1.486982e+01	-1.876388e+00	8.812184e-01	-1.067744e+00	2.427640e+00	6.323525e-01	1.003249e+01	9.271987e+00	4.203960e+00	9.051553e+00	1.090044e+01	1.106671e+01	1.052045e+01	1.069085e+01	1.014803e+01	2.930011e+00	1.119192e+01	1.222243e+01	9.596878e+00	1.304054e+01	1.279521e+01	1.375467e+01	9.699129e+00	3.482328e+00	1.205371e+01	5.023435e+00	-2.002765e+00	-5.712649e-01	-1.425929e+00	9.053789e+00	7.438170e+00	1.568634e+01	8.201694e+00	1.535808e+01	1.451482e+01	9.716624e+00	3.544204e-01	4.486331e-01	-6.430071e+00	4.846148e+00	2.798518e+00	1.297501e+01	3.316761e+00	2.357143e+00	2.177122e+00	3.696725e+00	1.041741e+01	1.003624e+01	1.199348e+01	8.988339e+00	9.798730e+00	6.675807e+00	7.227043e+00	7.764774e+00	6.577818e+00	7.287329e+00	1.538540e+01	1.240750e+01	2.117417e+00	1.001729e+01	5.420639e+00	1.888009e+00	3.910312e+00	4.150157e+00	-5.436601e+00	-6.230734e+00	5.930192e+00	-5.187701e+00	-3.432407e+00	2.203743e+00	1.078908e+01	1.282210e+01	1.616763e+01	1.090880e+00	7.866643e+00	8.297121e+00	4.444652e+00	1.512255e+00	1.733975e+00	1.508416e+01	9.781192e+00	1.469047e+01	3.315919e+00	8.622622e-01	1.007135e+01	3.332024e+00	-4.207685e+00	1.413745e+01	5.734284e+00	2.833572e+00	1.416037e+00	8.700879e+00	1.381206e+00	2.249602e+00	1.019514e+00	2.732439e+00	7.461771e-01	1.196584e+00	7.543338e-02	-3.533988e-01	1.870991e+00	-1.702971e+00	1.702201e+00	6.432802e+00	8.427809e+00	-7.702722e-02	6.301793e+00	4.900020e+00	8.010541e+00	-1.150048e+00	4.957221e+00	1.756264e+00	6.423981e+00	-7.366784e-01	7.715940e-01	9.410344e+00	9.685146e+00	8.126270e+00	1.119433e+01	1.087461e+01	6.711987e+00	1.158826e+01	2.937839e+00	1.468749e+01	1.353882e+01	7.932042e+00	1.583638e+01	1.479620e+01	2.286937e+00	1.073399e+01	1.191472e+01	1.512752e+01	1.023874e+01	3.856365e+00	1.461070e+01	2.696044e+00	-3.588884e+00	1.470690e+01	-2.834636e+00	1.309390e+01	8.546370e+00	-4.065105e+00	1.292731e+01	9.662099e+00	2.577228e+00	7.764335e+00	-3.105784e+00	-3.424646e+00	8.474179e+00	4.259435e+00	4.962682e+00	1.118675e+01	8.256008e+00	8.879912e+00	1.145619e+01	1.007148e+01	3.566113e+00	3.928159e+00	2.002285e+00	8.142317e+00	-7.456601e-01	1.250372e+01	1.021813e+01	1.239149e+01	4.220768e+00	1.607077e+01	1.655263e+00	-3.969923e+00	-2.201798e+00	1.020766e+01	-2.576823e+00	1.085798e+01	1.173839e+01	6.230489e+00	6.737640e+00	9.303769e+00	1.667338e-01	9.302381e-01	6.041640e-01	-9.844087e-01	1.332122e+01	1.464158e+01	3.923639e+00	1.305770e+01	8.521247e+00	1.557289e+01	1.299972e+00	1.161029e+01	6.772725e+00	7.584336e+00	1.772487e+00	5.699886e+00	1.353664e+01	8.198457e+00	3.234747e+00	7.757164e+00	
SCALARS Y-Momentum float 1
LOOKUP_TABLE default
-2.260354e-02	2.924229e-01	7.099967e+00	-7.489822e-01	6.469321e-01	2.313424e-01	5.762647e-02	-1.326692e-02	1.883435e-02	4.787059e-02	6.628869e-02	8.516261e-02	7.250192e-02	1.485636e-02	-4.212686e-03	-2.185975e-04	5.733582e-03	4.440214e-03	1.019644e-02	1.251710e-02	-6.098206e-03	9.911765e-03	5.921331e-04	6.288160e-03	-2.435639e-02	9.405696e-01	1.708983e+00	2.506265e+00	3.387535e+00	4.279518e+00	5.149805e+00	6.007190e+00	6.885065e+00	7.827799e+00	8.648183e+00	9.053577e+00	9.580260e+00	-1.584745e+00	1.806430e+00	2.856352e+00	3.778474e+00	4.459287e+00	4.874594e+00	5.069237e+00	5.009380e+00	4.724868e+00	4.266418e+00	3.622678e+00	2.829716e+00	1.797605e+00	-4.157952e-03	3.296671e-02	2.849174e-02	9.106578e-03	4.112309e-03	1.269892e-02	1.587890e-02	4.032673e-04	-5.408716e-02	-7.745235e-02	-1.020517e-01	-5.734460e-01	-6.366767e-01	-2.232812e-01	4.601426e-01	7.285563e-01	4.494111e-01	1.421329e-02	1.163037e-03	-1.040456e-02	-4.062709e-02	-2.534634e-02	-4.051691e-03	-4.704663e-03	3.705888e-03	-2.345302e-03	9.374631e+00	3.254271e+00	5.145297e-01	-2.864250e-01	4.648515e+00	5.956703e+00	8.190643e-01	5.701106e-01	4.230724e-01	1.589887e-01	4.884436e-01	8.196067e-01	4.054723e+00	3.534323e+00	8.309736e-01	8.417073e-01	4.186318e+00	7.558370e+00	2.846294e+00	1.990436e+00	-9.491654e-01	3.536153e-01	2.837613e-01	7.896412e-01	6.690752e-01	1.053065e+00	-7.011656e-01	2.668973e-01	-6.300034e-01	-4.842233e-02	7.970205e-01	8.457317e-01	4.576018e-02	9.798027e-01	1.763076e+00	1.976484e+00	1.292057e+00	2.254647e+00	1.744795e+00	2.620324e+00	3.327613e+00	3.815895e+00	4.318195e+00	4.933028e+00	4.769600e+00	5.506090e+00	4.534064e+00	5.220993e+00	2.099508e+00	2.531543e+00	3.923674e+00	1.641730e+00	2.307009e+00	3.777581e+00	3.897580e+00	5.337949e+00	3.723278e+00	4.545792e+00	3.294361e+00	2.835185e+00	3.772989e+00	2.728905e+00	2.628949e+00	3.104062e+00	2.576901e+00	2.864995e+00	3.309755e+00	5.704580e+00	1.104151e+00	1.007232e+00	2.449930e+00	2.061745e+00	2.699203e+00	2.885010e+00	2.165162e+00	3.965806e+00	2.680099e+00	3.611356e+00	2.037388e+00	2.516827e+00	1.861578e+00	3.041274e+00	6.528558e+00	2.049776e+00	6.467532e+00	5.646135e+00	2.587841e+00	2.848450e+00	3.154812e+00	3.562476e+00	1.624643e+00	9.309037e-01	8.861878e+00	5.053808e+00	4.556885e+00	3.266179e+00	3.983765e+00	1.591649e+00	3.009925e+00	2.045910e+00	1.792869e+00	3.812835e+00	3.404367e+00	7.712758e+00	2.587671e+00	2.901542e+00	2.419347e+00	1.480315e+00	1.854350e+00	2.020527e+00	6.643068e-01	1.583290e+00	2.741244e+00	2.308410e+00	3.033923e+00	6.515349e+00	6.888464e+00	1.033692e+00	4.061344e+00	4.269903e+00	1.756588e+00	4.083913e+00	3.703647e+00	2.274564e-01	2.877161e-01	-2.122899e-01	-2.756854e-01	-7.974649e-01	3.849785e+00	3.253938e+00	2.022067e+00	5.151437e+00	2.153158e+00	1.548051e+00	1.606253e+00	1.130059e+00	1.131330e+00	3.157978e+00	9.059136e+00	7.992771e+00	1.004916e+01	2.482000e+00	1.387316e+00	2.105738e+00	1.830401e+00	3.300472e+00	1.040774e+00	5.476017e+00	2.308952e+00	3.269307e+00	2.612189e+00	1.038865e+01	1.052301e+01	1.651937e+00	4.882612e-01	9.395772e-01	1.809776e+00	1.309542e+00	3.759969e+00	4.045757e+00	8.166190e-02	7.089534e+00	4.240706e+00	6.425370e-01	2.218354e+00	2.269076e+00	3.930068e+00	-1.015909e+00	6.957241e-01	6.624191e-01	4.377142e+00	4.982936e-01	2.887829e+00	6.245383e-01	1.122681e+00	8.866504e-01	1.411504e+00	1.789519e+00	1.376586e+00	6.368093e+00	4.220766e+00	8.558677e+00	8.342806e+00	4.088323e+00	6.261396e+00	9.825409e-01	6.926775e-01	3.922041e-01	7.315500e-01	-4.981224e-01	1.020641e+00	7.857155e-01	3.721182e-01	6.733741e+00	9.533984e-01	4.222736e+00	4.088479e-01	6.979286e-01	4.035673e-01	4.289729e+00	3.691924e+00	3.145309e+00	3.954419e-01	7.491558e-01	5.200574e+00	2.363076e+00	2.964204e-01	8.622733e+00	1.040666e+00	3.070240e+00	1.493179e+00	6.731478e+00	3.699317e+00	7.494855e-01	4.489170e+00	5.149316e+00	4.609486e+00	1.164435e+00	4.403446e+00	2.757890e+00	3.545975e+00	3.390521e+00	4.308779e+00	2.079690e+00	1.544539e+00	2.627316e+00	8.844571e+00	-1.013885e+00	2.842233e+00	-6.166267e-01	4.446077e+00	2.183786e+00	1.730334e+00	4.151314e+00	1.128706e+01	1.999771e+00	1.232112e+00	1.067489e+00	8.225219e-01	5.390713e+00	1.010039e+00	5.117869e+00	1.073320e+00	1.365701e+00	1.943599e+00	2.577712e+00	1.327413e+00	2.071119e+00	1.339945e+00	1.355901e+00	3.584843e+00	2.847698e+00	4.732417e-01	1.507370e+00	2.158569e+00	3.236010e+00	2.907331e+00	1.547425e+00	1.454811e+00	3.759590e+00	1.748965e+00	3.472790e+00	1.128200e+00	1.246318e+00	6.952984e+00	2.460195e+00	3.867328e+00	1.417072e+00	-5.519180e-01	-5.232762e-01	1.188643e-01	8.699161e+00	1.021490e+01	8.144362e+00	3.397075e+00	6.920008e+00	3.674830e+00	1.585036e+00	1.512729e+00	1.105160e+01	2.909649e+00	1.107924e+00	2.916584e+00	5.236303e+00	1.196820e-01	6.444208e-01	4.908832e+00	4.661831e-01	2.280776e+00	-6.786222e-02	-8.640927e-01	4.883132e-01	1.439737e+00	7.438711e-01	7.047855e+00	1.980337e+00	8.731449e+00	6.647550e-01	3.856225e+00	4.296141e+00	5.638842e-01	1.031332e+00	6.314779e+00	4.227694e+00	7.552837e+00	4.465544e+00	4.495815e+00	1.341726e+00	4.409879e+00	8.367851e-01	2.082961e+00	-6.163646e-01	4.260247e+00	-9.441933e-02	3.234857e+00	9.076577e+00	5.929669e+00	2.443104e+00	
SCALARS Energy float 1
LOOKUP_TABLE default