# vtk DataFile Version 3.0
vtk output
ASCII
DATASET UNSTRUCTURED_GRID
POINTS 394 float
-3.000000e+00	0.000000e+00	0.0	-5.000000e-02	1.183177e-17	0.0	2.705500e-02	1.004467e+00	0.0	1.270909e-01	9.955666e-01	0.0	5.000000e-02	-1.819963e-18	0.0	3.000000e+00	0.000000e+00	0.0	3.000000e+00	4.000000e+00	0.0	-3.000000e+00	4.000000e+00	0.0	-3.000000e+00	3.428571e+00	0.0	-3.000000e+00	2.857143e+00	0.0	-3.000000e+00	2.285714e+00	0.0	-3.000000e+00	1.714286e+00	0.0	-3.000000e+00	1.142857e+00	0.0	-3.000000e+00	5.714286e-01	0.0	-2.473871e+00	0.000000e+00	0.0	-2.029066e+00	0.000000e+00	0.0	-1.653013e+00	0.000000e+00	0.0	-1.335087e+00	0.000000e+00	0.0	-1.066302e+00	0.000000e+00	0.0	-8.390627e-01	0.000000e+00	0.0	-6.469477e-01	0.000000e+00	0.0	-4.845277e-01	0.000000e+00	0.0	-3.472127e-01	0.000000e+00	0.0	-2.311224e-01	0.000000e+00	0.0	-1.329760e-01	0.000000e+00	0.0	-4.859403e-02	7.826179e-02	0.0	-4.548095e-02	1.562489e-01	0.0	-4.093087e-02	2.339703e-01	0.0	-3.533137e-02	3.114774e-01	0.0	-2.898136e-02	3.888119e-01	0.0	-2.212549e-02	4.659987e-01	0.0	-1.498299e-02	5.430539e-01	0.0	-7.751126e-03	6.199998e-01	0.0	-5.836404e-04	6.968793e-01	0.0	6.458212e-03	7.737416e-01	0.0	1.336691e-02	8.506272e-01	0.0	2.026813e-02	9.275394e-01	0.0	7.707263e-02	1.000051e+00	0.0	1.202064e-01	9.186297e-01	0.0	1.133546e-01	8.416588e-01	0.0	1.064312e-01	7.646652e-01	0.0	9.939424e-02	6.876536e-01	0.0	9.222909e-02	6.106630e-01	0.0	8.500081e-02	5.337452e-01	0.0	7.785982e-02	4.569434e-01	0.0	7.100618e-02	3.802801e-01	0.0	6.465919e-02	3.037727e-01	0.0	5.906418e-02	2.274492e-01	0.0	5.452292e-02	1.513526e-01	0.0	5.139432e-02	7.552801e-02	0.0	1.329760e-01	0.000000e+00	0.0	2.311224e-01	0.000000e+00	0.0	3.472127e-01	0.000000e+00	0.0	4.845277e-01	0.000000e+00	0.0	6.469477e-01	0.000000e+00	0.0	8.390627e-01	0.000000e+00	0.0	1.066302e+00	0.000000e+00	0.0	1.335087e+00	0.000000e+00	0.0	1.653013e+00	0.000000e+00	0.0	2.029066e+00	0.000000e+00	0.0	2.473871e+00	0.000000e+00	0.0	3.000000e+00	5.714286e-01	0.0	3.000000e+00	1.142857e+00	0.0	3.000000e+00	1.714286e+00	0.0	3.000000e+00	2.285714e+00	0.0	3.000000e+00	2.857143e+00	0.0	3.000000e+00	3.428571e+00	0.0	2.400000e+00	4.000000e+00	0.0	1.800000e+00	4.000000e+00	0.0	1.200000e+00	4.000000e+00	0.0	6.000000e-01	4.000000e+00	0.0	0.000000e+00	4.000000e+00	0.0	-6.000000e-01	4.000000e+00	0.0	-1.200000e+00	4.000000e+00	0.0	-1.800000e+00	4.000000e+00	0.0	-2.400000e+00	4.000000e+00	0.0	-6.745816e-02	8.945930e-01	0.0	1.642910e-01	8.808894e-01	0.0	-1.480663e+00	2.548152e-01	0.0	1.504063e+00	2.223579e-01	0.0	1.329983e-01	5.675952e-01	0.0	-9.801952e-02	5.831443e-01	0.0	-7.440562e-01	1.665114e-01	0.0	7.499213e-01	1.537692e-01	0.0	-2.581905e+00	2.079856e+00	0.0	2.526659e+00	1.941088e+00	0.0	-9.183154e-01	3.510407e+00	0.0	9.258268e-01	3.458033e+00	0.0	1.228918e-01	3.417968e-01	0.0	-1.115029e-01	3.496142e-01	0.0	-4.131403e-01	1.133778e-01	0.0	4.174716e-01	1.067489e-01	0.0	1.508234e-01	7.215631e-01	0.0	-8.685282e-02	7.379036e-01	0.0	1.235443e-01	1.931106e-01	0.0	-1.198707e-01	1.969604e-01	0.0	2.527662e+00	8.094073e-01	0.0	-2.501238e+00	7.910441e-01	0.0	-2.053878e+00	3.453881e+00	0.0	2.071216e+00	3.436314e+00	0.0	-1.835254e-01	7.567401e-02	0.0	1.843381e-01	7.380484e-02	0.0	2.227036e+00	3.926281e-01	0.0	-2.249294e+00	3.591072e-01	0.0	2.475100e+00	1.399275e+00	0.0	2.101575e+00	1.703880e+00	0.0	2.081054e+00	2.110269e+00	0.0	1.741216e+00	1.856024e+00	0.0	1.724378e+00	1.463274e+00	0.0	1.433249e+00	1.659150e+00	0.0	1.408742e+00	1.999493e+00	0.0	1.157171e+00	1.791915e+00	0.0	1.166502e+00	1.498355e+00	0.0	9.362280e-01	1.609753e+00	0.0	9.428535e-01	1.367702e+00	0.0	7.277243e-01	1.438537e+00	0.0	7.089760e-01	1.691759e+00	0.0	5.261716e-01	1.545193e+00	0.0	5.013271e-01	1.774945e+00	0.0	3.324037e-01	1.656746e+00	0.0	2.954450e-01	1.868542e+00	0.0	1.368384e-01	1.736901e+00	0.0	8.067298e-02	1.961148e+00	0.0	-9.017199e-02	1.784576e+00	0.0	7.685265e-01	1.230262e+00	0.0	1.112040e+00	2.124962e+00	0.0	3.001582e-01	2.133329e+00	0.0	9.285537e-01	1.125194e+00	0.0	7.576710e-01	1.043965e+00	0.0	-1.572745e-01	2.067930e+00	0.0	-3.632812e-01	1.898960e+00	0.0	-2.928897e-01	1.620257e+00	0.0	-5.722803e-01	1.731004e+00	0.0	-5.161359e-01	1.481251e+00	0.0	-7.766764e-01	1.564004e+00	0.0	-8.028771e-01	1.806303e+00	0.0	-7.234267e-01	1.305762e+00	0.0	-9.943039e-01	1.390968e+00	0.0	6.193979e-01	1.119192e+00	0.0	6.087977e-01	9.533230e-01	0.0	7.462379e-01	8.662441e-01	0.0	-4.291757e-01	2.187786e+00	0.0	5.961851e-01	7.838678e-01	0.0	1.766735e-01	1.514613e+00	0.0	7.759803e-02	1.047350e+00	0.0	1.378610e-01	1.036905e+00	0.0	1.054305e-01	1.100489e+00	0.0	1.759220e-01	1.100230e+00	0.0	-1.857802e-01	2.375870e+00	0.0	-9.333001e-01	1.124157e+00	0.0	-1.221675e+00	1.205460e+00	0.0	-6.733527e-01	1.044039e+00	0.0	-9.030214e-01	8.424166e-01	0.0	-6.535827e-01	8.149579e-01	0.0	-1.285484e+00	1.508113e+00	0.0	7.322617e-01	6.945705e-01	0.0	8.916343e-01	7.718565e-01	0.0	5.792548e-01	6.283367e-01	0.0	-3.043021e-01	1.372195e+00	0.0	1.376705e+00	2.354404e+00	0.0	2.889017e-02	1.093076e+00	0.0	6.661723e-02	1.167846e+00	0.0	2.085257e-01	1.023360e+00	0.0	2.587285e-01	1.096871e+00	0.0	2.137731e-01	1.177553e+00	0.0	2.969843e-01	1.006232e+00	0.0	8.713300e-01	5.958632e-01	0.0	1.065644e+00	6.846355e-01	0.0	-2.394663e-02	1.162055e+00	0.0	-4.822986e-01	9.363848e-01	0.0	-4.610822e-01	7.569550e-01	0.0	-6.043246e-01	6.299429e-01	0.0	-4.134094e-01	5.931547e-01	0.0	-1.542058e+00	1.297338e+00	0.0	3.232451e-01	1.184739e+00	0.0	-4.921517e-01	2.511125e+00	0.0	-2.145245e-01	2.732759e+00	0.0	4.584164e-01	7.062139e-01	0.0	4.418097e-01	5.603286e-01	0.0	2.199307e-02	1.253581e+00	0.0	5.566763e-01	4.812538e-01	0.0	4.225328e-01	4.209044e-01	0.0	1.050318e+00	2.491631e+00	0.0	-1.611620e+00	1.640312e+00	0.0	1.334291e+00	2.737029e+00	0.0	5.262638e-01	3.422167e-01	0.0	1.039769e+00	4.208160e-01	0.0	-1.461643e+00	1.003295e+00	0.0	-5.495885e-01	4.662706e-01	0.0	-7.159124e-01	4.934368e-01	0.0	-3.995103e-01	4.302392e-01	0.0	-3.155826e-01	8.853921e-01	0.0	-3.457851e-01	1.040836e+00	0.0	-1.980751e+00	1.416756e+00	0.0	3.296441e-01	6.394197e-01	0.0	3.565945e-01	7.754443e-01	0.0	6.750528e-01	3.971092e-01	0.0	-2.907460e-01	5.196839e-01	0.0	6.517970e-01	1.954239e+00	0.0	1.238201e+00	5.879851e-01	0.0	1.268547e+00	8.096584e-01	0.0	1.470489e+00	6.637917e-01	0.0	1.509790e+00	9.415780e-01	0.0	1.785510e+00	8.005314e-01	0.0	2.602563e-01	1.280522e+00	0.0	3.834509e-01	1.283020e+00	0.0	-5.067190e-01	3.137668e-01	0.0	-4.943690e-01	1.276262e+00	0.0	-7.565323e-01	2.293031e+00	0.0	-8.403155e-01	2.656510e+00	0.0	-1.129527e+00	2.429782e+00	0.0	-1.218930e+00	2.803188e+00	0.0	-1.589606e+00	2.465340e+00	0.0	-2.630741e-01	3.843227e-01	0.0	-8.890597e-02	1.245529e+00	0.0	-4.679362e-02	1.356610e+00	0.0	-1.241595e-01	1.145383e+00	0.0	1.278937e-01	2.562603e+00	0.0	1.314467e-01	3.017916e+00	0.0	4.609202e-01	2.776723e+00	0.0	-1.334080e+00	1.849767e+00	0.0	4.846697e-01	1.031608e+00	0.0	-2.872348e-01	3.149553e+00	0.0	-3.117051e-01	7.278111e-01	0.0	3.964580e-01	2.906211e-01	0.0	2.856522e-01	3.652034e-01	0.0	2.751016e-01	2.540073e-01	0.0	-5.875654e-02	1.083928e+00	0.0	-1.428665e-01	1.047682e+00	0.0	1.693603e+00	2.594849e+00	0.0	1.377815e+00	1.352105e+00	0.0	2.454564e+00	2.504524e+00	0.0	9.163774e-01	2.906897e+00	0.0	-1.675260e+00	2.010259e+00	0.0	3.043190e-01	4.988632e-01	0.0	2.076238e-01	4.388445e-01	0.0	1.208495e+00	2.033033e-01	0.0	-2.170018e-01	8.125583e-01	0.0	-1.918262e-01	4.688136e-01	0.0	3.751739e-01	3.515584e+00	0.0	-3.634535e-01	2.960986e-01	0.0	-2.475765e-01	2.682085e-01	0.0	4.638435e-01	8.763754e-01	0.0	2.121661e+00	1.068602e+00	0.0	-1.661759e+00	3.021297e+00	0.0	-2.013198e+00	2.670953e+00	0.0	3.128416e-01	1.400916e+00	0.0	-2.486440e+00	1.302102e+00	0.0	5.558331e-01	1.352072e+00	0.0	-1.192427e+00	2.254583e-01	0.0	-1.306420e+00	4.796036e-01	0.0	-1.592066e+00	5.318838e-01	0.0	-1.036775e+00	4.448111e-01	0.0	-1.141286e+00	6.947954e-01	0.0	1.650057e+00	3.041448e+00	0.0	-9.412298e-02	1.591993e+00	0.0	3.472932e-01	8.975340e-01	0.0	-2.077086e-01	1.231004e+00	0.0	-2.071407e-01	9.045668e-01	0.0	2.518656e-01	8.267454e-01	0.0	-1.914398e-01	6.935732e-01	0.0	-5.592095e-01	1.655921e-01	0.0	5.686409e-01	1.216306e-01	0.0	9.678590e-01	1.978525e-01	0.0	-9.506029e-01	1.951746e-01	0.0	1.830669e+00	2.727632e-01	0.0	2.931573e-01	8.898654e-02	0.0	-2.832012e-01	9.423707e-02	0.0	-1.480333e+00	3.527228e+00	0.0	8.467688e-02	1.366579e+00	0.0	2.525260e+00	3.103416e+00	0.0	2.464009e-01	5.718585e-01	0.0	-1.829729e+00	3.004503e-01	0.0	-1.969826e+00	6.862916e-01	0.0	1.318814e+00	1.074458e+00	0.0	2.316708e-01	6.690438e-01	0.0	2.380677e-01	9.314007e-01	0.0	7.817754e-01	2.237583e+00	0.0	-2.525542e+00	2.527752e+00	0.0	1.449473e+00	3.513256e+00	0.0	-2.004296e-01	5.846660e-01	0.0	1.598741e-01	9.641224e-01	0.0	-2.455009e+00	3.077837e+00	0.0	-7.731593e-02	8.151978e-01	0.0	8.280283e-01	3.108240e-01	0.0	4.567274e-01	2.419625e+00	0.0	-8.213513e-01	3.311783e-01	0.0	-9.297182e-02	6.605407e-01	0.0	1.600343e-01	7.991401e-01	0.0	-2.144730e+00	1.053502e+00	0.0	1.402921e-01	6.474582e-01	0.0	-1.119096e-01	5.118872e-01	0.0	1.305495e-01	4.923006e-01	0.0	1.073602e+00	9.286859e-01	0.0	1.273416e-01	4.144491e-01	0.0	-1.128973e-01	2.718309e-01	0.0	1.199788e-01	2.665967e-01	0.0	1.960263e-01	3.029638e-01	0.0	-1.135417e-01	4.285840e-01	0.0	2.186250e-01	1.622210e-01	0.0	-2.112177e-01	1.713049e-01	0.0	-7.910257e-01	6.471857e-01	0.0	-2.326252e-01	1.112695e+00	0.0	2.121751e+00	7.298668e-01	0.0	4.747027e-01	1.181653e+00	0.0	1.789410e+00	1.139414e+00	0.0	2.925652e-02	1.046347e+00	0.0	7.074079e-01	5.425976e-01	0.0	-6.497506e-01	3.231326e-01	0.0	2.198194e-01	7.596370e-01	0.0	-7.174183e-02	1.013655e+00	0.0	1.162121e-01	1.144119e-01	0.0	-1.162611e-01	1.177309e-01	0.0	-1.930026e+00	1.788023e+00	0.0	-2.070931e+00	2.174479e+00	0.0	-4.776017e-01	1.108212e+00	0.0	-8.923526e-01	3.063448e+00	0.0	1.225292e-01	1.248394e+00	0.0	1.135209e+00	1.224225e+00	0.0	-5.561851e-01	2.896053e+00	0.0	8.798039e-01	9.467296e-01	0.0	7.337604e-01	2.566384e+00	0.0	5.629367e-01	3.134991e+00	0.0	-1.176651e+00	9.317914e-01	0.0	2.072335e+00	2.859694e+00	0.0	1.269270e+00	3.135
[...]
POINT_DATA 394

SCALARS Density float 1
LOOKUP_TABLE default
1.223752e+00	1.223953e+00	1.222333e+00	1.222028e+00	1.223548e+00	1.223774e+00	1.223250e+00	1.223611e+00	1.223593e+00	1.223608e+00	1.223656e+00	1.223686e+00	1.223764e+00	1.223768e+00	1.223779e+00	1.223758e+00	1.223791e+00	1.223813e+00	1.223849e+00	1.223872e+00	1.223895e+00	1.223936e+00	1.223916e+00	1.223980e+00	1.223910e+00	1.223991e+00	1.223911e+00	1.223928e+00	1.223928e+00	1.223913e+00	1.223901e+00	1.223863e+00	1.223859e+00	1.223779e+00	1.223860e+00	1.223070e+00	1.224848e+00	1.220643e+00	1.223890e+00	1.223524e+00	1.223543e+00	1.223483e+00	1.223435e+00	1.223411e+00	1.223412e+00	1.223417e+00	1.223443e+00	1.223477e+00	1.223417e+00	1.223641e+00	1.223420e+00	1.223527e+00	1.223444e+00	1.223376e+00	1.223331e+00	1.223300e+00	1.223207e+00	1.223252e+00	1.223247e+00	1.223374e+00	1.222905e+00	1.223498e+00	1.223177e+00	1.222971e+00	1.222848e+00	1.222943e+00	1.223083e+00	1.223106e+00	1.223230e+00	1.223273e+00	1.223361e+00	1.223419e+00	1.223501e+00	1.223558e+00	1.223593e+00	1.223595e+00	1.223373e+00	1.223741e+00	1.223801e+00	1.223188e+00	1.223458e+00	1.223813e+00	1.223857e+00	1.223297e+00	1.223654e+00	1.223300e+00	1.223529e+00	1.223309e+00	1.223447e+00	1.223890e+00	1.223917e+00	1.223414e+00	1.223573e+00	1.223655e+00	1.223533e+00	1.223931e+00	1.223045e+00	1.223752e+00	1.223618e+00	1.223112e+00	1.223947e+00	1.223508e+00	1.223294e+00	1.223746e+00	1.222980e+00	1.222968e+00	1.223127e+00	1.223120e+00	1.223078e+00	1.223058e+00	1.223046e+00	1.223278e+00	1.222957e+00	1.222986e+00	1.223024e+00	1.223182e+00	1.222938e+00	1.223221e+00	1.223163e+00	1.223271e+00	1.223211e+00	1.223259e+00	1.223475e+00	1.223358e+00	1.223181e+00	1.223036e+00	1.223279e+00	1.222985e+00	1.223191e+00	1.223438e+00	1.223533e+00	1.223552e+00	1.223496e+00	1.223638e+00	1.223694e+00	1.223593e+00	1.223688e+00	1.223672e+00	1.223283e+00	1.223268e+00	1.223306e+00	1.223554e+00	1.223344e+00	1.223258e+00	1.222382e+00	1.222216e+00	1.222853e+00	1.223088e+00	1.223430e+00	1.223733e+00	1.223732e+00	1.223784e+00	1.223781e+00	1.223804e+00	1.223693e+00	1.223233e+00	1.223073e+00	1.223334e+00	1.223560e+00	1.223204e+00	1.222002e+00	1.223280e+00	1.223194e+00	1.223077e+00	1.222868e+00	1.223292e+00	1.223244e+00	1.223156e+00	1.223173e+00	1.223762e+00	1.223771e+00	1.223834e+00	1.223820e+00	1.223699e+00	1.222986e+00	1.223508e+00	1.223487e+00	1.223455e+00	1.223381e+00	1.223161e+00	1.223328e+00	1.223381e+00	1.223280e+00	1.223680e+00	1.223149e+00	1.223424e+00	1.223089e+00	1.223756e+00	1.223859e+00	1.223879e+00	1.223910e+00	1.223784e+00	1.223675e+00	1.223715e+00	1.223423e+00	1.223478e+00	1.223265e+00	1.223901e+00	1.223345e+00	1.223038e+00	1.223173e+00	1.222951e+00	1.222951e+00	1.223050e+00	1.223028e+00	1.223002e+00	1.223936e+00	1.223608e+00	1.223552e+00	1.223538e+00	1.223604e+00	1.223578e+00	1.223645e+00	1.223885e+00	1.223224e+00	1.223498e+00	1.223504e+00	1.223369e+00	1.223390e+00	1.223413e+00	1.223649e+00	1.223189e+00	1.223418e+00	1.223868e+00	1.223383e+00	1.223411e+00	1.223442e+00	1.223736e+00	1.223089e+00	1.223090e+00	1.222937e+00	1.223306e+00	1.223302e+00	1.223667e+00	1.223453e+00	1.223375e+00	1.223026e+00	1.223738e+00	1.223966e+00	1.223412e+00	1.223885e+00	1.223930e+00	1.223322e+00	1.222957e+00	1.223571e+00	1.223609e+00	1.222789e+00	1.223698e+00	1.223131e+00	1.223831e+00	1.223863e+00	1.223732e+00	1.223828e+00	1.223774e+00	1.223269e+00	1.223525e+00	1.223378e+00	1.223459e+00	1.223716e+00	1.223574e+00	1.223861e+00	1.223937e+00	1.223365e+00	1.223255e+00	1.223861e+00	1.223006e+00	1.223528e+00	1.223964e+00	1.223567e+00	1.223132e+00	1.223161e+00	1.223490e+00	1.223797e+00	1.223741e+00	1.223039e+00	1.223452e+00	1.223293e+00	1.223226e+00	1.223650e+00	1.223236e+00	1.223819e+00	1.223318e+00	1.223635e+00	1.223970e+00	1.223249e+00	1.223346e+00	1.223853e+00	1.223857e+00	1.223550e+00	1.223715e+00	1.223514e+00	1.223849e+00	1.223441e+00	1.223102e+00	1.223452e+00	1.223918e+00	1.223465e+00	1.223415e+00	1.223854e+00	1.223393e+00	1.223957e+00	1.223836e+00	1.223664e+00	1.222994e+00	1.223140e+00	1.223311e+00	1.224279e+00	1.223308e+00	1.223927e+00	1.223465e+00	1.223495e+00	1.223459e+00	1.223930e+00	1.223663e+00	1.223666e+00	1.223721e+00	1.223534e+00	1.222876e+00	1.223135e+00	1.223490e+00	1.223092e+00	1.223248e+00	1.223305e+00	1.223806e+00	1.223308e+00	1.223238e+00	1.223951e+00	1.223596e+00	1.223523e+00	1.223080e+00	1.223593e+00	1.223203e+00	1.223191e+00	1.223888e+00	1.223331e+00	1.223365e+00	1.223386e+00	1.223378e+00	1.223776e+00	1.223268e+00	1.223328e+00	1.223656e+00	1.223262e+00	1.223764e+00	1.223327e+00	1.222504e+00	1.223792e+00	1.223849e+00	1.223481e+00	1.223470e+00	1.222897e+00	1.223658e+00	1.223188e+00	1.223627e+00	1.223874e+00	1.224857e+00	1.223944e+00	1.223765e+00	1.223381e+00	1.223324e+00	1.223578e+00	1.223439e+00	1.223858e+00	1.223035e+00	1.223947e+00	1.223174e+00	1.223088e+00	1.223605e+00	1.223192e+00	1.223595e+00	1.223348e+00	1.223834e+00	1.223834e+00	1.223718e+00	1.223368e+00	1.223373e+00	1.223959e+00	1.223591e+00	1.223491e+00	1.223150e+00	1.223700e+00	1.222940e+00	1.223493e+00	1.223163e+00	1.223407e+00	1.223494e+00	1.223792e+00	1.223006e+00	1.223500e+00	1.222825e+00	1.223328e+00	1.223125e+00	1.223789e+00	1.223034e+00	
SCALARS X-Momentum float 1
LOOKUP_TABLE default
8.003862e+00	2.408944e-01	4.484261e+00	6.362890e-01	-6.155826e-01	-5.151463e+00	1.646290e+01	1.001115e+01	9.846126e+00	9.596473e+00	9.290934e+00	8.935264e+00	8.585124e+00	8.239138e+00	7.819440e+00	7.468615e+00	6.940588e+00	6.285790e+00	5.558614e+00	4.758493e+00	3.908765e+00	3.123063e+00	2.289224e+00	1.518431e+00	8.045622e-01	-2.272822e-02	4.907463e-02	1.485481e-01	2.361386e-01	3.361788e-01	4.463056e-01	5.577938e-01	6.725212e-01	7.846991e-01	8.584021e-01	8.546377e-01	6.666796e-01	4.704652e+00	6.513155e-01	5.233562e-01	5.796036e-01	5.754635e-01	5.784571e-01	5.703068e-01	5.151714e-01	4.290414e-01	3.420547e-01	2.356970e-01	1.570153e-01	1.162148e-01	-1.916505e+00	-3.463999e+00	-4.805198e+00	-6.057861e+00	-7.107403e+00	-7.891620e+00	-8.474563e+00	-8.760293e+00	-8.280248e+00	-7.463547e+00	-6.645561e+00	-1.464268e+00	3.937017e+00	9.433761e+00	1.361253e+01	1.583738e+01	1.652215e+01	1.581688e+01	1.491370e+01	1.390288e+01	1.303665e+01	1.229297e+01	1.161517e+01	1.100694e+01	1.050931e+01	1.017334e+01	1.503507e+00	1.163581e+00	6.794625e+00	-6.006732e+00	5.927842e-01	1.441608e+00	4.511976e+00	-5.736950e+00	9.194392e+00	1.204535e+01	1.111564e+01	1.386440e+01	-5.295053e-03	9.772818e-01	2.704346e+00	-4.264532e+00	9.139544e-01	1.701877e+00	-5.152917e-01	7.119878e-01	6.167106e-01	8.245737e+00	1.013300e+01	1.564559e+01	1.095732e+00	-2.013285e+00	-3.462013e+00	7.847678e+00	6.887222e+00	1.057367e+01	1.379394e+01	1.265764e+01	8.744202e+00	1.148455e+01	1.414691e+01	1.320442e+01	1.020730e+01	1.191741e+01	8.708597e+00	1.021040e+01	1.313592e+01	1.205998e+01	1.373649e+01	1.315095e+01	1.365730e+01	1.300240e+01	1.290468e+01	1.196328e+01	6.933370e+00	1.483613e+01	1.359535e+01	5.295180e+00	4.196529e+00	1.193286e+01	1.097628e+01	1.058409e+01	9.989198e+00	9.287618e+00	9.182018e+00	9.723334e+00	8.293904e+00	8.546856e+00	5.067383e+00	2.869308e+00	2.051667e+00	1.115279e+01	1.291282e+00	1.244943e+01	5.383923e+00	2.635324e+00	6.161252e+00	4.566486e+00	1.194785e+01	7.712413e+00	8.115774e+00	7.138611e+00	6.709997e+00	5.988717e+00	8.762698e+00	2.605332e-01	9.128820e-01	-4.090697e-02	9.457570e+00	1.529361e+01	7.958674e+00	8.994391e+00	2.171813e+00	4.097775e+00	6.946908e+00	2.475794e+00	-1.187168e+00	-5.053073e-01	9.411538e+00	6.108326e+00	4.970106e+00	5.036309e+00	3.925247e+00	8.411997e+00	6.333654e+00	1.125964e+01	1.193483e+01	8.810479e-01	-1.593668e-01	1.060535e+01	-1.288738e+00	-1.188294e+00	1.508039e+01	8.934627e+00	1.525094e+01	-2.445183e+00	-3.357680e+00	7.837081e+00	4.247131e+00	5.036281e+00	3.299305e+00	4.853066e+00	6.393701e+00	8.639813e+00	6.968740e-01	1.428130e+00	-2.598710e+00	2.850929e+00	1.431999e+01	-1.811649e+00	8.698617e-01	-1.060147e+00	2.315963e+00	5.104962e-01	9.299369e+00	8.768603e+00	3.599106e+00	8.269367e+00	1.057609e+01	1.078908e+01	1.021081e+01	1.041635e+01	9.844872e+00	2.263811e+00	9.972011e+00	1.111236e+01	8.270136e+00	1.279100e+01	1.262826e+01	1.358501e+01	9.326564e+00	3.517476e+00	1.185893e+01	3.850488e+00	-2.099957e+00	-8.843362e-01	-1.548682e+00	7.584115e+00	6.001796e+00	1.551845e+01	7.932078e+00	1.510583e+01	1.440907e+01	9.379327e+00	-1.167520e-01	-5.743352e-02	-6.208244e+00	3.439415e+00	1.997285e+00	1.288933e+01	2.740641e+00	1.857866e+00	1.993443e+00	3.416947e+00	1.015237e+01	9.750213e+00	1.111602e+01	8.628050e+00	9.340232e+00	6.135176e+00	6.701453e+00	7.280260e+00	6.005915e+00	6.733507e+00	1.535254e+01	1.163511e+01	1.912968e+00	8.921314e+00	3.922353e+00	1.487926e+00	2.652790e+00	3.613622e+00	-5.142188e+00	-5.965739e+00	5.368415e+00	-5.135056e+00	-3.200644e+00	1.843482e+00	1.056227e+01	1.165099e+01	1.615308e+01	5.027195e-01	7.391088e+00	7.859197e+00	4.319490e+00	9.177395e-01	1.645094e+00	1.471028e+01	9.489046e+00	1.474191e+01	2.299144e+00	1.024643e+00	9.803215e+00	1.751550e+00	-4.072803e+00	1.384969e+01	5.140268e+00	1.589569e+00	1.034041e+00	8.305769e+00	7.517519e-01	1.365930e+00	3.951947e-01	2.726631e+00	1.990179e-01	8.150313e-01	-2.267729e-01	-6.482283e-01	1.176051e+00	-1.695751e+00	1.355487e+00	5.764233e+00	7.205456e+00	-2.450506e-01	6.183205e+00	4.651157e+00	7.064143e+00	-1.267355e+00	4.354383e+00	1.224771e+00	4.864865e+00	-7.651110e-01	5.940711e-01	9.065903e+00	9.369945e+00	7.213923e+00	1.095167e+01	9.850987e+00	6.545671e+00	1.134872e+01	2.950874e+00	1.447705e+01	1.343859e+01	7.405260e+00	1.575310e+01	1.476375e+01	1.640470e+00	1.034389e+01	1.174958e+01	1.481866e+01	9.872829e+00	3.915691e+00	1.410165e+01	2.237097e+00	-3.481074e+00	1.428138e+01	-2.756735e+00	1.272851e+01	8.126478e+00	-3.942515e+00	1.193707e+01	9.231288e+00	2.568633e+00	7.265624e+00	-3.074638e+00	-3.672086e+00	8.049972e+00	2.672421e+00	3.429215e+00	1.017211e+01	7.572731e+00	7.899833e+00	1.074465e+01	9.737968e+00	3.035645e+00	2.312341e+00	1.480435e+00	7.684920e+00	-9.142931e-01	1.142934e+01	9.970059e+00	1.225011e+01	3.171082e+00	1.621208e+01	1.249864e+00	-3.861187e+00	-2.263805e+00	9.940384e+00	-2.549996e+00	1.061230e+01	1.087357e+01	5.614922e+00	5.358712e+00	8.967254e+00	-2.624061e-01	3.383340e-01	4.848177e-01	-9.236039e-01	1.247106e+01	1.408867e+01	2.463108e+00	1.218405e+01	7.736996e+00	1.534535e+01	6.674504e-01	1.140093e+01	6.167579e+00	7.215343e+00	1.230416e+00	5.486893e+00	1.322603e+01	6.878453e+00	2.082140e+00	7.547156e+00	
SCALARS Y-Momentum float 1
LOOKUP_TABLE default
-2.454045e-02	2.364012e-01	7.122568e+00	-3.738142e-01	5.928967e-01	2.223641e-01	6.455640e-02	-1.354482e-02	2.204637e-02	5.270020e-02	7.436741e-02	9.704973e-02	8.496423e-02	2.179741e-02	-4.011444e-03	1.732295e-04	5.577555e-03	3.433064e-03	9.313697e-03	1.093356e-02	-8.897791e-03	3.134118e-03	-2.069898e-03	6.593633e-03	-1.902661e-02	7.474322e-01	1.342781e+00	1.973296e+00	2.688631e+00	3.439214e+00	4.191418e+00	4.951559e+00	5.744855e+00	6.617561e+00	7.399771e+00	7.825275e+00	8.470578e+00	-4.941979e-01	2.158813e+00	3.193082e+00	4.047489e+00	4.641601e+00	4.979849e+00	5.096808e+00	4.972275e+00	4.636069e+00	4.143554e+00	3.485007e+00	2.685689e+00	1.676289e+00	-5.166326e-03	2.618620e-02	2.878031e-02	1.189862e-02	9.607322e-03	2.105680e-02	2.255694e-02	2.116196e-03	-5.473809e-02	-7.478041e-02	-9.676817e-02	-5.112385e-01	-5.839299e-01	-2.470458e-01	3.857338e-01	6.685657e-01	4.287581e-01	1.618345e-02	6.329526e-03	-2.736976e-03	-3.732505e-02	-2.321439e-02	-2.130271e-03	-4.620893e-03	4.740366e-03	-1.489964e-03	8.372861e+00	3.495084e+00	5.072983e-01	-2.425848e-01	4.776688e+00	5.051488e+00	7.305293e-01	6.468842e-01	4.463783e-01	1.495305e-01	5.252096e-01	8.791231e-01	4.030483e+00	2.890111e+00	7.005611e-01	9.036771e-01	4.415412e+00	6.570191e+00	2.785715e+00	1.596525e+00	-8.265370e-01	3.744931e-01	3.027363e-01	8.075949e-01	5.438196e-01	1.029538e+00	-6.160940e-01	2.802195e-01	-5.473374e-01	3.298983e-02	8.129264e-01	9.479386e-01	2.160487e-01	1.180900e+00	1.882006e+00	2.189455e+00	1.572356e+00	2.551715e+00	2.090934e+00	3.012098e+00	3.586605e+00	4.123656e+00	4.479957e+00	5.073587e+00	4.860317e+00	5.544311e+00	4.634109e+00	5.284778e+00	2.472895e+00	2.658693e+00	4.040263e+00	1.921418e+00	2.540271e+00	3.917861e+00	4.041598e+00	5.414065e+00	3.868846e+00	4.660995e+00	3.412382e+00	2.969323e+00	3.843889e+00	2.797696e+00	2.934618e+00	3.235929e+00	2.698382e+00	3.019257e+00	3.385617e+00	5.752545e+00	1.677273e+00	1.441481e+00	2.925675e+00	2.543658e+00	2.846103e+00	2.896528e+00	2.198782e+00	3.936319e+00	2.630015e+00	3.490536e+00	2.098414e+00	2.619725e+00	1.971071e+00	3.169174e+00	6.533743e+00	2.128315e+00	6.415897e+00	5.685876e+00	2.850288e+00	3.227584e+00	3.593084e+00	3.706956e+00	1.726291e+00	1.029698e+00	8.500965e+00	4.928062e+00	4.300825e+00	3.057918e+00	3.613855e+00	1.634400e+00	3.464006e+00	2.179194e+00	1.922905e+00	3.911083e+00	3.571469e+00	7.475731e+00	2.756662e+00	3.077054e+00	2.516041e+00	1.532222e+00	1.921578e+00	2.187699e+00	7.498472e-01	1.608702e+00	2.484547e+00	2.136169e+00	2.668200e+00	6.194662e+00	6.753936e+00	1.074009e+00	4.228891e+00	4.353574e+00	1.905105e+00	3.566838e+00	3.857191e+00	3.148751e-01	4.218349e-01	-1.074840e-01	-1.205581e-01	-6.522978e-01	4.217650e+00	3.704875e+00	1.783563e+00	5.218690e+00	2.282109e+00	1.645061e+00	1.694873e+00	1.195116e+00	1.187933e+00	2.690549e+00	8.723528e+00	7.776619e+00	9.610652e+00	2.625430e+00	1.498593e+00	2.229786e+00	1.903536e+00	3.493000e+00	1.129559e+00	5.021597e+00	2.443572e+00	3.382846e+00	2.677918e+00	9.855475e+00	9.979270e+00	1.685808e+00	7.197087e-01	9.053381e-01	1.903456e+00	1.365449e+00	3.925998e+00	4.150010e+00	1.301121e-01	6.501365e+00	3.614170e+00	7.050735e-01	1.907733e+00	1.895182e+00	3.977491e+00	-8.484112e-01	7.354597e-01	6.955660e-01	4.648812e+00	5.263308e-01	3.341142e+00	5.970356e-01	1.099069e+00	8.911767e-01	1.342828e+00	1.754818e+00	1.422776e+00	6.342812e+00	4.256447e+00	8.365847e+00	7.803364e+00	4.237869e+00	5.549716e+00	8.529854e-01	7.716526e-01	4.599322e-01	6.767174e-01	-4.442164e-01	1.041342e+00	6.496871e-01	3.967374e-01	6.637048e+00	9.383586e-01	4.404591e+00	4.161408e-01	7.194703e-01	5.956405e-01	4.495833e+00	3.793180e+00	3.266187e+00	4.174227e-01	7.898516e-01	4.509917e+00	2.547314e+00	3.142116e-01	7.570577e+00	1.150400e+00	3.201357e+00	1.371220e+00	5.780336e+00	3.966947e+00	7.816223e-01	4.675548e+00	4.326670e+00	4.681429e+00	1.330850e+00	4.420148e+00	2.229281e+00	3.493196e+00	3.420518e+00	3.573094e+00	2.084518e+00	1.263129e+00	2.507133e+00	8.599463e+00	-8.692621e-01	3.240455e+00	-4.425739e-01	4.816981e+00	2.318972e+00	1.552505e+00	4.367942e+00	1.050881e+01	1.926770e+00	9.885122e-01	1.111969e+00	8.614382e-01	5.372007e+00	1.077380e+00	5.263379e+00	1.336016e+00	1.465802e+00	2.115757e+00	2.690359e+00	1.429724e+00	2.070560e+00	1.347970e+00	1.422807e+00	3.005331e+00	3.000292e+00	5.169287e-01	1.553045e+00	2.267442e+00	3.514979e+00	3.103180e+00	1.300398e+00	1.580802e+00	3.875726e+00	1.829523e+00	3.609039e+00	1.163227e+00	1.380832e+00	6.848314e+00	2.555818e+00	3.950810e+00	1.418273e+00	-4.628481e-01	-4.588568e-01	1.280529e-01	7.872581e+00	9.440827e+00	7.976395e+00	3.764497e+00	6.882029e+00	4.052767e+00	1.659866e+00	1.298025e+00	1.002109e+01	2.410401e+00	1.128502e+00	2.918604e+00	5.367981e+00	1.286894e-01	7.083267e-01	4.377963e+00	4.673660e-01	1.864049e+00	-3.591209e-03	-7.519813e-01	5.158133e-01	1.558332e+00	7.912379e-01	6.984570e+00	1.862783e+00	8.369479e+00	6.969234e-01	3.911244e+00	4.446753e+00	4.541060e-01	9.769984e-01	6.272460e+00	4.346017e+00	6.734321e+00	4.707808e+00	4.534593e+00	1.340014e+00	4.594812e+00	9.040895e-01	2.005541e+00	-4.646198e-01	4.429342e+00	9.371002e-02	3.374405e+00	8.830216e+00	5.141340e+00	2.872595e+00	
SCALARS Energy float 1
LOOKUP_TABLE default