# vtk DataFile Version 3.0
vtk output
ASCII
DATASET UNSTRUCTURED_GRID
POINTS 394 float
-3.000000e+00	0.000000e+00	0.0	-5.000000e-02	4.317560e-17	0.0	3.709087e-01	1.029803e+00	0.0	4.709615e-01	9.707132e-01	0.0	5.000000e-02	-9.492487e-18	0.0	3.000000e+00	0.000000e+00	0.0	3.000000e+00	4.000000e+00	0.0	-3.000000e+00	4.000000e+00	0.0	-3.000000e+00	3.428571e+00	0.0	-3.000000e+00	2.857143e+00	0.0	-3.000000e+00	2.285714e+00	0.0	-3.000000e+00	1.714286e+00	0.0	-3.000000e+00	1.142857e+00	0.0	-3.000000e+00	5.714286e-01	0.0	-2.473871e+00	0.000000e+00	0.0	-2.029066e+00	0.000000e+00	0.0	-1.653013e+00	0.000000e+00	0.0	-1.335087e+00	0.000000e+00	0.0	-1.066302e+00	0.000000e+00	0.0	-8.390627e-01	0.000000e+00	0.0	-6.469477e-01	0.000000e+00	0.0	-4.845277e-01	0.000000e+00	0.0	-3.472127e-01	0.000000e+00	0.0	-2.311224e-01	0.000000e+00	0.0	-1.329760e-01	0.000000e+00	0.0	-4.503772e-02	8.211642e-02	0.0	-3.305751e-02	1.637210e-01	0.0	-1.437848e-02	2.446915e-01	0.0	1.004723e-02	3.250976e-01	0.0	3.939626e-02	4.049970e-01	0.0	7.292249e-02	4.844326e-01	0.0	1.099329e-01	5.634340e-01	0.0	1.497703e-01	6.420223e-01	0.0	1.918058e-01	7.202225e-01	0.0	2.354576e-01	7.980584e-01	0.0	2.801643e-01	8.755717e-01	0.0	3.254983e-01	9.527680e-01	0.0	4.209345e-01	1.000304e+00	0.0	4.254391e-01	8.938585e-01	0.0	3.801594e-01	8.171484e-01	0.0	3.354389e-01	7.407343e-01	0.0	2.917919e-01	6.646540e-01	0.0	2.497581e-01	5.889426e-01	0.0	2.099237e-01	5.136291e-01	0.0	1.729153e-01	4.387386e-01	0.0	1.393922e-01	3.642930e-01	0.0	1.100464e-01	2.903217e-01	0.0	8.562469e-02	2.168678e-01	0.0	6.695424e-02	1.439825e-01	0.0	5.491018e-02	7.170807e-02	0.0	1.329760e-01	0.000000e+00	0.0	2.311224e-01	0.000000e+00	0.0	3.472127e-01	0.000000e+00	0.0	4.845277e-01	0.000000e+00	0.0	6.469477e-01	0.000000e+00	0.0	8.390627e-01	0.000000e+00	0.0	1.066302e+00	0.000000e+00	0.0	1.335087e+00	0.000000e+00	0.0	1.653013e+00	0.000000e+00	0.0	2.029066e+00	0.000000e+00	0.0	2.473871e+00	0.000000e+00	0.0	3.000000e+00	5.714286e-01	0.0	3.000000e+00	1.142857e+00	0.0	3.000000e+00	1.714286e+00	0.0	3.000000e+00	2.285714e+00	0.0	3.000000e+00	2.857143e+00	0.0	3.000000e+00	3.428571e+00	0.0	2.400000e+00	4.000000e+00	0.0	1.800000e+00	4.000000e+00	0.0	1.200000e+00	4.000000e+00	0.0	6.000000e-01	4.000000e+00	0.0	0.000000e+00	4.000000e+00	0.0	-6.000000e-01	4.000000e+00	0.0	-1.200000e+00	4.000000e+00	0.0	-1.800000e+00	4.000000e+00	0.0	-2.400000e+00	4.000000e+00	0.0	2.044373e-01	9.346129e-01	0.0	4.503799e-01	8.414731e-01	0.0	-1.463720e+00	2.871558e-01	0.0	1.536320e+00	1.882582e-01	0.0	2.742476e-01	5.343318e-01	0.0	4.127691e-02	6.226251e-01	0.0	-7.272257e-01	1.989172e-01	0.0	7.785486e-01	1.207778e-01	0.0	-2.543548e+00	2.103489e+00	0.0	2.600623e+00	1.907591e+00	0.0	-8.341718e-01	3.524240e+00	0.0	1.034307e+00	3.445735e+00	0.0	1.829608e-01	3.176549e-01	0.0	-5.462764e-02	3.761649e-01	0.0	-4.024209e-01	1.357950e-01	0.0	4.341654e-01	8.736178e-02	0.0	3.604937e-01	6.837579e-01	0.0	1.171265e-01	7.808815e-01	0.0	1.483321e-01	1.768058e-01	0.0	-9.729000e-02	2.142997e-01	0.0	2.565791e+00	7.620522e-01	0.0	-2.479831e+00	8.207071e-01	0.0	-2.016514e+00	3.471631e+00	0.0	2.125798e+00	3.418096e+00	0.0	-1.785168e-01	8.504918e-02	0.0	1.911172e-01	6.501373e-02	0.0	2.259118e+00	3.521281e-01	0.0	-2.238602e+00	3.799759e-01	0.0	2.553772e+00	1.348990e+00	0.0	2.226542e+00	1.639840e+00	0.0	2.211850e+00	2.064478e+00	0.0	1.909823e+00	1.791689e+00	0.0	1.880283e+00	1.378334e+00	0.0	1.636725e+00	1.580951e+00	0.0	1.613962e+00	1.938838e+00	0.0	1.396592e+00	1.723974e+00	0.0	1.397234e+00	1.415764e+00	0.0	1.200691e+00	1.541114e+00	0.0	1.198421e+00	1.285046e+00	0.0	1.020211e+00	1.368971e+00	0.0	1.002065e+00	1.642532e+00	0.0	8.471265e-01	1.501791e+00	0.0	8.078969e-01	1.746072e+00	0.0	6.591649e-01	1.634467e+00	0.0	6.062387e-01	1.854726e+00	0.0	4.642169e-01	1.739488e+00	0.0	3.864166e-01	1.964443e+00	0.0	2.328407e-01	1.805686e+00	0.0	1.040158e+00	1.150011e+00	0.0	1.342995e+00	2.072701e+00	0.0	5.874880e-01	2.122170e+00	0.0	1.162483e+00	1.031741e+00	0.0	1.001344e+00	9.594423e-01	0.0	1.261700e-01	2.087782e+00	0.0	-8.561423e-02	1.942930e+00	0.0	2.406852e-02	1.669660e+00	0.0	-3.178089e-01	1.800937e+00	0.0	-2.446642e-01	1.565284e+00	0.0	-5.492767e-01	1.647128e+00	0.0	-5.774936e-01	1.881386e+00	0.0	-4.929011e-01	1.408029e+00	0.0	-8.104038e-01	1.481941e+00	0.0	8.973311e-01	1.047920e+00	0.0	8.589111e-01	8.761862e-01	0.0	9.553789e-01	7.811112e-01	0.0	-1.790241e-01	2.229030e+00	0.0	8.009209e-01	7.033356e-01	0.0	5.181529e-01	1.509887e+00	0.0	4.260427e-01	1.052474e+00	0.0	4.864817e-01	1.017137e+00	0.0	4.553064e-01	1.099768e+00	0.0	5.216170e-01	1.083145e+00	0.0	6.796574e-02	2.399531e+00	0.0	-7.696392e-01	1.219510e+00	0.0	-1.089868e+00	1.294840e+00	0.0	-4.653911e-01	1.147450e+00	0.0	-7.934845e-01	9.390322e-01	0.0	-5.077186e-01	9.178083e-01	0.0	-1.135091e+00	1.592743e+00	0.0	8.975579e-01	6.095663e-01	0.0	1.064218e+00	6.798539e-01	0.0	7.366636e-01	5.502669e-01	0.0	1.197227e-02	1.439087e+00	0.0	1.568914e+00	2.307660e+00	0.0	3.778723e-01	1.114716e+00	0.0	4.171662e-01	1.177504e+00	0.0	5.424051e-01	9.912938e-01	0.0	5.938267e-01	1.064165e+00	0.0	5.602632e-01	1.157957e+00	0.0	6.105259e-01	9.603972e-01	0.0	1.001556e+00	5.078014e-01	0.0	1.204262e+00	5.967899e-01	0.0	3.178317e-01	1.192535e+00	0.0	-2.669845e-01	1.035013e+00	0.0	-2.996636e-01	8.558170e-01	0.0	-5.011744e-01	7.163547e-01	0.0	-2.981279e-01	6.818657e-01	0.0	-1.434242e+00	1.380147e+00	0.0	6.559377e-01	1.148909e+00	0.0	-2.778150e-01	2.547726e+00	0.0	-8.519951e-03	2.759440e+00	0.0	6.508267e-01	6.280994e-01	0.0	5.839083e-01	4.904077e-01	0.0	3.691402e-01	1.273479e+00	0.0	6.694568e-01	4.134636e-01	0.0	5.165989e-01	3.636699e-01	0.0	1.264340e+00	2.456822e+00	0.0	-1.490109e+00	1.713453e+00	0.0	1.503701e+00	2.700666e+00	0.0	5.981104e-01	2.885830e-01	0.0	1.120283e+00	3.480283e-01	0.0	-1.375296e+00	1.084801e+00	0.0	-4.818364e-01	5.358102e-01	0.0	-6.489507e-01	5.656550e-01	0.0	-3.321156e-01	4.953860e-01	0.0	-8.153966e-02	9.771192e-01	0.0	-7.865964e-02	1.126658e+00	0.0	-1.901854e+00	1.479919e+00	0.0	5.056757e-01	5.665427e-01	0.0	5.830449e-01	7.017211e-01	0.0	7.628845e-01	3.329560e-01	0.0	-1.866042e-01	5.910725e-01	0.0	9.409200e-01	1.924109e+00	0.0	1.346040e+00	5.107276e-01	0.0	1.408383e+00	7.194600e-01	0.0	1.572068e+00	5.838913e-01	0.0	1.648928e+00	8.544279e-01	0.0	1.879149e+00	7.251872e-01	0.0	6.007006e-01	1.257465e+00	0.0	7.125246e-01	1.245235e+00	0.0	-4.697093e-01	3.645224e-01	0.0	-2.305554e-01	1.371834e+00	0.0	-5.451242e-01	2.344693e+00	0.0	-6.691871e-01	2.694997e+00	0.0	-9.654597e-01	2.481119e+00	0.0	-1.085018e+00	2.835441e+00	0.0	-1.465394e+00	2.516838e+00	0.0	-2.027894e-01	4.383040e-01	0.0	2.461197e-01	1.285734e+00	0.0	2.931809e-01	1.387915e+00	0.0	2.006608e-01	1.195229e+00	0.0	3.797927e-01	2.563232e+00	0.0	3.084296e-01	3.025542e+00	0.0	6.775408e-01	2.764785e+00	0.0	-1.178454e+00	1.923573e+00	0.0	7.736198e-01	9.642313e-01	0.0	-1.471922e-01	3.174906e+00	0.0	-1.381134e-01	8.178752e-01	0.0	4.499747e-01	2.485109e-01	0.0	3.550378e-01	3.158805e-01	0.0	3.160446e-01	2.191907e-01	0.0	2.725262e-01	1.123845e+00	0.0	1.636550e-01	1.103769e+00	0.0	1.842620e+00	2.552499e+00	0.0	1.570118e+00	1.261504e+00	0.0	2.534971e+00	2.480521e+00	0.0	1.099650e+00	2.883429e+00	0.0	-1.553440e+00	2.076831e+00	0.0	4.234053e-01	4.338471e-01	0.0	3.006927e-01	3.936313e-01	0.0	1.241740e+00	1.686912e-01	0.0	5.618883e-03	8.886350e-01	0.0	-1.019976e-01	5.203143e-01	0.0	4.774859e-01	3.521309e+00	0.0	-3.267137e-01	3.406381e-01	0.0	-2.141065e-01	3.052246e-01	0.0	7.196239e-01	8.036490e-01	0.0	2.217340e+00	9.950728e-01	0.0	-1.578433e+00	3.046782e+00	0.0	-1.937257e+00	2.699845e+00	0.0	6.488055e-01	1.375073e+00	0.0	-2.448047e+00	1.342441e+00	0.0	8.653404e-01	1.296829e+00	0.0	-1.175411e+00	2.590933e-01	0.0	-1.263599e+00	5.394643e-01	0.0	-1.553043e+00	5.887758e-01	0.0	-9.895048e-01	5.155835e-01	0.0	-1.069767e+00	7.784430e-01	0.0	1.774847e+00	3.013388e+00	0.0	2.399969e-01	1.620586e+00	0.0	6.229523e-01	8.381132e-01	0.0	1.120724e-01	1.290621e+00	0.0	4.708873e-02	9.776238e-01	0.0	5.047711e-01	7.679020e-01	0.0	-1.695384e-02	7.617528e-01	0.0	-5.442834e-01	2.010537e-01	0.0	5.893159e-01	9.717525e-02	0.0	1.003194e+00	1.565873e-01	0.0	-9.347078e-01	2.307527e-01	0.0	1.862416e+00	2.357377e-01	0.0	3.049592e-01	7.572861e-02	0.0	-2.754575e-01	1.094157e-01	0.0	-1.422630e+00	3.540939e+00	0.0	4.308606e-01	1.374864e+00	0.0	2.568342e+00	3.092467e+00	0.0	3.925712e-01	5.125473e-01	0.0	-1.815772e+00	3.302893e-01	0.0	-1.930837e+00	7.420773e-01	0.0	1.490288e+00	9.844993e-01	0.0	4.185583e-01	6.134110e-01	0.0	5.419897e-01	8.852797e-01	0.0	1.042269e+00	2.209326e+00	0.0	-2.488321e+00	2.549415e+00	0.0	1.533892e+00	3.499133e+00	0.0	-6.609200e-02	6.479529e-01	0.0	4.896490e-01	9.308994e-01	0.0	-2.418626e+00	3.087799e+00	0.0	1.593832e-01	8.568252e-01	0.0	8.915864e-01	2.516035e-01	0.0	7.188704e-01	2.407487e+00	0.0	-7.844146e-01	3.879700e-01	0.0	7.603456e-02	7.023831e-01	0.0	4.048418e-01	7.599496e-01	0.0	-2.093866e+00	1.109722e+00	0.0	3.154614e-01	6.122557e-01	0.0	-1.174104e-03	5.511640e-01	0.0	2.416171e-01	4.606957e-01	0.0	1.256810e+00	8.311548e-01	0.0	2.095877e-01	3.865113e-01	0.0	-7.534340e-02	2.930331e-01	0.0	1.599489e-01	2.469072e-01	0.0	2.474210e-01	2.704932e-01	0.0	-3.293532e-02	4.612470e-01	0.0	2.408761e-01	1.410304e-01	0.0	-1.932085e-01	1.942505e-01	0.0	-7.055242e-01	7.325413e-01	0.0	6.813806e-02	1.182184e+00	0.0	2.183536e+00	6.655862e-01	0.0	7.840821e-01	1.125906e+00	0.0	1.921724e+00	1.054812e+00	0.0	3.744461e-01	1.068329e+00	0.0	8.321982e-01	4.658956e-01	0.0	-6.114942e-01	3.783464e-01	0.0	4.459269e-01	7.075349e-01	0.0	2.410168e-01	1.054273e+00	0.0	1.263333e-01	1.054998e-01	0.0	-1.070688e-01	1.275012e-01	0.0	-1.833346e+00	1.849383e+00	0.0	-1.987999e+00	2.224998e+00	0.0	-2.271846e-01	1.201132e+00	0.0	-7.634801e-01	3.087265e+00	0.0	4.740298e-01	1.249069e+00	0.0	1.350100e+00	1.134046e+00	0.0	-3.948109e-01	2.924979e+00	0.0	1.090334e+00	8.536630e-01	0.0	9.646129e-01	2.543980e+00	0.0	7.269456e-01	3.128328e+00	0.0	-1.077307e+00	1.019901e+00	0.0	2.175091e+00	2.826639e+00	0.0	1.403936e+00	3.109381e+00	0.0	-1.171110e-01	4.
[...]
POINT_DATA 394

SCALARS Density float 1
LOOKUP_TABLE default
1.223718e+00	1.223913e+00	1.221680e+00	1.222022e+00	1.223477e+00	1.223659e+00	1.223275e+00	1.223593e+00	1.223578e+00	1.223590e+00	1.223631e+00	1.223656e+00	1.223721e+00	1.223726e+00	1.223734e+00	1.223719e+00	1.223747e+00	1.223764e+00	1.223802e+00	1.223826e+00	1.223843e+00	1.223906e+00	1.223872e+00	1.223974e+00	1.223859e+00	1.224011e+00	1.223863e+00	1.223870e+00	1.223853e+00	1.223809e+00	1.223778e+00	1.223720e+00	1.223706e+00	1.223612e+00	1.223692e+00	1.222932e+00	1.224744e+00	1.219940e+00	1.223845e+00	1.223370e+00	1.223435e+00	1.223423e+00	1.223385e+00	1.223365e+00	1.223363e+00	1.223364e+00	1.223381e+00	1.223407e+00	1.223340e+00	1.223531e+00	1.223348e+00	1.223442e+00	1.223381e+00	1.223326e+00	1.223283e+00	1.223251e+00	1.223167e+00	1.223165e+00	1.223165e+00	1.223293e+00	1.222822e+00	1.223394e+00	1.223118e+00	1.222929e+00	1.222842e+00	1.222950e+00	1.223086e+00	1.223111e+00	1.223251e+00	1.223291e+00	1.223374e+00	1.223421e+00	1.223495e+00	1.223545e+00	1.223578e+00	1.223581e+00	1.222978e+00	1.223757e+00	1.223755e+00	1.223111e+00	1.223408e+00	1.223690e+00	1.223823e+00	1.223223e+00	1.223626e+00	1.223315e+00	1.223516e+00	1.223307e+00	1.223382e+00	1.223821e+00	1.223889e+00	1.223332e+00	1.223518e+00	1.223500e+00	1.223456e+00	1.223883e+00	1.223048e+00	1.223714e+00	1.223599e+00	1.223123e+00	1.223933e+00	1.223420e+00	1.223219e+00	1.223706e+00	1.223008e+00	1.222915e+00	1.223112e+00	1.223118e+00	1.223060e+00	1.223038e+00	1.223031e+00	1.223285e+00	1.222860e+00	1.222909e+00	1.222997e+00	1.223108e+00	1.222877e+00	1.223156e+00	1.223145e+00	1.223251e+00	1.223174e+00	1.223229e+00	1.223437e+00	1.223322e+00	1.222977e+00	1.223034e+00	1.223253e+00	1.222869e+00	1.223040e+00	1.223406e+00	1.223498e+00	1.223503e+00	1.223439e+00	1.223577e+00	1.223643e+00	1.223541e+00	1.223618e+00	1.223622e+00	1.223157e+00	1.223107e+00	1.223206e+00	1.223508e+00	1.223240e+00	1.223191e+00	1.221387e+00	1.221758e+00	1.222831e+00	1.222842e+00	1.223416e+00	1.223687e+00	1.223678e+00	1.223724e+00	1.223736e+00	1.223745e+00	1.223642e+00	1.223149e+00	1.222977e+00	1.223258e+00	1.223508e+00	1.223194e+00	1.221755e+00	1.223170e+00	1.222746e+00	1.222819e+00	1.222604e+00	1.223072e+00	1.223180e+00	1.223091e+00	1.223152e+00	1.223687e+00	1.223729e+00	1.223762e+00	1.223734e+00	1.223670e+00	1.222705e+00	1.223472e+00	1.223463e+00	1.223377e+00	1.223310e+00	1.223073e+00	1.223273e+00	1.223333e+00	1.223285e+00	1.223641e+00	1.223164e+00	1.223330e+00	1.223077e+00	1.223714e+00	1.223800e+00	1.223824e+00	1.223894e+00	1.223616e+00	1.223561e+00	1.223680e+00	1.223357e+00	1.223433e+00	1.223222e+00	1.223788e+00	1.223356e+00	1.222953e+00	1.223125e+00	1.222903e+00	1.222875e+00	1.223015e+00	1.222868e+00	1.222866e+00	1.223862e+00	1.223517e+00	1.223531e+00	1.223513e+00	1.223572e+00	1.223559e+00	1.223612e+00	1.223816e+00	1.223127e+00	1.223474e+00	1.223432e+00	1.223346e+00	1.223375e+00	1.223391e+00	1.223615e+00	1.222964e+00	1.223414e+00	1.223757e+00	1.223321e+00	1.223339e+00	1.223380e+00	1.223606e+00	1.223097e+00	1.223105e+00	1.222863e+00	1.223291e+00	1.223308e+00	1.223634e+00	1.223404e+00	1.223289e+00	1.222977e+00	1.223580e+00	1.223900e+00	1.223412e+00	1.223859e+00	1.223889e+00	1.223154e+00	1.222862e+00	1.223553e+00	1.223592e+00	1.222670e+00	1.223663e+00	1.222940e+00	1.223789e+00	1.223811e+00	1.223688e+00	1.223783e+00	1.223712e+00	1.223271e+00	1.223454e+00	1.223212e+00	1.223399e+00	1.223651e+00	1.223456e+00	1.223755e+00	1.223918e+00	1.223303e+00	1.223197e+00	1.223821e+00	1.222958e+00	1.223452e+00	1.223945e+00	1.223556e+00	1.223063e+00	1.223168e+00	1.223432e+00	1.223755e+00	1.223705e+00	1.223001e+00	1.223375e+00	1.223067e+00	1.223217e+00	1.223628e+00	1.223246e+00	1.223709e+00	1.223160e+00	1.223614e+00	1.223957e+00	1.223193e+00	1.223350e+00	1.223788e+00	1.223748e+00	1.223410e+00	1.223678e+00	1.223454e+00	1.223735e+00	1.223390e+00	1.223023e+00	1.223397e+00	1.223868e+00	1.223394e+00	1.223330e+00	1.223758e+00	1.223309e+00	1.223920e+00	1.223743e+00	1.223547e+00	1.222892e+00	1.222989e+00	1.223258e+00	1.225326e+00	1.223237e+00	1.223866e+00	1.223333e+00	1.223398e+00	1.223372e+00	1.223896e+00	1.223628e+00	1.223635e+00	1.223610e+00	1.223513e+00	1.222748e+00	1.223063e+00	1.223475e+00	1.222968e+00	1.223242e+00	1.223303e+00	1.223747e+00	1.223301e+00	1.223248e+00	1.223859e+00	1.223554e+00	1.223512e+00	1.223090e+00	1.223554e+00	1.222928e+00	1.223164e+00	1.223842e+00	1.223279e+00	1.223363e+00	1.223331e+00	1.223360e+00	1.223722e+00	1.223234e+00	1.223270e+00	1.223621e+00	1.223023e+00	1.223721e+00	1.223253e+00	1.222392e+00	1.223742e+00	1.223681e+00	1.223190e+00	1.223378e+00	1.222471e+00	1.223593e+00	1.223137e+00	1.223591e+00	1.223781e+00	1.225354e+00	1.223862e+00	1.223716e+00	1.223322e+00	1.223211e+00	1.223571e+00	1.223424e+00	1.223738e+00	1.223042e+00	1.223887e+00	1.223101e+00	1.223000e+00	1.223575e+00	1.223083e+00	1.223569e+00	1.223299e+00	1.223779e+00	1.223717e+00	1.223687e+00	1.223321e+00	1.223321e+00	1.223923e+00	1.223518e+00	1.223498e+00	1.223137e+00	1.223482e+00	1.222767e+00	1.223388e+00	1.223156e+00	1.223341e+00	1.223468e+00	1.223729e+00	1.222966e+00	1.223436e+00	1.222754e+00	1.223291e+00	1.222936e+00	1.223594e+00	1.222867e+00	
SCALARS X-Momentum float 1
LOOKUP_TABLE default
8.664903e+00	3.937652e-01	6.701579e+00	2.340784e-01	-5.568496e-01	-4.288058e+00	1.622892e+01	1.022161e+01	1.009276e+01	9.893735e+00	9.648362e+00	9.364787e+00	9.097609e+00	8.839930e+00	8.515578e+00	8.218833e+00	7.773346e+00	7.197991e+00	6.543922e+00	5.793293e+00	4.942298e+00	4.108514e+00	3.135129e+00	2.167701e+00	1.204727e+00	7.171855e-02	4.174215e-01	9.138715e-01	1.483303e+00	2.108397e+00	2.736363e+00	3.344335e+00	3.943769e+00	4.513818e+00	4.921817e+00	4.930399e+00	4.634005e+00	4.077132e+00	1.233049e+00	1.394800e+00	1.800873e+00	2.011364e+00	2.099501e+00	2.074786e+00	1.901894e+00	1.608999e+00	1.258554e+00	8.627556e-01	5.066704e-01	2.338712e-01	-1.816705e+00	-3.309975e+00	-4.586833e+00	-5.737843e+00	-6.674699e+00	-7.376897e+00	-7.862736e+00	-8.090779e+00	-7.631793e+00	-6.768897e+00	-5.866276e+00	-5.338568e-01	4.826440e+00	1.008382e+01	1.391272e+01	1.584274e+01	1.636463e+01	1.554283e+01	1.465460e+01	1.367337e+01	1.284643e+01	1.215468e+01	1.155842e+01	1.104309e+01	1.062513e+01	1.034901e+01	5.220822e+00	2.154921e+00	7.669246e+00	-5.437324e+00	2.026100e+00	4.259458e+00	5.638232e+00	-5.198870e+00	9.585484e+00	1.225001e+01	1.119836e+01	1.370962e+01	9.860064e-01	2.514309e+00	3.742823e+00	-3.855924e+00	2.271929e+00	5.182027e+00	-6.539072e-03	1.491196e+00	1.218135e+00	8.848383e+00	1.034293e+01	1.541328e+01	1.708493e+00	-1.767312e+00	-2.862405e+00	8.533865e+00	7.274467e+00	1.061521e+01	1.372802e+01	1.253996e+01	8.681113e+00	1.128823e+01	1.397271e+01	1.302459e+01	9.977049e+00	1.175740e+01	8.444345e+00	1.006470e+01	1.322027e+01	1.229512e+01	1.408473e+01	1.373284e+01	1.415422e+01	1.374821e+01	1.344040e+01	1.270518e+01	6.665289e+00	1.472704e+01	1.392080e+01	5.069926e+00	4.145231e+00	1.241168e+01	1.157655e+01	1.150567e+01	1.069807e+01	1.027902e+01	9.972276e+00	1.032813e+01	9.377441e+00	9.353569e+00	4.948237e+00	3.116132e+00	2.351691e+00	1.155809e+01	1.982897e+00	1.335025e+01	5.540157e+00	2.462050e+00	6.440047e+00	4.572012e+00	1.224752e+01	8.715329e+00	8.901304e+00	8.517776e+00	7.876782e+00	7.517149e+00	9.404363e+00	8.656698e-01	1.194577e+00	8.735018e-01	1.078833e+01	1.512758e+01	9.357699e+00	1.017752e+01	2.292859e+00	4.079401e+00	7.194040e+00	2.793810e+00	-6.822649e-01	-2.039206e-01	1.123323e+01	7.994240e+00	6.981007e+00	6.604210e+00	5.881656e+00	9.061506e+00	6.311110e+00	1.152933e+01	1.210405e+01	1.960820e+00	9.371194e-01	1.211139e+01	-3.880965e-01	-2.334058e-01	1.498950e+01	9.470155e+00	1.508696e+01	-1.682487e+00	-2.855249e+00	8.602433e+00	5.732376e+00	6.349535e+00	4.937727e+00	7.361924e+00	8.513920e+00	9.189829e+00	1.957189e+00	2.613538e+00	-1.872804e+00	4.903150e+00	1.449236e+01	-1.438334e+00	1.046124e+00	-7.363220e-01	2.449066e+00	8.213787e-01	9.748467e+00	8.877872e+00	4.932281e+00	9.587420e+00	1.094276e+01	1.104288e+01	1.054691e+01	1.066833e+01	1.018354e+01	3.931493e+00	1.172586e+01	1.255719e+01	1.044876e+01	1.297602e+01	1.266727e+01	1.361049e+01	9.834364e+00	3.625684e+00	1.192933e+01	6.354653e+00	-1.352827e+00	5.175328e-02	-8.703378e-01	9.941396e+00	8.703947e+00	1.532688e+01	7.757011e+00	1.506912e+01	1.430910e+01	9.815014e+00	1.042695e+00	1.117305e+00	-5.623106e+00	6.457732e+00	4.060708e+00	1.279607e+01	4.095094e+00	3.126750e+00	2.719413e+00	3.686099e+00	1.039750e+01	1.005919e+01	1.166657e+01	9.145768e+00	9.299835e+00	7.110084e+00	7.635941e+00	8.096957e+00	7.081590e+00	7.742939e+00	1.514832e+01	1.262954e+01	2.798157e+00	1.072506e+01	7.026919e+00	2.677424e+00	5.564309e+00	4.766573e+00	-4.652843e+00	-5.419778e+00	6.438789e+00	-4.572507e+00	-2.871908e+00	2.701888e+00	1.071174e+01	1.289761e+01	1.598144e+01	1.821984e+00	8.165590e+00	8.557188e+00	4.282699e+00	2.278683e+00	2.476134e+00	1.475810e+01	9.823960e+00	1.452850e+01	4.801938e+00	1.559449e+00	1.007441e+01	5.480614e+00	-3.479748e+00	1.399206e+01	6.318546e+00	4.756596e+00	2.204885e+00	8.907934e+00	2.184428e+00	3.783480e+00	1.746867e+00	2.723300e+00	1.398610e+00	1.941590e+00	5.252264e-01	1.888913e-01	3.149188e+00	-1.244480e+00	2.246347e+00	7.066125e+00	9.401709e+00	1.570180e-01	6.045523e+00	4.751247e+00	8.211269e+00	-5.195297e-01	5.613912e+00	2.537331e+00	7.876349e+00	-4.739416e-01	1.084743e+00	9.533603e+00	9.760174e+00	8.841616e+00	1.111978e+01	1.080505e+01	6.345545e+00	1.151293e+01	2.965176e+00	1.447333e+01	1.337535e+01	8.322677e+00	1.556209e+01	1.458888e+01	3.373571e+00	1.085252e+01	1.174936e+01	1.465210e+01	1.034144e+01	3.924833e+00	1.406626e+01	3.330009e+00	-2.888943e+00	1.447866e+01	-2.228491e+00	1.308483e+01	8.790349e+00	-3.320807e+00	1.310265e+01	9.856520e+00	2.994162e+00	8.130415e+00	-2.618999e+00	-2.902468e+00	8.698726e+00	6.160841e+00	6.699618e+00	1.169685e+01	8.152250e+00	9.611274e+00	1.099897e+01	1.014463e+01	4.231265e+00	5.935943e+00	2.891095e+00	8.440495e+00	-2.794813e-01	1.234893e+01	1.019490e+01	1.222271e+01	5.562145e+00	1.597571e+01	2.348270e+00	-3.367909e+00	-1.800605e+00	1.020128e+01	-1.935148e+00	1.079555e+01	1.210707e+01	6.815599e+00	8.038820e+00	9.421255e+00	7.758841e-01	1.652255e+00	7.999086e-01	-7.804544e-01	1.341528e+01	1.439464e+01	5.775600e+00	1.269948e+01	9.088926e+00	1.519044e+01	2.057372e+00	1.149051e+01	7.314782e+00	7.323323e+00	2.528965e+00	5.443572e+00	1.347784e+01	8.912785e+00	4.909171e+00	7.308558e+00	
SCALARS Y-Momentum float 1
LOOKUP_TABLE default
-1.875266e-02	3.884189e-01	5.226796e+00	-7.416574e-01	5.284956e-01	2.284246e-01	6.636345e-02	-1.235056e-02	1.443632e-02	4.093633e-02	5.769698e-02	7.615795e-02	6.479064e-02	1.298841e-02	-3.407030e-03	2.389905e-05	6.803165e-03	5.513411e-03	1.124837e-02	1.326469e-02	-2.504902e-03	2.175003e-02	8.070704e-03	7.782698e-03	-3.106382e-02	1.258024e+00	2.257575e+00	3.212556e+00	4.184006e+00	5.085043e+00	5.886685e+00	6.597486e+00	7.250305e+00	7.907693e+00	8.344918e+00	8.366147e+00	8.376615e+00	-2.343412e+00	1.173250e+00	1.950796e+00	2.676028e+00	3.226171e+00	3.571120e+00	3.755974e+00	3.756403e+00	3.576087e+00	3.254018e+00	2.788444e+00	2.211709e+00	1.436076e+00	-7.022307e-04	3.424877e-02	2.627207e-02	9.868195e-03	4.199433e-03	8.982541e-03	1.165667e-02	2.634402e-03	-4.346433e-02	-6.732294e-02	-1.006531e-01	-4.951718e-01	-4.416061e-01	4.390330e-02	7.039835e-01	8.887087e-01	5.137655e-01	1.102076e-02	1.188041e-03	-5.697192e-03	-3.717091e-02	-2.478698e-02	-4.369905e-03	-5.612633e-03	1.848503e-03	-3.122330e-03	8.655681e+00	2.388227e+00	4.921460e-01	-2.107750e-01	3.413323e+00	6.368805e+00	8.609375e-01	4.610764e-01	3.782516e-01	3.955165e-01	4.382423e-01	8.609035e-01	3.076242e+00	4.208158e+00	9.612101e-01	6.589920e-01	3.029998e+00	7.543551e+00	2.199841e+00	2.522578e+00	-7.918084e-01	3.226737e-01	2.475231e-01	8.448867e-01	8.378862e-01	8.428363e-01	-5.995671e-01	2.464603e-01	-3.990914e-01	1.531580e-01	9.631520e-01	9.411604e-01	1.683856e-01	9.647225e-01	1.745186e+00	1.810511e+00	1.148642e+00	1.934195e+00	1.473110e+00	2.125651e+00	2.855165e+00	3.144161e+00	3.812167e+00	4.299258e+00	4.382742e+00	5.045468e+00	4.286983e+00	4.909074e+00	1.739877e+00	2.423512e+00	3.717117e+00	1.455489e+00	2.025114e+00	3.611035e+00	3.704980e+00	5.033712e+00	3.518237e+00	4.302175e+00	3.091255e+00	2.639537e+00	3.567516e+00	2.536626e+00	2.223194e+00	2.717467e+00	2.279279e+00	2.719061e+00	2.831993e+00	4.943343e+00	2.560010e-01	5.147302e-01	1.415680e+00	1.290694e+00	2.593466e+00	2.716214e+00	1.997147e+00	3.800820e+00	2.554966e+00	3.517188e+00	1.859056e+00	2.161291e+00	1.689646e+00	2.482470e+00	6.115236e+00	2.070678e+00	5.067870e+00	4.410134e+00	2.064811e+00	2.169961e+00	2.195691e+00	3.017523e+00	1.427424e+00	9.001448e-01	7.576836e+00	4.897164e+00	4.517460e+00	3.269151e+00	4.109167e+00	1.447517e+00	2.224681e+00	1.925850e+00	1.724092e+00	3.092763e+00	2.655533e+00	6.594216e+00	2.041785e+00	2.224854e+00	2.396868e+00	1.337178e+00	1.910774e+00	1.565718e+00	6.112930e-01	1.453364e+00	2.846837e+00	2.333496e+00	3.272496e+00	6.307778e+00	6.533332e+00	9.342466e-01	3.120307e+00	3.431424e+00	1.409433e+00	4.397763e+00	3.361480e+00	2.932413e-01	3.560792e-01	-7.410611e-02	-1.223454e-01	-6.104816e-01	2.871185e+00	2.441323e+00	2.181469e+00	4.875635e+00	1.994371e+00	1.415945e+00	1.450075e+00	1.011112e+00	1.008428e+00	3.569649e+00	8.111509e+00	7.170382e+00	9.028680e+00	2.424158e+00	1.370293e+00	2.097364e+00	1.657671e+00	2.835648e+00	9.905265e-01	5.501308e+00	1.776912e+00	2.495484e+00	2.018678e+00	8.969937e+00	9.532341e+00	1.740176e+00	5.122314e-01	1.106330e+00	1.842597e+00	1.173597e+00	2.846801e+00	3.039267e+00	9.607940e-02	6.946311e+00	4.711851e+00	6.556065e-01	2.489910e+00	2.670078e+00	3.357995e+00	-8.137821e-01	6.151102e-01	5.884520e-01	3.495638e+00	4.502605e-01	2.228208e+00	6.107503e-01	1.072323e+00	8.315224e-01	1.381957e+00	1.697451e+00	1.462680e+00	5.911844e+00	3.553901e+00	7.883765e+00	7.948218e+00	3.153658e+00	6.375851e+00	1.077973e+00	5.429658e-01	3.323216e-01	7.375006e-01	-3.965750e-01	8.092525e-01	9.466089e-01	3.272849e-01	5.795879e+00	1.046496e+00	3.159130e+00	3.831034e-01	6.434358e-01	4.550988e-01	3.178580e+00	3.022892e+00	2.987778e+00	3.507596e-01	8.020713e-01	5.543513e+00	1.875705e+00	2.608628e-01	8.288798e+00	8.657399e-01	2.974927e+00	1.517084e+00	6.949645e+00	2.655565e+00	6.814139e-01	3.267837e+00	5.687820e+00	3.423220e+00	1.111846e+00	3.311866e+00	3.399932e+00	2.716686e+00	2.594935e+00	4.943230e+00	1.623990e+00	1.898147e+00	2.571491e+00	8.184578e+00	-8.311784e-01	2.257295e+00	-4.380943e-01	2.927250e+00	1.800225e+00	1.813109e+00	3.069337e+00	9.924647e+00	1.576381e+00	1.589800e+00	9.589851e-01	7.341092e-01	5.144919e+00	9.145821e-01	4.001636e+00	9.929798e-01	1.270320e+00	1.763445e+00	2.546565e+00	1.353854e+00	1.932037e+00	1.446166e+00	1.429620e+00	4.133250e+00	2.666948e+00	4.407097e-01	1.591387e+00	1.977242e+00	2.673476e+00	2.626927e+00	1.807626e+00	1.128156e+00	3.532763e+00	1.359931e+00	3.339663e+00	1.026658e+00	9.818450e-01	6.280280e+00	2.265485e+00	3.353070e+00	1.321495e+00	-4.081939e-01	-4.634570e-01	1.094557e-01	8.318137e+00	9.421947e+00	7.477823e+00	2.315956e+00	6.496308e+00	2.880796e+00	1.424135e+00	1.702069e+00	9.829469e+00	3.454647e+00	1.020978e+00	2.248658e+00	4.251880e+00	1.037660e-01	6.287694e-01	5.108054e+00	5.006665e-01	2.792424e+00	2.241616e-02	-6.968275e-01	4.303688e-01	1.211253e+00	6.600165e-01	6.527290e+00	1.962106e+00	8.169793e+00	5.978237e-01	2.920912e+00	3.186601e+00	7.299663e-01	8.283697e-01	5.775587e+00	3.894201e+00	7.466538e+00	3.681410e+00	4.281880e+00	1.471460e+00	3.241961e+00	7.672010e-01	2.011340e+00	-4.217067e-01	3.254636e+00	2.904369e-02	3.132026e+00	7.322486e+00	6.220751e+00	1.946180e+00	
SCALARS Energy float 1
LOOKUP_TABLE default