# vtk DataFile Version 3.0
vtk output
ASCII
DATASET UNSTRUCTURED_GRID
POINTS 394 float
-3.000000e+00	0.000000e+00	0.0	-5.000000e-02	2.960950e-17	0.0	3.635062e-01	1.028974e+00	0.0	4.635638e-01	9.714654e-01	0.0	5.000000e-02	-9.779327e-18	0.0	3.000000e+00	0.000000e+00	0.0	3.000000e+00	4.000000e+00	0.0	-3.000000e+00	4.000000e+00	0.0	-3.000000e+00	3.428571e+00	0.0	-3.000000e+00	2.857143e+00	0.0	-3.000000e+00	2.285714e+00	0.0	-3.000000e+00	1.714286e+00	0.0	-3.000000e+00	1.142857e+00	0.0	-3.000000e+00	5.714286e-01	0.0	-2.473871e+00	0.000000e+00	0.0	-2.029066e+00	0.000000e+00	0.0	-1.653013e+00	0.000000e+00	0.0	-1.335087e+00	0.000000e+00	0.0	-1.066302e+00	0.000000e+00	0.0	-8.390627e-01	0.000000e+00	0.0	-6.469477e-01	0.000000e+00	0.0	-4.845277e-01	0.000000e+00	0.0	-3.472127e-01	0.000000e+00	0.0	-2.311224e-01	0.000000e+00	0.0	-1.329760e-01	0.000000e+00	0.0	-4.508738e-02	8.207035e-02	0.0	-3.323975e-02	1.636348e-01	0.0	-1.476173e-02	2.445753e-01	0.0	9.416395e-03	3.249570e-01	0.0	3.848017e-02	4.048245e-01	0.0	7.166595e-02	4.842062e-01	0.0	1.082438e-01	5.631263e-01	0.0	1.475187e-01	6.416084e-01	0.0	1.888290e-01	7.196838e-01	0.0	2.315697e-01	7.973914e-01	0.0	2.751889e-01	8.748019e-01	0.0	3.193267e-01	9.519438e-01	0.0	4.135353e-01	1.000269e+00	0.0	4.192653e-01	8.946064e-01	0.0	3.751885e-01	8.178558e-01	0.0	3.315576e-01	7.413603e-01	0.0	2.888232e-01	6.651782e-01	0.0	2.475148e-01	5.893688e-01	0.0	2.082417e-01	5.139730e-01	0.0	1.716640e-01	4.390189e-01	0.0	1.384784e-01	3.645292e-01	0.0	1.094146e-01	2.905266e-01	0.0	8.523753e-02	2.170402e-01	0.0	6.676644e-02	1.441097e-01	0.0	5.485416e-02	7.177600e-02	0.0	1.329760e-01	0.000000e+00	0.0	2.311224e-01	0.000000e+00	0.0	3.472127e-01	0.000000e+00	0.0	4.845277e-01	0.000000e+00	0.0	6.469477e-01	0.000000e+00	0.0	8.390627e-01	0.000000e+00	0.0	1.066302e+00	0.000000e+00	0.0	1.335087e+00	0.000000e+00	0.0	1.653013e+00	0.000000e+00	0.0	2.029066e+00	0.000000e+00	0.0	2.473871e+00	0.000000e+00	0.0	3.000000e+00	5.714286e-01	0.0	3.000000e+00	1.142857e+00	0.0	3.000000e+00	1.714286e+00	0.0	3.000000e+00	2.285714e+00	0.0	3.000000e+00	2.857143e+00	0.0	3.000000e+00	3.428571e+00	0.0	2.400000e+00	4.000000e+00	0.0	1.800000e+00	4.000000e+00	0.0	1.200000e+00	4.000000e+00	0.0	6.000000e-01	4.000000e+00	0.0	0.000000e+00	4.000000e+00	0.0	-6.000000e-01	4.000000e+00	0.0	-1.200000e+00	4.000000e+00	0.0	-1.800000e+00	4.000000e+00	0.0	-2.400000e+00	4.000000e+00	0.0	1.992265e-01	9.336057e-01	0.0	4.446904e-01	8.426010e-01	0.0	-1.463917e+00	2.865627e-01	0.0	1.535565e+00	1.889711e-01	0.0	2.721731e-01	5.349988e-01	0.0	3.918957e-02	6.218825e-01	0.0	-7.274029e-01	1.983446e-01	0.0	7.779934e-01	1.213669e-01	0.0	-2.544178e+00	2.102968e+00	0.0	2.598973e+00	1.908187e+00	0.0	-8.357255e-01	3.523792e+00	0.0	1.031922e+00	3.445792e+00	0.0	1.821230e-01	3.180336e-01	0.0	-5.540259e-02	3.757777e-01	0.0	-4.025265e-01	1.354344e-01	0.0	4.338953e-01	8.766333e-02	0.0	3.569235e-01	6.846894e-01	0.0	1.136596e-01	7.799224e-01	0.0	1.479681e-01	1.770514e-01	0.0	-9.759008e-02	2.140590e-01	0.0	2.564826e+00	7.630823e-01	0.0	-2.480115e+00	8.201473e-01	0.0	-2.017141e+00	3.471226e+00	0.0	2.124528e+00	3.418420e+00	0.0	-1.785734e-01	8.491511e-02	0.0	1.910135e-01	6.514179e-02	0.0	2.258318e+00	3.530169e-01	0.0	-2.238724e+00	3.796009e-01	0.0	2.551950e+00	1.349973e+00	0.0	2.223675e+00	1.641071e+00	0.0	2.208904e+00	2.065269e+00	0.0	1.905974e+00	1.792871e+00	0.0	1.876677e+00	1.380045e+00	0.0	1.632094e+00	1.582440e+00	0.0	1.609334e+00	1.939882e+00	0.0	1.391213e+00	1.725175e+00	0.0	1.392026e+00	1.417366e+00	0.0	1.194789e+00	1.542355e+00	0.0	1.192701e+00	1.286665e+00	0.0	1.013726e+00	1.370273e+00	0.0	9.955964e-01	1.643299e+00	0.0	8.400741e-01	1.502454e+00	0.0	8.012152e-01	1.746335e+00	0.0	6.520790e-01	1.634584e+00	0.0	5.995486e-01	1.854605e+00	0.0	4.572438e-01	1.738996e+00	0.0	3.799265e-01	1.963927e+00	0.0	2.260684e-01	1.804768e+00	0.0	1.034135e+00	1.151625e+00	0.0	1.337851e+00	2.073513e+00	0.0	5.813310e-01	2.121989e+00	0.0	1.157276e+00	1.033653e+00	0.0	9.959682e-01	9.611968e-01	0.0	1.203044e-01	2.086919e+00	0.0	-9.118960e-02	1.941561e+00	0.0	1.759492e-02	1.668138e+00	0.0	-3.226882e-01	1.799058e+00	0.0	-2.498525e-01	1.563103e+00	0.0	-5.534934e-01	1.645059e+00	0.0	-5.817063e-01	1.879463e+00	0.0	-4.971066e-01	1.405598e+00	0.0	-8.136365e-01	1.479867e+00	0.0	8.912147e-01	1.049395e+00	0.0	8.534638e-01	8.778362e-01	0.0	9.508116e-01	7.828850e-01	0.0	-1.839922e-01	2.227713e+00	0.0	7.965970e-01	7.050380e-01	0.0	5.108096e-01	1.509634e+00	0.0	4.185141e-01	1.052264e+00	0.0	4.789207e-01	1.017700e+00	0.0	4.477386e-01	1.099656e+00	0.0	5.141049e-01	1.083492e+00	0.0	6.277704e-02	2.398583e+00	0.0	-7.724030e-01	1.217435e+00	0.0	-1.092020e+00	1.292946e+00	0.0	-4.690686e-01	1.145069e+00	0.0	-7.951366e-01	9.371167e-01	0.0	-5.100689e-01	9.156581e-01	0.0	-1.137644e+00	1.590864e+00	0.0	8.940582e-01	6.113271e-01	0.0	1.060446e+00	6.817433e-01	0.0	7.335203e-01	5.518851e-01	0.0	5.604753e-03	1.437232e+00	0.0	1.564615e+00	2.308385e+00	0.0	3.703722e-01	1.114008e+00	0.0	4.096182e-01	1.177066e+00	0.0	5.351607e-01	9.921281e-01	0.0	5.865245e-01	1.064885e+00	0.0	5.527144e-01	1.158270e+00	0.0	6.037376e-01	9.614923e-01	0.0	9.987953e-01	5.096014e-01	0.0	1.201190e+00	5.985862e-01	0.0	3.106291e-01	1.191592e+00	0.0	-2.708020e-01	1.032748e+00	0.0	-3.022794e-01	8.537372e-01	0.0	-5.026964e-01	7.146685e-01	0.0	-2.998233e-01	6.801602e-01	0.0	-1.435959e+00	1.378422e+00	0.0	6.486571e-01	1.149593e+00	0.0	-2.820129e-01	2.546543e+00	0.0	-1.263961e-02	2.758479e+00	0.0	6.470844e-01	6.297859e-01	0.0	5.812969e-01	4.918238e-01	0.0	3.617661e-01	1.272746e+00	0.0	6.673011e-01	4.147940e-01	0.0	5.149640e-01	3.647317e-01	0.0	1.259612e+00	2.457236e+00	0.0	-1.492129e+00	1.711844e+00	0.0	1.499910e+00	2.701185e+00	0.0	5.968042e-01	2.895616e-01	0.0	1.118561e+00	3.494963e-01	0.0	-1.376598e+00	1.083166e+00	0.0	-4.827561e-01	5.345565e-01	0.0	-6.498608e-01	5.643141e-01	0.0	-3.330154e-01	4.942517e-01	0.0	-8.574403e-02	9.749788e-01	0.0	-8.369907e-02	1.124521e+00	0.0	-1.903086e+00	1.478607e+00	0.0	5.026016e-01	5.681026e-01	0.0	5.786804e-01	7.034120e-01	0.0	7.611574e-01	3.341922e-01	0.0	-1.880933e-01	5.897594e-01	0.0	9.346131e-01	1.924383e+00	0.0	1.343610e+00	5.123117e-01	0.0	1.405210e+00	7.213378e-01	0.0	1.569734e+00	5.855685e-01	0.0	1.645728e+00	8.562290e-01	0.0	1.876940e+00	7.267802e-01	0.0	5.932838e-01	1.257777e+00	0.0	7.053141e-01	1.245891e+00	0.0	-4.701674e-01	3.636652e-01	0.0	-2.355162e-01	1.369465e+00	0.0	-5.491470e-01	2.343225e+00	0.0	-6.724066e-01	2.693871e+00	0.0	-9.684530e-01	2.479781e+00	0.0	-1.087476e+00	2.834525e+00	0.0	-1.467571e+00	2.515594e+00	0.0	-2.035798e-01	4.374338e-01	0.0	2.391733e-01	1.284525e+00	0.0	2.860716e-01	1.386867e+00	0.0	1.940214e-01	1.193841e+00	0.0	3.744903e-01	2.562806e+00	0.0	3.047849e-01	3.025051e+00	0.0	6.728920e-01	2.764687e+00	0.0	-1.181166e+00	1.921860e+00	0.0	7.673385e-01	9.657060e-01	0.0	-1.498994e-01	3.174096e+00	0.0	-1.409448e-01	8.159853e-01	0.0	4.490917e-01	2.492175e-01	0.0	3.540128e-01	3.166893e-01	0.0	3.154360e-01	2.197298e-01	0.0	2.656434e-01	1.122720e+00	0.0	1.575362e-01	1.102288e+00	0.0	1.839267e+00	2.553196e+00	0.0	1.565729e+00	1.263331e+00	0.0	2.533194e+00	2.480918e+00	0.0	1.095628e+00	2.883636e+00	0.0	-1.555507e+00	2.075331e+00	0.0	4.215493e-01	4.350676e-01	0.0	2.993547e-01	3.944081e-01	0.0	1.240999e+00	1.693982e-01	0.0	1.683906e-03	8.868871e-01	0.0	-1.032559e-01	5.194398e-01	0.0	4.753927e-01	3.520979e+00	0.0	-3.271716e-01	3.399186e-01	0.0	-2.145278e-01	3.046673e-01	0.0	7.142136e-01	8.052668e-01	0.0	2.215072e+00	9.966091e-01	0.0	-1.579908e+00	3.046116e+00	0.0	-1.938571e+00	2.699136e+00	0.0	6.414889e-01	1.375381e+00	0.0	-2.448609e+00	1.341635e+00	0.0	8.585206e-01	1.297842e+00	0.0	-1.175603e+00	2.584867e-01	0.0	-1.264170e+00	5.383355e-01	0.0	-1.553563e+00	5.876996e-01	0.0	-9.901107e-01	5.142759e-01	0.0	-1.070772e+00	7.768435e-01	0.0	1.772039e+00	3.013810e+00	0.0	2.330143e-01	1.619526e+00	0.0	6.171251e-01	8.395100e-01	0.0	1.056029e-01	1.288974e+00	0.0	4.238106e-02	9.758680e-01	0.0	4.998748e-01	7.693664e-01	0.0	-1.978031e-02	7.603319e-01	0.0	-5.444284e-01	2.004670e-01	0.0	5.889521e-01	9.758053e-02	0.0	1.002458e+00	1.573834e-01	0.0	-9.348696e-01	2.301236e-01	0.0	1.861651e+00	2.365327e-01	0.0	3.047760e-01	7.592482e-02	0.0	-2.755379e-01	1.091859e-01	0.0	-1.423648e+00	3.540557e+00	0.0	4.234647e-01	1.374363e+00	0.0	2.567372e+00	3.092654e+00	0.0	3.902650e-01	5.137380e-01	0.0	-1.815928e+00	3.297476e-01	0.0	-1.931363e+00	7.410153e-01	0.0	1.486372e+00	9.863386e-01	0.0	4.153659e-01	6.146392e-01	0.0	5.355377e-01	8.864968e-01	0.0	1.036587e+00	2.209553e+00	0.0	-2.488947e+00	2.548933e+00	0.0	1.531982e+00	3.499301e+00	0.0	-6.811081e-02	6.467266e-01	0.0	4.825872e-01	9.318938e-01	0.0	-2.419262e+00	3.087533e+00	0.0	1.551127e-01	8.558391e-01	0.0	8.903024e-01	2.527414e-01	0.0	7.132598e-01	2.407341e+00	0.0	-7.848642e-01	3.869422e-01	0.0	7.335432e-02	7.015366e-01	0.0	4.003384e-01	7.609776e-01	0.0	-2.094604e+00	1.108612e+00	0.0	3.127042e-01	6.130377e-01	0.0	-2.756052e-03	5.504821e-01	0.0	2.400577e-01	4.612666e-01	0.0	1.252718e+00	8.331713e-01	0.0	2.084496e-01	3.869694e-01	0.0	-7.585076e-02	2.927347e-01	0.0	1.593758e-01	2.472079e-01	0.0	2.466882e-01	2.709958e-01	0.0	-3.405082e-02	4.607361e-01	0.0	2.405477e-01	1.413431e-01	0.0	-1.934278e-01	1.939168e-01	0.0	-7.067407e-01	7.309111e-01	0.0	6.220570e-02	1.180365e+00	0.0	2.182041e+00	6.669677e-01	0.0	7.772946e-01	1.127029e+00	0.0	1.918648e+00	1.056564e+00	0.0	3.670137e-01	1.067625e+00	0.0	8.296530e-01	4.674426e-01	0.0	-6.119616e-01	3.773768e-01	0.0	4.417860e-01	7.087978e-01	0.0	2.346712e-01	1.053189e+00	0.0	1.261785e-01	1.056353e-01	0.0	-1.071891e-01	1.273662e-01	0.0	-1.834931e+00	1.848045e+00	0.0	-1.989374e+00	2.223887e+00	0.0	-2.318245e-01	1.198865e+00	0.0	-7.658973e-01	3.086520e+00	0.0	4.664419e-01	1.248818e+00	0.0	1.345253e+00	1.135864e+00	0.0	-3.979057e-01	2.924054e+00	0.0	1.085689e+00	8.555902e-01	0.0	9.595966e-01	2.544099e+00	0.0	7.234417e-01	3.128184e+00	0.0	-1.078813e+00	1.018131e+00	0.0	2.172776e+00	2.827212e+00	0.0	1.400917e+00	3.109727e+00	0.0	-1.180107e-01	4.
[...]
POINT_DATA 394

SCALARS Density float 1
LOOKUP_TABLE default
1.223712e+00	1.223951e+00	1.221437e+00	1.221769e+00	1.223249e+00	1.223551e+00	1.223278e+00	1.223583e+00	1.223567e+00	1.223579e+00	1.223621e+00	1.223648e+00	1.223714e+00	1.223720e+00	1.223731e+00	1.223722e+00	1.223753e+00	1.223774e+00	1.223817e+00	1.223843e+00	1.223864e+00	1.223930e+00	1.223902e+00	1.224008e+00	1.223897e+00	1.224046e+00	1.223904e+00	1.223914e+00	1.223900e+00	1.223856e+00	1.223825e+00	1.223766e+00	1.223750e+00	1.223653e+00	1.223739e+00	1.222913e+00	1.224882e+00	1.219539e+00	1.223725e+00	1.223227e+00	1.223254e+00	1.223238e+00	1.223177e+00	1.223145e+00	1.223130e+00	1.223124e+00	1.223140e+00	1.223171e+00	1.223097e+00	1.223317e+00	1.223103e+00	1.223209e+00	1.223138e+00	1.223083e+00	1.223042e+00	1.223014e+00	1.222932e+00	1.222940e+00	1.222956e+00	1.223109e+00	1.222645e+00	1.223287e+00	1.223025e+00	1.222864e+00	1.222812e+00	1.222949e+00	1.223100e+00	1.223105e+00	1.223242e+00	1.223275e+00	1.223357e+00	1.223408e+00	1.223488e+00	1.223540e+00	1.223572e+00	1.223572e+00	1.222927e+00	1.223615e+00	1.223763e+00	1.222898e+00	1.223182e+00	1.223730e+00	1.223841e+00	1.222979e+00	1.223618e+00	1.223291e+00	1.223509e+00	1.223305e+00	1.223142e+00	1.223863e+00	1.223917e+00	1.223085e+00	1.223327e+00	1.223511e+00	1.223222e+00	1.223924e+00	1.222919e+00	1.223713e+00	1.223592e+00	1.223131e+00	1.223964e+00	1.223186e+00	1.223055e+00	1.223705e+00	1.222930e+00	1.222840e+00	1.223091e+00	1.223072e+00	1.222948e+00	1.222966e+00	1.223000e+00	1.223240e+00	1.222743e+00	1.222820e+00	1.222864e+00	1.222995e+00	1.222825e+00	1.223135e+00	1.223110e+00	1.223254e+00	1.223163e+00	1.223226e+00	1.223439e+00	1.223317e+00	1.222799e+00	1.223010e+00	1.223250e+00	1.222656e+00	1.222829e+00	1.223404e+00	1.223493e+00	1.223500e+00	1.223433e+00	1.223578e+00	1.223649e+00	1.223538e+00	1.223623e+00	1.223626e+00	1.222986e+00	1.222882e+00	1.222983e+00	1.223500e+00	1.223013e+00	1.223177e+00	1.221134e+00	1.221513e+00	1.222668e+00	1.222688e+00	1.223407e+00	1.223696e+00	1.223683e+00	1.223735e+00	1.223749e+00	1.223763e+00	1.223644e+00	1.222914e+00	1.222733e+00	1.223018e+00	1.223513e+00	1.223194e+00	1.221580e+00	1.223113e+00	1.222568e+00	1.222628e+00	1.222462e+00	1.222886e+00	1.222950e+00	1.222865e+00	1.223114e+00	1.223707e+00	1.223751e+00	1.223785e+00	1.223758e+00	1.223672e+00	1.222538e+00	1.223465e+00	1.223453e+00	1.223160e+00	1.223071e+00	1.223062e+00	1.223035e+00	1.223092e+00	1.223284e+00	1.223641e+00	1.223174e+00	1.223089e+00	1.222840e+00	1.223719e+00	1.223822e+00	1.223845e+00	1.223923e+00	1.223635e+00	1.223573e+00	1.223680e+00	1.223136e+00	1.223216e+00	1.222973e+00	1.223828e+00	1.223361e+00	1.222723e+00	1.222922e+00	1.222688e+00	1.222686e+00	1.222835e+00	1.222756e+00	1.222739e+00	1.223889e+00	1.223510e+00	1.223525e+00	1.223507e+00	1.223569e+00	1.223552e+00	1.223610e+00	1.223851e+00	1.223115e+00	1.223471e+00	1.223435e+00	1.223329e+00	1.223367e+00	1.223397e+00	1.223615e+00	1.222734e+00	1.223404e+00	1.223794e+00	1.223074e+00	1.223099e+00	1.223139e+00	1.223649e+00	1.223068e+00	1.223096e+00	1.222720e+00	1.223291e+00	1.223294e+00	1.223632e+00	1.223174e+00	1.223052e+00	1.222739e+00	1.223592e+00	1.223944e+00	1.223402e+00	1.223890e+00	1.223923e+00	1.222928e+00	1.222719e+00	1.223547e+00	1.223584e+00	1.222593e+00	1.223659e+00	1.222834e+00	1.223802e+00	1.223822e+00	1.223693e+00	1.223796e+00	1.223723e+00	1.223261e+00	1.223477e+00	1.223001e+00	1.223408e+00	1.223657e+00	1.223277e+00	1.223796e+00	1.223943e+00	1.223058e+00	1.222962e+00	1.223839e+00	1.222754e+00	1.223212e+00	1.223978e+00	1.223549e+00	1.223022e+00	1.223166e+00	1.223219e+00	1.223759e+00	1.223707e+00	1.222819e+00	1.223167e+00	1.222862e+00	1.223218e+00	1.223621e+00	1.223240e+00	1.223742e+00	1.222954e+00	1.223606e+00	1.223996e+00	1.222957e+00	1.223342e+00	1.223805e+00	1.223774e+00	1.223233e+00	1.223677e+00	1.223252e+00	1.223778e+00	1.223166e+00	1.222809e+00	1.223155e+00	1.223908e+00	1.223151e+00	1.223085e+00	1.223799e+00	1.223063e+00	1.223956e+00	1.223760e+00	1.223563e+00	1.222720e+00	1.222825e+00	1.223121e+00	1.225442e+00	1.222996e+00	1.223888e+00	1.223137e+00	1.223401e+00	1.223129e+00	1.223933e+00	1.223626e+00	1.223632e+00	1.223632e+00	1.223506e+00	1.222648e+00	1.222898e+00	1.223466e+00	1.222749e+00	1.223236e+00	1.223280e+00	1.223756e+00	1.223304e+00	1.223245e+00	1.223900e+00	1.223549e+00	1.223503e+00	1.223067e+00	1.223551e+00	1.222727e+00	1.223150e+00	1.223874e+00	1.223035e+00	1.223362e+00	1.223090e+00	1.223363e+00	1.223726e+00	1.222992e+00	1.223296e+00	1.223619e+00	1.222806e+00	1.223729e+00	1.223057e+00	1.222224e+00	1.223738e+00	1.223733e+00	1.223176e+00	1.223377e+00	1.222359e+00	1.223596e+00	1.223076e+00	1.223588e+00	1.223808e+00	1.225530e+00	1.223908e+00	1.223720e+00	1.223079e+00	1.223187e+00	1.223560e+00	1.223413e+00	1.223765e+00	1.223033e+00	1.223924e+00	1.222885e+00	1.222819e+00	1.223569e+00	1.222839e+00	1.223565e+00	1.223289e+00	1.223794e+00	1.223744e+00	1.223683e+00	1.223082e+00	1.223095e+00	1.223961e+00	1.223292e+00	1.223474e+00	1.223138e+00	1.223518e+00	1.222691e+00	1.223392e+00	1.223157e+00	1.223114e+00	1.223461e+00	1.223747e+00	1.222851e+00	1.223249e+00	1.222589e+00	1.223272e+00	1.222876e+00	1.223635e+00	1.222709e+00	
SCALARS X-Momentum float 1
LOOKUP_TABLE default
8.766815e+00	3.868684e-01	6.695282e+00	-4.029221e-01	-6.234310e-01	-4.474839e+00	1.619290e+01	1.036749e+01	1.023440e+01	1.002962e+01	9.776495e+00	9.482877e+00	9.205341e+00	8.943178e+00	8.617973e+00	8.317728e+00	7.863721e+00	7.274807e+00	6.601324e+00	5.828631e+00	4.954327e+00	4.102594e+00	3.117596e+00	2.146438e+00	1.187903e+00	6.390206e-02	3.883142e-01	8.542834e-01	1.390381e+00	1.984700e+00	2.586494e+00	3.174353e+00	3.754737e+00	4.306196e+00	4.712847e+00	4.699170e+00	4.366771e+00	3.868086e+00	6.239318e-01	8.912328e-01	1.408019e+00	1.729261e+00	1.917359e+00	1.977353e+00	1.859884e+00	1.607052e+00	1.277458e+00	8.892516e-01	5.319422e-01	2.525963e-01	-2.018320e+00	-3.643827e+00	-5.001424e+00	-6.193444e+00	-7.146803e+00	-7.853191e+00	-8.344035e+00	-8.572634e+00	-8.071902e+00	-7.137701e+00	-6.152671e+00	-5.701997e-01	4.975492e+00	1.035455e+01	1.418263e+01	1.601306e+01	1.640750e+01	1.550547e+01	1.464912e+01	1.372368e+01	1.295452e+01	1.231033e+01	1.173427e+01	1.121502e+01	1.078597e+01	1.050000e+01	5.073087e+00	1.671631e+00	7.747496e+00	-5.811205e+00	1.912572e+00	4.133590e+00	5.659954e+00	-5.577244e+00	9.709466e+00	1.257354e+01	1.136957e+01	1.383417e+01	9.646222e-01	2.427616e+00	3.729568e+00	-4.193666e+00	1.999928e+00	5.060817e+00	-5.288389e-02	1.451822e+00	1.215943e+00	8.949948e+00	1.049318e+01	1.549609e+01	1.688015e+00	-1.963397e+00	-3.061010e+00	8.632008e+00	7.490803e+00	1.093651e+01	1.408423e+01	1.292643e+01	8.941269e+00	1.166029e+01	1.439939e+01	1.347246e+01	1.028955e+01	1.218244e+01	8.650563e+00	1.040339e+01	1.372738e+01	1.279690e+01	1.458904e+01	1.425005e+01	1.456532e+01	1.414451e+01	1.372349e+01	1.296575e+01	6.716334e+00	1.515175e+01	1.421210e+01	5.034499e+00	3.995858e+00	1.259762e+01	1.174237e+01	1.170162e+01	1.084825e+01	1.043342e+01	1.010816e+01	1.046749e+01	9.507332e+00	9.468771e+00	4.805445e+00	2.847456e+00	2.133223e+00	1.170933e+01	1.746318e+00	1.386892e+01	5.509818e+00	2.084846e+00	6.521825e+00	4.437865e+00	1.240986e+01	8.813018e+00	8.997671e+00	8.619783e+00	7.945179e+00	7.578994e+00	9.516304e+00	6.613510e-01	9.943064e-01	7.039722e-01	1.097991e+01	1.548574e+01	9.679899e+00	1.058853e+01	1.827636e+00	3.845459e+00	7.342311e+00	2.363883e+00	-9.035285e-01	-4.180756e-01	1.164941e+01	8.085688e+00	7.025871e+00	6.632607e+00	5.878956e+00	9.161197e+00	6.329826e+00	1.168550e+01	1.226695e+01	1.769311e+00	8.190282e-01	1.259981e+01	-5.378218e-01	-3.481807e-01	1.528852e+01	9.583365e+00	1.532849e+01	-1.869729e+00	-3.143002e+00	8.688902e+00	5.735091e+00	6.372777e+00	4.912459e+00	7.430316e+00	8.634880e+00	9.296094e+00	1.823044e+00	2.369092e+00	-2.085646e+00	4.857637e+00	1.494478e+01	-1.682136e+00	8.979923e-01	-9.338210e-01	2.398746e+00	7.295801e-01	1.012850e+01	9.154324e+00	4.923555e+00	9.733313e+00	1.109209e+01	1.120111e+01	1.069569e+01	1.082454e+01	1.032467e+01	3.877641e+00	1.208080e+01	1.295281e+01	1.071421e+01	1.315148e+01	1.282903e+01	1.379236e+01	9.959906e+00	3.321691e+00	1.209731e+01	6.367182e+00	-1.515140e+00	-3.224519e-02	-9.987313e-01	1.022974e+01	8.841118e+00	1.561142e+01	7.957005e+00	1.534326e+01	1.449654e+01	9.941330e+00	9.647289e-01	1.062673e+00	-6.015863e+00	6.462482e+00	3.982674e+00	1.294244e+01	4.067746e+00	3.084641e+00	2.411176e+00	3.752010e+00	1.054843e+01	1.019855e+01	1.218025e+01	9.253472e+00	9.596404e+00	7.172172e+00	7.703235e+00	8.178526e+00	7.131259e+00	7.804566e+00	1.532131e+01	1.292289e+01	2.414772e+00	1.095172e+01	7.064829e+00	2.341801e+00	5.512173e+00	4.767191e+00	-5.018901e+00	-5.803167e+00	6.481783e+00	-4.883928e+00	-3.155930e+00	2.680992e+00	1.087329e+01	1.342552e+01	1.611719e+01	1.723957e+00	8.255872e+00	8.650353e+00	4.286334e+00	2.106142e+00	1.989721e+00	1.512035e+01	9.956484e+00	1.462177e+01	4.727510e+00	9.824729e-01	1.021553e+01	5.375404e+00	-3.773265e+00	1.423230e+01	6.348866e+00	4.630071e+00	1.833407e+00	9.007493e+00	1.999247e+00	3.665905e+00	1.683717e+00	2.605085e+00	1.364863e+00	1.879242e+00	5.000343e-01	1.259943e-01	3.043841e+00	-1.397625e+00	2.216037e+00	7.108488e+00	9.566175e+00	7.359937e-02	6.002624e+00	4.839497e+00	8.403957e+00	-7.095401e-01	5.624740e+00	2.276895e+00	7.974686e+00	-5.451365e-01	1.063579e+00	9.650832e+00	9.887490e+00	8.968953e+00	1.128622e+01	1.126747e+01	6.431459e+00	1.167828e+01	2.800966e+00	1.471518e+01	1.352924e+01	8.400971e+00	1.577121e+01	1.474513e+01	3.296609e+00	1.099813e+01	1.192212e+01	1.502604e+01	1.048098e+01	3.637500e+00	1.454803e+01	3.305945e+00	-3.148809e+00	1.482114e+01	-2.452506e+00	1.329146e+01	8.884308e+00	-3.599856e+00	1.351700e+01	9.983432e+00	2.603721e+00	8.205192e+00	-2.875339e+00	-3.056782e+00	8.800406e+00	6.135226e+00	6.693758e+00	1.197506e+01	8.402895e+00	9.766982e+00	1.145929e+01	1.028169e+01	4.218037e+00	5.846920e+00	2.829142e+00	8.526032e+00	-3.627034e-01	1.290981e+01	1.034025e+01	1.238663e+01	5.532229e+00	1.600287e+01	2.302474e+00	-3.674780e+00	-1.992146e+00	1.034661e+01	-2.171849e+00	1.095810e+01	1.237797e+01	6.853019e+00	8.136330e+00	9.537626e+00	7.306521e-01	1.573441e+00	7.871255e-01	-8.746858e-01	1.380451e+01	1.480054e+01	5.725621e+00	1.325034e+01	9.221108e+00	1.550078e+01	1.935091e+00	1.166280e+01	7.363839e+00	7.537982e+00	2.324379e+00	5.541703e+00	1.368516e+01	9.144787e+00	4.823812e+00	7.408652e+00	
SCALARS Y-Momentum float 1
LOOKUP_TABLE default
-1.977570e-02	3.810114e-01	5.803080e+00	-9.431255e-01	5.915846e-01	2.355867e-01	5.947201e-02	-1.247164e-02	1.594909e-02	4.334604e-02	5.953123e-02	7.648332e-02	6.392847e-02	1.149407e-02	-3.767217e-03	-2.210152e-04	6.518294e-03	5.587801e-03	1.132410e-02	1.385319e-02	-1.747379e-03	2.154645e-02	7.491254e-03	7.213127e-03	-3.122134e-02	1.237083e+00	2.232910e+00	3.198360e+00	4.194597e+00	5.127818e+00	5.972308e+00	6.740802e+00	7.473652e+00	8.234302e+00	8.807005e+00	8.967826e+00	9.138366e+00	-2.542255e+00	1.169557e+00	2.016802e+00	2.811610e+00	3.436918e+00	3.846609e+00	4.085658e+00	4.115287e+00	3.949028e+00	3.619373e+00	3.116554e+00	2.478520e+00	1.609636e+00	-1.604842e-03	3.686745e-02	2.680026e-02	8.552726e-03	2.235377e-03	7.288969e-03	1.143981e-02	2.720662e-03	-4.481366e-02	-6.972931e-02	-1.031493e-01	-5.551345e-01	-5.509921e-01	-6.840449e-02	6.228274e-01	8.413607e-01	4.935490e-01	1.170966e-02	-6.710329e-04	-1.113789e-02	-4.079581e-02	-2.625404e-02	-5.147310e-03	-5.224244e-03	2.359410e-03	-3.077631e-03	9.215740e+00	2.496163e+00	5.041416e-01	-2.336822e-01	3.676656e+00	6.511771e+00	8.814899e-01	4.745166e-01	3.894667e-01	2.867020e-01	4.421635e-01	8.210860e-01	3.372215e+00	4.224187e+00	9.697130e-01	6.880688e-01	3.215883e+00	7.835382e+00	2.429233e+00	2.506514e+00	-9.053731e-01	3.279199e-01	2.559400e-01	8.162894e-01	8.331787e-01	9.194079e-01	-6.656735e-01	2.499891e-01	-5.385540e-01	1.683076e-02	8.725753e-01	8.362017e-01	2.709663e-02	8.536672e-01	1.685424e+00	1.756380e+00	1.046403e+00	1.889520e+00	1.386358e+00	2.087354e+00	2.905549e+00	3.236639e+00	3.952772e+00	4.497513e+00	4.528292e+00	5.243670e+00	4.367041e+00	5.024148e+00	1.670625e+00	2.411725e+00	3.775518e+00	1.404576e+00	2.031336e+00	3.624391e+00	3.718999e+00	5.124416e+00	3.531204e+00	4.341345e+00	3.116573e+00	2.655935e+00	3.611506e+00	2.582724e+00	2.197192e+00	2.801104e+00	2.374311e+00	2.707839e+00	2.987882e+00	5.232362e+00	2.875295e-01	4.434632e-01	1.537587e+00	1.289284e+00	2.573377e+00	2.775666e+00	2.050984e+00	3.868062e+00	2.620883e+00	3.591091e+00	1.906566e+00	2.290697e+00	1.765885e+00	2.634167e+00	6.272256e+00	2.029741e+00	5.586607e+00	4.837770e+00	2.062409e+00	2.170445e+00	2.288366e+00	3.082136e+00	1.513177e+00	9.333095e-01	8.223806e+00	4.986566e+00	4.608880e+00	3.339971e+00	4.185675e+00	1.490135e+00	2.233132e+00	1.912342e+00	1.692820e+00	3.277309e+00	2.813052e+00	7.139928e+00	2.159975e+00	2.353291e+00	2.377429e+00	1.376365e+00	1.867153e+00	1.644614e+00	6.400480e-01	1.496236e+00	2.901970e+00	2.389695e+00	3.318505e+00	6.471823e+00	6.697173e+00	9.606002e-01	3.305869e+00	3.626742e+00	1.484000e+00	4.461374e+00	3.443290e+00	2.881158e-01	3.201814e-01	-1.278911e-01	-2.221491e-01	-7.224143e-01	3.022275e+00	2.474202e+00	2.216043e+00	4.943058e+00	1.999130e+00	1.425454e+00	1.475647e+00	1.032707e+00	1.037371e+00	3.596008e+00	8.638431e+00	7.610197e+00	9.605965e+00	2.392323e+00	1.329007e+00	2.057017e+00	1.698229e+00	2.877157e+00	9.686940e-01	5.626165e+00	1.877357e+00	2.664351e+00	2.163123e+00	9.718951e+00	1.011427e+01	1.689813e+00	3.867005e-01	1.043490e+00	1.798959e+00	1.208508e+00	3.025962e+00	3.267059e+00	9.544340e-02	7.165376e+00	4.765039e+00	6.226667e-01	2.513117e+00	2.676755e+00	3.516015e+00	-9.654461e-01	6.334622e-01	6.079527e-01	3.678945e+00	4.602316e-01	2.204140e+00	6.272496e-01	1.101910e+00	8.522551e-01	1.420732e+00	1.747602e+00	1.412359e+00	6.126752e+00	3.711632e+00	8.227072e+00	8.252039e+00	3.326764e+00	6.545927e+00	1.096414e+00	5.598974e-01	3.434745e-01	7.572713e-01	-4.401044e-01	8.638921e-01	9.478964e-01	3.359945e-01	6.218476e+00	1.012631e+00	3.359392e+00	3.908898e-01	6.577610e-01	3.700437e-01	3.377178e+00	3.134554e+00	3.016618e+00	3.626109e-01	7.661391e-01	5.644162e+00	1.886526e+00	2.702202e-01	8.718205e+00	9.051025e-01	2.977000e+00	1.556435e+00	7.158500e+00	2.795523e+00	6.976812e-01	3.492731e+00	5.778117e+00	3.708537e+00	1.099842e+00	3.607581e+00	3.393956e+00	2.992133e+00	2.812034e+00	4.989798e+00	1.760467e+00	1.892796e+00	2.636674e+00	8.523535e+00	-9.510530e-01	2.224872e+00	-5.813222e-01	3.282277e+00	1.910285e+00	1.852437e+00	3.253006e+00	1.072366e+01	1.744434e+00	1.573003e+00	9.878968e-01	7.573205e-01	5.231328e+00	9.232261e-01	4.335065e+00	9.011790e-01	1.262026e+00	1.795619e+00	2.529071e+00	1.302604e+00	1.987386e+00	1.398483e+00	1.377808e+00	4.156891e+00	2.668646e+00	4.327630e-01	1.528027e+00	2.002239e+00	2.684491e+00	2.642974e+00	1.816745e+00	1.177810e+00	3.600951e+00	1.440521e+00	3.348537e+00	1.055078e+00	1.022124e+00	6.619501e+00	2.301836e+00	3.450472e+00	1.359634e+00	-4.665841e-01	-5.120502e-01	1.100539e-01	8.702830e+00	9.976379e+00	7.823648e+00	2.501909e+00	6.661102e+00	2.963972e+00	1.459560e+00	1.721614e+00	1.062753e+01	3.459241e+00	1.048634e+00	2.448549e+00	4.558143e+00	1.076213e-01	6.047777e-01	5.203376e+00	4.857694e-01	2.785067e+00	6.600436e-03	-7.854767e-01	4.452312e-01	1.280921e+00	6.748033e-01	6.775131e+00	2.014804e+00	8.492693e+00	6.145364e-01	3.158168e+00	3.414873e+00	7.213667e-01	9.184714e-01	6.041657e+00	4.003054e+00	7.734985e+00	3.857659e+00	4.338615e+00	1.412321e+00	3.463850e+00	7.634106e-01	2.068972e+00	-5.789712e-01	3.445998e+00	-9.929647e-02	3.131259e+00	8.032433e+00	6.358700e+00	1.873627e+00	
SCALARS Energy float 1
LOOKUP_TABLE default