# vtk DataFile Version 3.0
vtk output
ASCII
DATASET UNSTRUCTURED_GRID
POINTS 394 float
-3.000000e+00	0.000000e+00	0.0	-5.000000e-02	4.099717e-17	0.0	3.574928e-01	1.028499e+00	0.0	4.575438e-01	9.714485e-01	0.0	5.000000e-02	-4.388133e-18	0.0	3.000000e+00	0.000000e+00	0.0	3.000000e+00	4.000000e+00	0.0	-3.000000e+00	4.000000e+00	0.0	-3.000000e+00	3.428571e+00	0.0	-3.000000e+00	2.857143e+00	0.0	-3.000000e+00	2.285714e+00	0.0	-3.000000e+00	1.714286e+00	0.0	-3.000000e+00	1.142857e+00	0.0	-3.000000e+00	5.714286e-01	0.0	-2.473871e+00	0.000000e+00	0.0	-2.029066e+00	0.000000e+00	0.0	-1.653013e+00	0.000000e+00	0.0	-1.335087e+00	0.000000e+00	0.0	-1.066302e+00	0.000000e+00	0.0	-8.390627e-01	0.000000e+00	0.0	-6.469477e-01	0.000000e+00	0.0	-4.845277e-01	0.000000e+00	0.0	-3.472127e-01	0.000000e+00	0.0	-2.311224e-01	0.000000e+00	0.0	-1.329760e-01	0.000000e+00	0.0	-4.527096e-02	8.187757e-02	0.0	-3.378745e-02	1.632937e-01	0.0	-1.582328e-02	2.441253e-01	0.0	7.740110e-03	3.244352e-01	0.0	3.614088e-02	4.042697e-01	0.0	6.867221e-02	4.836526e-01	0.0	1.046484e-01	5.625943e-01	0.0	1.433937e-01	6.411038e-01	0.0	1.842466e-01	7.192036e-01	0.0	2.265913e-01	7.969276e-01	0.0	2.698570e-01	8.743423e-01	0.0	3.136525e-01	9.514804e-01	0.0	4.075184e-01	1.000018e+00	0.0	4.135986e-01	8.945888e-01	0.0	3.698626e-01	8.178527e-01	0.0	3.265879e-01	7.413893e-01	0.0	2.842507e-01	6.652559e-01	0.0	2.433997e-01	5.895061e-01	0.0	2.046555e-01	5.141731e-01	0.0	1.686785e-01	4.392754e-01	0.0	1.361475e-01	3.648223e-01	0.0	1.077482e-01	2.908260e-01	0.0	8.418823e-02	2.173135e-01	0.0	6.623298e-02	1.443279e-01	0.0	5.468892e-02	7.190659e-02	0.0	1.329760e-01	0.000000e+00	0.0	2.311224e-01	0.000000e+00	0.0	3.472127e-01	0.000000e+00	0.0	4.845277e-01	0.000000e+00	0.0	6.469477e-01	0.000000e+00	0.0	8.390627e-01	0.000000e+00	0.0	1.066302e+00	0.000000e+00	0.0	1.335087e+00	0.000000e+00	0.0	1.653013e+00	0.000000e+00	0.0	2.029066e+00	0.000000e+00	0.0	2.473871e+00	0.000000e+00	0.0	3.000000e+00	5.714286e-01	0.0	3.000000e+00	1.142857e+00	0.0	3.000000e+00	1.714286e+00	0.0	3.000000e+00	2.285714e+00	0.0	3.000000e+00	2.857143e+00	0.0	3.000000e+00	3.428571e+00	0.0	2.400000e+00	4.000000e+00	0.0	1.800000e+00	4.000000e+00	0.0	1.200000e+00	4.000000e+00	0.0	6.000000e-01	4.000000e+00	0.0	0.000000e+00	4.000000e+00	0.0	-6.000000e-01	4.000000e+00	0.0	-1.200000e+00	4.000000e+00	0.0	-1.800000e+00	4.000000e+00	0.0	-2.400000e+00	4.000000e+00	0.0	1.940103e-01	9.328673e-01	0.0	4.392667e-01	8.427343e-01	0.0	-1.464247e+00	2.859624e-01	0.0	1.534857e+00	1.895055e-01	0.0	2.684432e-01	5.353165e-01	0.0	3.562467e-02	6.210342e-01	0.0	-7.278047e-01	1.976424e-01	0.0	7.772740e-01	1.218919e-01	0.0	-2.544828e+00	2.102555e+00	0.0	2.597618e+00	1.908614e+00	0.0	-8.371070e-01	3.523509e+00	0.0	1.030008e+00	3.445861e+00	0.0	1.801183e-01	3.184776e-01	0.0	-5.722410e-02	3.750015e-01	0.0	-4.028466e-01	1.348638e-01	0.0	4.333837e-01	8.803032e-02	0.0	3.522987e-01	6.848927e-01	0.0	1.091923e-01	7.791095e-01	0.0	1.470361e-01	1.774240e-01	0.0	-9.840723e-02	2.134929e-01	0.0	2.563997e+00	7.638511e-01	0.0	-2.480485e+00	8.196334e-01	0.0	-2.017745e+00	3.470919e+00	0.0	2.123525e+00	3.418660e+00	0.0	-1.787555e-01	8.460694e-02	0.0	1.907423e-01	6.536319e-02	0.0	2.257612e+00	3.536794e-01	0.0	-2.238912e+00	3.792372e-01	0.0	2.550434e+00	1.350679e+00	0.0	2.221322e+00	1.641940e+00	0.0	2.206521e+00	2.065817e+00	0.0	1.902862e+00	1.793677e+00	0.0	1.873699e+00	1.381228e+00	0.0	1.628337e+00	1.583426e+00	0.0	1.605621e+00	1.940582e+00	0.0	1.386895e+00	1.725946e+00	0.0	1.387786e+00	1.418379e+00	0.0	1.190040e+00	1.543103e+00	0.0	1.188031e+00	1.287625e+00	0.0	1.008505e+00	1.370988e+00	0.0	9.904393e-01	1.643729e+00	0.0	8.344750e-01	1.502767e+00	0.0	7.958903e-01	1.746460e+00	0.0	6.464337e-01	1.634606e+00	0.0	5.941900e-01	1.854528e+00	0.0	4.516301e-01	1.738688e+00	0.0	3.746778e-01	1.963626e+00	0.0	2.205415e-01	1.804227e+00	0.0	1.029183e+00	1.152506e+00	0.0	1.333740e+00	2.074058e+00	0.0	5.763808e-01	2.121893e+00	0.0	1.152887e+00	1.034791e+00	0.0	9.913971e-01	9.621681e-01	0.0	1.154558e-01	2.086394e+00	0.0	-9.594068e-02	1.940690e+00	0.0	1.214295e-02	1.667214e+00	0.0	-3.270766e-01	1.797802e+00	0.0	-2.546053e-01	1.561663e+00	0.0	-5.574672e-01	1.643625e+00	0.0	-5.855868e-01	1.878138e+00	0.0	-5.012493e-01	1.403899e+00	0.0	-8.168783e-01	1.478311e+00	0.0	8.861383e-01	1.050113e+00	0.0	8.487493e-01	8.786497e-01	0.0	9.467387e-01	7.839056e-01	0.0	-1.882464e-01	2.226866e+00	0.0	7.925164e-01	7.059722e-01	0.0	5.049377e-01	1.509417e+00	0.0	4.124634e-01	1.051909e+00	0.0	4.728651e-01	1.017614e+00	0.0	4.416843e-01	1.099367e+00	0.0	5.080969e-01	1.083394e+00	0.0	5.845820e-02	2.397990e+00	0.0	-7.753630e-01	1.215788e+00	0.0	-1.094361e+00	1.291381e+00	0.0	-4.729482e-01	1.143329e+00	0.0	-7.972512e-01	9.353475e-01	0.0	-5.130103e-01	9.138024e-01	0.0	-1.140254e+00	1.589397e+00	0.0	8.906626e-01	6.124375e-01	0.0	1.056989e+00	6.829450e-01	0.0	7.301605e-01	5.528829e-01	0.0	8.165875e-05	1.436092e+00	0.0	1.561176e+00	2.308889e+00	0.0	3.643254e-01	1.113475e+00	0.0	4.035653e-01	1.176663e+00	0.0	5.292707e-01	9.921926e-01	0.0	5.806423e-01	1.064983e+00	0.0	5.467105e-01	1.158215e+00	0.0	5.980972e-01	9.617488e-01	0.0	9.960428e-01	5.108430e-01	0.0	1.198359e+00	5.997933e-01	0.0	3.046908e-01	1.190950e+00	0.0	-2.749627e-01	1.031099e+00	0.0	-3.057067e-01	8.519591e-01	0.0	-5.049190e-01	7.129978e-01	0.0	-3.025618e-01	6.784288e-01	0.0	-1.437848e+00	1.376974e+00	0.0	6.428267e-01	1.149751e+00	0.0	-2.856277e-01	2.545776e+00	0.0	-1.611227e-02	2.757855e+00	0.0	6.430659e-01	6.306705e-01	0.0	5.780536e-01	4.927069e-01	0.0	3.557799e-01	1.272222e+00	0.0	6.647039e-01	4.157408e-01	0.0	5.125932e-01	3.655804e-01	0.0	1.255840e+00	2.457538e+00	0.0	-1.494213e+00	1.710569e+00	0.0	1.496889e+00	2.701566e+00	0.0	5.950071e-01	2.903968e-01	0.0	1.116790e+00	3.505941e-01	0.0	-1.378153e+00	1.081712e+00	0.0	-4.843352e-01	5.331031e-01	0.0	-6.513119e-01	5.628717e-01	0.0	-3.347548e-01	4.928085e-01	0.0	-9.037816e-02	9.735023e-01	0.0	-8.865607e-02	1.123134e+00	0.0	-1.904444e+00	1.477502e+00	0.0	4.986226e-01	5.688899e-01	0.0	5.740726e-01	7.041287e-01	0.0	7.591286e-01	3.351318e-01	0.0	-1.907692e-01	5.882750e-01	0.0	9.295894e-01	1.924538e+00	0.0	1.341380e+00	5.134125e-01	0.0	1.402402e+00	7.226114e-01	0.0	1.567645e+00	5.867532e-01	0.0	1.642985e+00	8.574599e-01	0.0	1.875032e+00	7.279178e-01	0.0	5.873729e-01	1.257784e+00	0.0	6.995548e-01	1.246097e+00	0.0	-4.711086e-01	3.625078e-01	0.0	-2.402498e-01	1.367874e+00	0.0	-5.527215e-01	2.342246e+00	0.0	-6.752699e-01	2.693121e+00	0.0	-9.712076e-01	2.478846e+00	0.0	-1.089710e+00	2.833915e+00	0.0	-1.469652e+00	2.514684e+00	0.0	-2.053546e-01	4.361075e-01	0.0	2.333488e-01	1.283754e+00	0.0	2.802085e-01	1.386197e+00	0.0	1.882976e-01	1.192966e+00	0.0	3.701815e-01	2.562570e+00	0.0	3.017749e-01	3.024746e+00	0.0	6.691478e-01	2.764662e+00	0.0	-1.183822e+00	1.920573e+00	0.0	7.620643e-01	9.663070e-01	0.0	-1.522289e-01	3.173546e+00	0.0	-1.447786e-01	8.143765e-01	0.0	4.475987e-01	2.499618e-01	0.0	3.519331e-01	3.175691e-01	0.0	3.141015e-01	2.204279e-01	0.0	2.598142e-01	1.121979e+00	0.0	1.520033e-01	1.101344e+00	0.0	1.836584e+00	2.553692e+00	0.0	1.562097e+00	1.264537e+00	0.0	2.531758e+00	2.481192e+00	0.0	1.092414e+00	2.883811e+00	0.0	-1.557570e+00	2.074174e+00	0.0	4.184361e-01	4.359561e-01	0.0	2.966517e-01	3.951229e-01	0.0	1.240252e+00	1.699430e-01	0.0	-2.901429e-03	8.856310e-01	0.0	-1.057642e-01	5.182306e-01	0.0	4.736588e-01	3.520764e+00	0.0	-3.282067e-01	3.388152e-01	0.0	-2.155957e-01	3.036566e-01	0.0	7.093476e-01	8.059447e-01	0.0	2.213160e+00	9.977091e-01	0.0	-1.581284e+00	3.045649e+00	0.0	-1.939836e+00	2.698621e+00	0.0	6.356606e-01	1.375440e+00	0.0	-2.449270e+00	1.340931e+00	0.0	8.530403e-01	1.298323e+00	0.0	-1.175955e+00	2.578391e-01	0.0	-1.265011e+00	5.372200e-01	0.0	-1.554299e+00	5.866656e-01	0.0	-9.911062e-01	5.129154e-01	0.0	-1.072167e+00	7.752893e-01	0.0	1.769804e+00	3.014116e+00	0.0	2.272849e-01	1.618884e+00	0.0	6.119342e-01	8.399592e-01	0.0	9.997710e-02	1.287956e+00	0.0	3.743344e-02	9.746791e-01	0.0	4.948481e-01	7.698189e-01	0.0	-2.377048e-02	7.590722e-01	0.0	-5.448458e-01	1.996333e-01	0.0	5.883861e-01	9.800038e-02	0.0	1.001617e+00	1.580354e-01	0.0	-9.352295e-01	2.293994e-01	0.0	1.860959e+00	2.371263e-01	0.0	3.043688e-01	7.620541e-02	0.0	-2.757922e-01	1.087539e-01	0.0	-1.424585e+00	3.540302e+00	0.0	4.175092e-01	1.373980e+00	0.0	2.566597e+00	3.092781e+00	0.0	3.866155e-01	5.144471e-01	0.0	-1.816188e+00	3.292104e-01	0.0	-1.932070e+00	7.400266e-01	0.0	1.483054e+00	9.875546e-01	0.0	4.111233e-01	6.151683e-01	0.0	5.299630e-01	8.867219e-01	0.0	1.032058e+00	2.209707e+00	0.0	-2.489573e+00	2.548556e+00	0.0	1.530467e+00	3.499430e+00	0.0	-7.146294e-02	6.454802e-01	0.0	4.767191e-01	9.319399e-01	0.0	-2.419863e+00	3.087353e+00	0.0	1.502715e-01	8.550616e-01	0.0	8.888247e-01	2.536385e-01	0.0	7.087517e-01	2.407273e+00	0.0	-7.856894e-01	3.857820e-01	0.0	6.934031e-02	7.006797e-01	0.0	3.953421e-01	7.611541e-01	0.0	-2.095497e+00	1.107625e+00	0.0	3.084938e-01	6.132875e-01	0.0	-5.808060e-03	5.495728e-01	0.0	2.368630e-01	4.616671e-01	0.0	1.249140e+00	8.344614e-01	0.0	2.058845e-01	3.874202e-01	0.0	-7.712910e-02	2.920703e-01	0.0	1.579547e-01	2.476210e-01	0.0	2.449920e-01	2.716263e-01	0.0	-3.645266e-02	4.598700e-01	0.0	2.397422e-01	1.418052e-01	0.0	-1.940488e-01	1.932427e-01	0.0	-7.084983e-01	7.292733e-01	0.0	5.678684e-02	1.179225e+00	0.0	2.180742e+00	6.679859e-01	0.0	7.717801e-01	1.127485e+00	0.0	1.916062e+00	1.057780e+00	0.0	3.609967e-01	1.067090e+00	0.0	8.269433e-01	4.685067e-01	0.0	-6.128667e-01	3.761902e-01	0.0	4.370564e-01	7.091889e-01	0.0	2.290391e-01	1.052444e+00	0.0	1.257714e-01	1.058699e-01	0.0	-1.075410e-01	1.270117e-01	0.0	-1.836575e+00	1.846976e+00	0.0	-1.990773e+00	2.223012e+00	0.0	-2.364215e-01	1.197332e+00	0.0	-7.680398e-01	3.086037e+00	0.0	4.603935e-01	1.248524e+00	0.0	1.341219e+00	1.137003e+00	0.0	-4.005979e-01	2.923445e+00	0.0	1.081635e+00	8.567465e-01	0.0	9.555827e-01	2.544207e+00	0.0	7.206067e-01	3.128115e+00	0.0	-1.080644e+00	1.016535e+00	0.0	2.170920e+00	2.827623e+00	0.0	1.398513e+00	3.109995e+00	0.0	-1.199887e-01	4
[...]
POINT_DATA 394

SCALARS Density float 1
LOOKUP_TABLE default
1.223719e+00	1.223914e+00	1.221714e+00	1.222029e+00	1.223481e+00	1.223664e+00	1.223274e+00	1.223595e+00	1.223579e+00	1.223591e+00	1.223632e+00	1.223657e+00	1.223723e+00	1.223728e+00	1.223735e+00	1.223720e+00	1.223749e+00	1.223765e+00	1.223804e+00	1.223827e+00	1.223844e+00	1.223906e+00	1.223872e+00	1.223973e+00	1.223860e+00	1.224008e+00	1.223862e+00	1.223871e+00	1.223855e+00	1.223813e+00	1.223781e+00	1.223723e+00	1.223710e+00	1.223616e+00	1.223697e+00	1.222939e+00	1.224743e+00	1.219977e+00	1.223847e+00	1.223375e+00	1.223440e+00	1.223426e+00	1.223388e+00	1.223369e+00	1.223368e+00	1.223368e+00	1.223386e+00	1.223412e+00	1.223346e+00	1.223538e+00	1.223354e+00	1.223448e+00	1.223386e+00	1.223331e+00	1.223288e+00	1.223257e+00	1.223172e+00	1.223172e+00	1.223172e+00	1.223299e+00	1.222828e+00	1.223399e+00	1.223121e+00	1.222932e+00	1.222843e+00	1.222950e+00	1.223085e+00	1.223111e+00	1.223251e+00	1.223291e+00	1.223374e+00	1.223422e+00	1.223496e+00	1.223546e+00	1.223579e+00	1.223582e+00	1.222994e+00	1.223756e+00	1.223756e+00	1.223118e+00	1.223413e+00	1.223693e+00	1.223823e+00	1.223230e+00	1.223627e+00	1.223315e+00	1.223517e+00	1.223307e+00	1.223387e+00	1.223822e+00	1.223889e+00	1.223338e+00	1.223521e+00	1.223505e+00	1.223461e+00	1.223883e+00	1.223050e+00	1.223716e+00	1.223600e+00	1.223122e+00	1.223932e+00	1.223426e+00	1.223225e+00	1.223707e+00	1.223008e+00	1.222918e+00	1.223113e+00	1.223119e+00	1.223063e+00	1.223040e+00	1.223032e+00	1.223286e+00	1.222866e+00	1.222915e+00	1.223000e+00	1.223114e+00	1.222881e+00	1.223160e+00	1.223148e+00	1.223251e+00	1.223176e+00	1.223231e+00	1.223439e+00	1.223324e+00	1.222989e+00	1.223036e+00	1.223254e+00	1.222877e+00	1.223049e+00	1.223407e+00	1.223499e+00	1.223505e+00	1.223442e+00	1.223580e+00	1.223645e+00	1.223544e+00	1.223621e+00	1.223624e+00	1.223163e+00	1.223117e+00	1.223213e+00	1.223511e+00	1.223246e+00	1.223195e+00	1.221435e+00	1.221784e+00	1.222839e+00	1.222857e+00	1.223417e+00	1.223689e+00	1.223680e+00	1.223726e+00	1.223737e+00	1.223746e+00	1.223644e+00	1.223154e+00	1.222983e+00	1.223263e+00	1.223510e+00	1.223195e+00	1.221769e+00	1.223177e+00	1.222768e+00	1.222834e+00	1.222619e+00	1.223085e+00	1.223184e+00	1.223097e+00	1.223155e+00	1.223689e+00	1.223730e+00	1.223764e+00	1.223736e+00	1.223671e+00	1.222721e+00	1.223474e+00	1.223464e+00	1.223381e+00	1.223315e+00	1.223077e+00	1.223277e+00	1.223338e+00	1.223286e+00	1.223642e+00	1.223163e+00	1.223336e+00	1.223080e+00	1.223715e+00	1.223801e+00	1.223826e+00	1.223894e+00	1.223621e+00	1.223565e+00	1.223682e+00	1.223361e+00	1.223436e+00	1.223227e+00	1.223790e+00	1.223355e+00	1.222960e+00	1.223129e+00	1.222909e+00	1.222880e+00	1.223019e+00	1.222879e+00	1.222875e+00	1.223864e+00	1.223520e+00	1.223532e+00	1.223515e+00	1.223573e+00	1.223560e+00	1.223613e+00	1.223817e+00	1.223132e+00	1.223475e+00	1.223435e+00	1.223347e+00	1.223376e+00	1.223392e+00	1.223616e+00	1.222979e+00	1.223415e+00	1.223760e+00	1.223326e+00	1.223344e+00	1.223386e+00	1.223612e+00	1.223098e+00	1.223105e+00	1.222868e+00	1.223291e+00	1.223309e+00	1.223635e+00	1.223408e+00	1.223294e+00	1.222982e+00	1.223585e+00	1.223902e+00	1.223412e+00	1.223859e+00	1.223889e+00	1.223162e+00	1.222867e+00	1.223554e+00	1.223593e+00	1.222678e+00	1.223664e+00	1.222950e+00	1.223790e+00	1.223812e+00	1.223689e+00	1.223784e+00	1.223714e+00	1.223272e+00	1.223457e+00	1.223221e+00	1.223402e+00	1.223653e+00	1.223461e+00	1.223758e+00	1.223918e+00	1.223308e+00	1.223203e+00	1.223822e+00	1.222963e+00	1.223457e+00	1.223945e+00	1.223557e+00	1.223068e+00	1.223168e+00	1.223436e+00	1.223757e+00	1.223707e+00	1.223005e+00	1.223379e+00	1.223077e+00	1.223218e+00	1.223629e+00	1.223246e+00	1.223712e+00	1.223172e+00	1.223615e+00	1.223956e+00	1.223198e+00	1.223351e+00	1.223790e+00	1.223752e+00	1.223418e+00	1.223680e+00	1.223457e+00	1.223738e+00	1.223394e+00	1.223029e+00	1.223403e+00	1.223869e+00	1.223399e+00	1.223336e+00	1.223761e+00	1.223315e+00	1.223920e+00	1.223746e+00	1.223552e+00	1.222899e+00	1.222999e+00	1.223262e+00	1.225285e+00	1.223242e+00	1.223868e+00	1.223339e+00	1.223401e+00	1.223378e+00	1.223896e+00	1.223630e+00	1.223636e+00	1.223614e+00	1.223514e+00	1.222757e+00	1.223068e+00	1.223476e+00	1.222975e+00	1.223243e+00	1.223304e+00	1.223749e+00	1.223302e+00	1.223248e+00	1.223861e+00	1.223556e+00	1.223513e+00	1.223091e+00	1.223556e+00	1.222943e+00	1.223166e+00	1.223843e+00	1.223284e+00	1.223364e+00	1.223337e+00	1.223361e+00	1.223724e+00	1.223239e+00	1.223272e+00	1.223622e+00	1.223036e+00	1.223723e+00	1.223259e+00	1.222399e+00	1.223744e+00	1.223687e+00	1.223201e+00	1.223382e+00	1.222493e+00	1.223595e+00	1.223140e+00	1.223592e+00	1.223784e+00	1.225329e+00	1.223864e+00	1.223718e+00	1.223327e+00	1.223216e+00	1.223572e+00	1.223426e+00	1.223741e+00	1.223042e+00	1.223888e+00	1.223107e+00	1.223006e+00	1.223576e+00	1.223090e+00	1.223570e+00	1.223303e+00	1.223780e+00	1.223721e+00	1.223688e+00	1.223326e+00	1.223325e+00	1.223923e+00	1.223524e+00	1.223499e+00	1.223138e+00	1.223489e+00	1.222779e+00	1.223392e+00	1.223157e+00	1.223345e+00	1.223470e+00	1.223731e+00	1.222969e+00	1.223440e+00	1.222760e+00	1.223294e+00	1.222946e+00	1.223600e+00	1.222877e+00	
SCALARS X-Momentum float 1
LOOKUP_TABLE default
8.636660e+00	3.876121e-01	6.647679e+00	2.872291e-01	-5.573157e-01	-4.322485e+00	1.623954e+01	1.020557e+01	1.007574e+01	9.875363e+00	9.628461e+00	9.343053e+00	9.073643e+00	8.813394e+00	8.486347e+00	8.188104e+00	7.740336e+00	7.162903e+00	6.507055e+00	5.755346e+00	4.904699e+00	4.072840e+00	3.104640e+00	2.144406e+00	1.189839e+00	6.776220e-02	3.986859e-01	8.716357e-01	1.415436e+00	2.019920e+00	2.634227e+00	3.232044e+00	3.821504e+00	4.380343e+00	4.778421e+00	4.788210e+00	4.506704e+00	4.138051e+00	1.252515e+00	1.401425e+00	1.790947e+00	1.988927e+00	2.067824e+00	2.035487e+00	1.858013e+00	1.564657e+00	1.220835e+00	8.375861e-01	4.944554e-01	2.304603e-01	-1.815228e+00	-3.307970e+00	-4.587166e+00	-5.743050e+00	-6.685921e+00	-7.392073e+00	-7.881216e+00	-8.110747e+00	-7.650795e+00	-6.791223e+00	-5.894435e+00	-5.747112e-01	4.784015e+00	1.005005e+01	1.389422e+01	1.583903e+01	1.637059e+01	1.555387e+01	1.466318e+01	1.367851e+01	1.284804e+01	1.215255e+01	1.155200e+01	1.103287e+01	1.061208e+01	1.033400e+01	5.091540e+00	2.155043e+00	7.634829e+00	-5.455685e+00	1.990086e+00	4.150380e+00	5.596181e+00	-5.217526e+00	9.564667e+00	1.223133e+01	1.118675e+01	1.370910e+01	9.482626e-01	2.440331e+00	3.703182e+00	-3.866716e+00	2.250223e+00	5.056075e+00	-2.461082e-02	1.454019e+00	1.189906e+00	8.821820e+00	1.032697e+01	1.541862e+01	1.684173e+00	-1.771594e+00	-2.885541e+00	8.504921e+00	7.249968e+00	1.060185e+01	1.371845e+01	1.253131e+01	8.673759e+00	1.128318e+01	1.396446e+01	1.301607e+01	9.975864e+00	1.174965e+01	8.449367e+00	1.006112e+01	1.319865e+01	1.226826e+01	1.405104e+01	1.368904e+01	1.411692e+01	1.370160e+01	1.340622e+01	1.266396e+01	6.677905e+00	1.471518e+01	1.389477e+01	5.080403e+00	4.155048e+00	1.238375e+01	1.154500e+01	1.146046e+01	1.066362e+01	1.023403e+01	9.935802e+00	1.029826e+01	9.330660e+00	9.317804e+00	4.964843e+00	3.120647e+00	2.346789e+00	1.153488e+01	1.964568e+00	1.329390e+01	5.553952e+00	2.498507e+00	6.439946e+00	4.590476e+00	1.222787e+01	8.673453e+00	8.867694e+00	8.461659e+00	7.830527e+00	7.457229e+00	9.375052e+00	8.443437e-01	1.184797e+00	8.408192e-01	1.072858e+01	1.512047e+01	9.304753e+00	1.012249e+01	2.321589e+00	4.102167e+00	7.187804e+00	2.811065e+00	-7.029345e-01	-2.164855e-01	1.115310e+01	7.920352e+00	6.903616e+00	6.543715e+00	5.805759e+00	9.032770e+00	6.320976e+00	1.151137e+01	1.208972e+01	1.928836e+00	8.985688e-01	1.203642e+01	-4.234919e-01	-2.694907e-01	1.498040e+01	9.444713e+00	1.508313e+01	-1.712621e+00	-2.875128e+00	8.570344e+00	5.675134e+00	6.299413e+00	4.872638e+00	7.266987e+00	8.430971e+00	9.164417e+00	1.920875e+00	2.586271e+00	-1.902731e+00	4.820931e+00	1.446754e+01	-1.453306e+00	1.038268e+00	-7.494516e-01	2.440711e+00	8.068132e-01	9.721039e+00	8.868855e+00	4.880626e+00	9.531223e+00	1.092135e+01	1.102546e+01	1.052678e+01	1.065099e+01	1.016368e+01	3.861127e+00	1.164586e+01	1.248541e+01	1.035867e+01	1.296008e+01	1.265787e+01	1.360041e+01	9.809129e+00	3.641600e+00	1.191870e+01	6.259694e+00	-1.380777e+00	1.788133e-02	-8.944615e-01	9.849984e+00	8.602088e+00	1.532371e+01	7.756213e+00	1.506205e+01	1.430400e+01	9.792424e+00	1.003994e+00	1.078243e+00	-5.642858e+00	6.345896e+00	3.974420e+00	1.279246e+01	4.040369e+00	3.072003e+00	2.708938e+00	3.669574e+00	1.038045e+01	1.004037e+01	1.162680e+01	9.121575e+00	9.295001e+00	7.072752e+00	7.599340e+00	8.063972e+00	7.040410e+00	7.703316e+00	1.514887e+01	1.257731e+01	2.789381e+00	1.064751e+01	6.912490e+00	2.660411e+00	5.455318e+00	4.723032e+00	-4.668216e+00	-5.438862e+00	6.398601e+00	-4.591411e+00	-2.878944e+00	2.668419e+00	1.069771e+01	1.282855e+01	1.598406e+01	1.784474e+00	8.134065e+00	8.527745e+00	4.281104e+00	2.247651e+00	2.478051e+00	1.474115e+01	9.804541e+00	1.453177e+01	4.703777e+00	1.577007e+00	1.005668e+01	5.346420e+00	-3.503368e+00	1.397519e+01	6.273967e+00	4.639341e+00	2.194863e+00	8.881263e+00	2.154714e+00	3.683796e+00	1.706610e+00	2.723645e+00	1.357260e+00	1.885729e+00	4.960652e-01	1.579730e-01	3.060804e+00	-1.258492e+00	2.208149e+00	7.015908e+00	9.314178e+00	1.387762e-01	6.061210e+00	4.741245e+00	8.182494e+00	-5.494676e-01	5.566073e+00	2.514977e+00	7.770885e+00	-4.822154e-01	1.063485e+00	9.510430e+00	9.739168e+00	8.775518e+00	1.110524e+01	1.075398e+01	6.349990e+00	1.149872e+01	2.968355e+00	1.446223e+01	1.337002e+01	8.285339e+00	1.556197e+01	1.458817e+01	3.296857e+00	1.082578e+01	1.174114e+01	1.464555e+01	1.031674e+01	3.946921e+00	1.404972e+01	3.285874e+00	-2.910081e+00	1.445611e+01	-2.245810e+00	1.306080e+01	8.761675e+00	-3.344736e+00	1.303974e+01	9.826714e+00	3.002618e+00	8.095566e+00	-2.635496e+00	-2.933822e+00	8.670853e+00	6.034068e+00	6.583109e+00	1.162638e+01	8.129132e+00	9.540466e+00	1.097411e+01	1.012249e+01	4.184663e+00	5.814799e+00	2.826936e+00	8.409173e+00	-3.022551e-01	1.229182e+01	1.017845e+01	1.221602e+01	5.469803e+00	1.598397e+01	2.297757e+00	-3.385805e+00	-1.818749e+00	1.018381e+01	-1.960850e+00	1.078042e+01	1.204692e+01	6.769845e+00	7.937979e+00	9.398688e+00	7.385134e-01	1.613855e+00	7.873040e-01	-7.828667e-01	1.336150e+01	1.436546e+01	5.654133e+00	1.265835e+01	9.032267e+00	1.518579e+01	2.022491e+00	1.147883e+01	7.270544e+00	7.309820e+00	2.499949e+00	5.439274e+00	1.345783e+01	8.842496e+00	4.801619e+00	7.320249e+00	
SCALARS Y-Momentum float 1
LOOKUP_TABLE default
-1.890358e-02	3.825635e-01	5.298271e+00	-7.246949e-01	5.287158e-01	2.278432e-01	6.661935e-02	-1.239195e-02	1.457882e-02	4.115853e-02	5.807668e-02	7.669030e-02	6.530874e-02	1.318775e-02	-3.429730e-03	1.995863e-05	6.748365e-03	5.409770e-03	1.112230e-02	1.308807e-02	-2.963868e-03	2.070707e-02	7.359986e-03	7.704269e-03	-3.047551e-02	1.235353e+00	2.216854e+00	3.161005e+00	4.130054e+00	5.035697e+00	5.843474e+00	6.560009e+00	7.218830e+00	7.883565e+00	8.331880e+00	8.365666e+00	8.392801e+00	-2.275191e+00	1.211960e+00	2.000619e+00	2.731685e+00	3.280962e+00	3.621091e+00	3.799117e+00	3.793552e+00	3.607933e+00	3.281514e+00	2.810449e+00	2.225592e+00	1.441647e+00	-8.066073e-04	3.388604e-02	2.640892e-02	9.956454e-03	4.369643e-03	9.320169e-03	1.194309e-02	2.539486e-03	-4.390900e-02	-6.763436e-02	-1.004806e-01	-4.941604e-01	-4.433476e-01	3.765890e-02	6.966985e-01	8.838566e-01	5.122230e-01	1.120109e-02	1.409111e-03	-5.429871e-03	-3.707824e-02	-2.467775e-02	-4.232088e-03	-5.569615e-03	1.928973e-03	-3.075462e-03	8.658215e+00	2.435002e+00	4.922759e-01	-2.119089e-01	3.460805e+00	6.340579e+00	8.557571e-01	4.675988e-01	3.802372e-01	3.915961e-01	4.417986e-01	8.637234e-01	3.106989e+00	4.164919e+00	9.506603e-01	6.678698e-01	3.084840e+00	7.526590e+00	2.218793e+00	2.483978e+00	-7.894924e-01	3.241524e-01	2.493272e-01	8.455041e-01	8.255320e-01	8.487375e-01	-5.982044e-01	2.474051e-01	-3.993322e-01	1.550235e-01	9.630364e-01	9.483928e-01	1.775027e-01	9.814792e-01	1.757225e+00	1.833382e+00	1.174402e+00	1.967811e+00	1.506610e+00	2.171328e+00	2.890400e+00	3.189378e+00	3.839835e+00	4.329787e+00	4.400192e+00	5.061979e+00	4.299958e+00	4.922365e+00	1.777576e+00	2.438065e+00	3.730096e+00	1.478046e+00	2.048309e+00	3.624084e+00	3.719279e+00	5.048167e+00	3.533061e+00	4.317176e+00	3.104111e+00	2.652812e+00	3.578709e+00	2.545879e+00	2.259651e+00	2.739153e+00	2.293147e+00	2.732345e+00	2.851256e+00	4.972038e+00	3.109017e-01	5.581183e-01	1.477432e+00	1.349230e+00	2.605186e+00	2.722387e+00	2.003391e+00	3.806989e+00	2.557365e+00	3.518050e+00	1.866858e+00	2.174929e+00	1.696857e+00	2.506667e+00	6.130097e+00	2.078063e+00	5.110695e+00	4.453737e+00	2.104076e+00	2.222626e+00	2.259017e+00	3.051732e+00	1.434943e+00	9.023339e-01	7.599188e+00	4.902020e+00	4.514973e+00	3.263739e+00	4.097476e+00	1.453109e+00	2.285681e+00	1.937141e+00	1.733779e+00	3.124459e+00	2.689494e+00	6.617203e+00	2.067024e+00	2.255504e+00	2.405333e+00	1.343247e+00	1.915185e+00	1.587949e+00	6.145455e-01	1.457784e+00	2.835534e+00	2.326602e+00	3.254277e+00	6.310497e+00	6.544280e+00	9.383950e-01	3.163441e+00	3.470091e+00	1.426430e+00	4.376619e+00	3.383507e+00	2.927631e-01	3.590109e-01	-7.443949e-02	-1.187514e-01	-6.084533e-01	2.930655e+00	2.502788e+00	2.167394e+00	4.890094e+00	2.006301e+00	1.425257e+00	1.459214e+00	1.017901e+00	1.014492e+00	3.542356e+00	8.123671e+00	7.184276e+00	9.040220e+00	2.434288e+00	1.377474e+00	2.105219e+00	1.666008e+00	2.868165e+00	9.973454e-01	5.493916e+00	1.800829e+00	2.526535e+00	2.041539e+00	8.990354e+00	9.542497e+00	1.742664e+00	5.277398e-01	1.103105e+00	1.848160e+00	1.179764e+00	2.885913e+00	3.077261e+00	9.677314e-02	6.941893e+00	4.683019e+00	6.591349e-01	2.469436e+00	2.641848e+00	3.383905e+00	-8.094961e-01	6.192330e-01	5.918415e-01	3.545371e+00	4.524866e-01	2.284821e+00	6.097911e-01	1.072474e+00	8.329496e-01	1.379813e+00	1.698489e+00	1.464714e+00	5.924706e+00	3.586059e+00	7.896596e+00	7.950888e+00	3.200434e+00	6.360954e+00	1.069257e+00	5.512839e-01	3.363524e-01	7.348500e-01	-3.973831e-01	8.172591e-01	9.343791e-01	3.297911e-01	5.821165e+00	1.045226e+00	3.205566e+00	3.839388e-01	6.455568e-01	4.644422e-01	3.229718e+00	3.058881e+00	3.001523e+00	3.527272e-01	8.036610e-01	5.520892e+00	1.907772e+00	2.624810e-01	8.278590e+00	8.750459e-01	2.985729e+00	1.511297e+00	6.926751e+00	2.709763e+00	6.843330e-01	3.320670e+00	5.655445e+00	3.464718e+00	1.120634e+00	3.347685e+00	3.355516e+00	2.742039e+00	2.622749e+00	4.905164e+00	1.639377e+00	1.872414e+00	2.569388e+00	8.197176e+00	-8.287108e-01	2.308412e+00	-4.323992e-01	2.994308e+00	1.817137e+00	1.803524e+00	3.122105e+00	9.938479e+00	1.587002e+00	1.563721e+00	9.636520e-01	7.380311e-01	5.155601e+00	9.211558e-01	4.049120e+00	1.012694e+00	1.278972e+00	1.776265e+00	2.554952e+00	1.359493e+00	1.935935e+00	1.446208e+00	1.432621e+00	4.098810e+00	2.681036e+00	4.443356e-01	1.595544e+00	1.988304e+00	2.716968e+00	2.651604e+00	1.787918e+00	1.144507e+00	3.547180e+00	1.376647e+00	3.351340e+00	1.030605e+00	9.959729e-01	6.295449e+00	2.276078e+00	3.382164e+00	1.323919e+00	-4.091378e-01	-4.618737e-01	1.099826e-01	8.313748e+00	9.425410e+00	7.490208e+00	2.376593e+00	6.511109e+00	2.935784e+00	1.432295e+00	1.686568e+00	9.838741e+00	3.418335e+00	1.023901e+00	2.271049e+00	4.294495e+00	1.045320e-01	6.331499e-01	5.092889e+00	5.006581e-01	2.756439e+00	2.076255e-02	-6.964422e-01	4.331005e-01	1.221901e+00	6.649011e-01	6.540508e+00	1.958056e+00	8.179084e+00	6.007675e-01	2.954238e+00	3.230881e+00	7.182732e-01	8.322045e-01	5.789705e+00	3.912161e+00	7.454546e+00	3.725517e+00	4.292874e+00	1.471156e+00	3.291703e+00	7.732648e-01	2.010420e+00	-4.166397e-01	3.302612e+00	3.737374e-02	3.143034e+00	7.369540e+00	6.199313e+00	1.995292e+00	
SCALARS Energy float 1
LOOKUP_TABLE default