# vtk DataFile Version 3.0
vtk output
ASCII
DATASET UNSTRUCTURED_GRID
POINTS 394 float
-3.000000e+00	0.000000e+00	0.0	-5.000000e-02	4.394686e-17	0.0	3.683417e-01	1.029585e+00	0.0	4.683943e-01	9.708565e-01	0.0	5.000000e-02	-5.412302e-18	0.0	3.000000e+00	0.000000e+00	0.0	3.000000e+00	4.000000e+00	0.0	-3.000000e+00	4.000000e+00	0.0	-3.000000e+00	3.428571e+00	0.0	-3.000000e+00	2.857143e+00	0.0	-3.000000e+00	2.285714e+00	0.0	-3.000000e+00	1.714286e+00	0.0	-3.000000e+00	1.142857e+00	0.0	-3.000000e+00	5.714286e-01	0.0	-2.473871e+00	0.000000e+00	0.0	-2.029066e+00	0.000000e+00	0.0	-1.653013e+00	0.000000e+00	0.0	-1.335087e+00	0.000000e+00	0.0	-1.066302e+00	0.000000e+00	0.0	-8.390627e-01	0.000000e+00	0.0	-6.469477e-01	0.000000e+00	0.0	-4.845277e-01	0.000000e+00	0.0	-3.472127e-01	0.000000e+00	0.0	-2.311224e-01	0.000000e+00	0.0	-1.329760e-01	0.000000e+00	0.0	-4.507021e-02	8.207326e-02	0.0	-3.318674e-02	1.636310e-01	0.0	-1.466638e-02	2.445645e-01	0.0	9.566990e-03	3.249485e-01	0.0	3.871487e-02	4.048366e-01	0.0	7.204098e-02	4.842658e-01	0.0	1.088514e-01	5.632614e-01	0.0	1.484814e-01	6.418417e-01	0.0	1.902939e-01	7.200320e-01	0.0	2.337033e-01	7.978573e-01	0.0	2.781492e-01	8.753614e-01	0.0	3.232095e-01	9.525521e-01	0.0	4.183674e-01	1.000267e+00	0.0	4.231502e-01	8.940004e-01	0.0	3.781439e-01	8.172844e-01	0.0	3.336839e-01	7.408597e-01	0.0	2.902791e-01	6.647664e-01	0.0	2.484690e-01	5.890432e-01	0.0	2.088432e-01	5.137230e-01	0.0	1.720365e-01	4.388329e-01	0.0	1.387147e-01	3.643926e-01	0.0	1.095704e-01	2.904253e-01	0.0	8.534036e-02	2.169649e-01	0.0	6.682770e-02	1.440558e-01	0.0	5.488027e-02	7.174446e-02	0.0	1.329760e-01	0.000000e+00	0.0	2.311224e-01	0.000000e+00	0.0	3.472127e-01	0.000000e+00	0.0	4.845277e-01	0.000000e+00	0.0	6.469477e-01	0.000000e+00	0.0	8.390627e-01	0.000000e+00	0.0	1.066302e+00	0.000000e+00	0.0	1.335087e+00	0.000000e+00	0.0	1.653013e+00	0.000000e+00	0.0	2.029066e+00	0.000000e+00	0.0	2.473871e+00	0.000000e+00	0.0	3.000000e+00	5.714286e-01	0.0	3.000000e+00	1.142857e+00	0.0	3.000000e+00	1.714286e+00	0.0	3.000000e+00	2.285714e+00	0.0	3.000000e+00	2.857143e+00	0.0	3.000000e+00	3.428571e+00	0.0	2.400000e+00	4.000000e+00	0.0	1.800000e+00	4.000000e+00	0.0	1.200000e+00	4.000000e+00	0.0	6.000000e-01	4.000000e+00	0.0	0.000000e+00	4.000000e+00	0.0	-6.000000e-01	4.000000e+00	0.0	-1.200000e+00	4.000000e+00	0.0	-1.800000e+00	4.000000e+00	0.0	-2.400000e+00	4.000000e+00	0.0	2.024073e-01	9.343033e-01	0.0	4.482232e-01	8.417104e-01	0.0	-1.463826e+00	2.869247e-01	0.0	1.536037e+00	1.884964e-01	0.0	2.730689e-01	5.345133e-01	0.0	4.013279e-02	6.223141e-01	0.0	-7.273435e-01	1.986655e-01	0.0	7.782965e-01	1.209918e-01	0.0	-2.543797e+00	2.103313e+00	0.0	2.600050e+00	1.907788e+00	0.0	-8.347344e-01	3.524108e+00	0.0	1.033487e+00	3.445766e+00	0.0	1.823726e-01	3.178159e-01	0.0	-5.516203e-02	3.759211e-01	0.0	-4.025067e-01	1.356074e-01	0.0	4.340069e-01	8.749330e-02	0.0	3.588653e-01	6.839709e-01	0.0	1.155521e-01	7.805523e-01	0.0	1.480728e-01	1.769324e-01	0.0	-9.751013e-02	2.141307e-01	0.0	2.565447e+00	7.623961e-01	0.0	-2.479961e+00	8.205016e-01	0.0	-2.016752e+00	3.471498e+00	0.0	2.125364e+00	3.418207e+00	0.0	-1.785605e-01	8.496060e-02	0.0	1.910439e-01	6.508312e-02	0.0	2.258829e+00	3.524248e-01	0.0	-2.238664e+00	3.798338e-01	0.0	2.553134e+00	1.349312e+00	0.0	2.225545e+00	1.640243e+00	0.0	2.210833e+00	2.064737e+00	0.0	1.908494e+00	1.792072e+00	0.0	1.879024e+00	1.378888e+00	0.0	1.635123e+00	1.581427e+00	0.0	1.612371e+00	1.939177e+00	0.0	1.394742e+00	1.724357e+00	0.0	1.395430e+00	1.416267e+00	0.0	1.198658e+00	1.541501e+00	0.0	1.196436e+00	1.285541e+00	0.0	1.017977e+00	1.369362e+00	0.0	9.998479e-01	1.642772e+00	0.0	8.447144e-01	1.501990e+00	0.0	8.056067e-01	1.746163e+00	0.0	6.567365e-01	1.634512e+00	0.0	6.039394e-01	1.854709e+00	0.0	4.618134e-01	1.739359e+00	0.0	3.841742e-01	1.964310e+00	0.0	2.304889e-01	1.805436e+00	0.0	1.038060e+00	1.150489e+00	0.0	1.341230e+00	2.072970e+00	0.0	5.853679e-01	2.122137e+00	0.0	1.160645e+00	1.032322e+00	0.0	9.994363e-01	9.599613e-01	0.0	1.241198e-01	2.087541e+00	0.0	-8.759567e-02	1.942528e+00	0.0	2.178092e-02	1.669225e+00	0.0	-3.195955e-01	1.800363e+00	0.0	-2.465849e-01	1.564621e+00	0.0	-5.508622e-01	1.646481e+00	0.0	-5.790564e-01	1.880786e+00	0.0	-4.945249e-01	1.407264e+00	0.0	-8.116628e-01	1.481262e+00	0.0	8.951887e-01	1.048339e+00	0.0	8.569588e-01	8.766531e-01	0.0	9.537151e-01	7.816415e-01	0.0	-1.807934e-01	2.228639e+00	0.0	7.992948e-01	7.038345e-01	0.0	5.156305e-01	1.509820e+00	0.0	4.234474e-01	1.052387e+00	0.0	4.838802e-01	1.017236e+00	0.0	4.527045e-01	1.099711e+00	0.0	5.190350e-01	1.083204e+00	0.0	6.614604e-02	2.399258e+00	0.0	-7.707578e-01	1.218809e+00	0.0	-1.090747e+00	1.294186e+00	0.0	-4.668697e-01	1.146681e+00	0.0	-7.942299e-01	9.383257e-01	0.0	-5.087671e-01	9.170452e-01	0.0	-1.136095e+00	1.592114e+00	0.0	8.962214e-01	6.101117e-01	0.0	1.062823e+00	6.804410e-01	0.0	7.353938e-01	5.507632e-01	0.0	9.684165e-03	1.438550e+00	0.0	1.567439e+00	2.307902e+00	0.0	3.752823e-01	1.114508e+00	0.0	4.145679e-01	1.177368e+00	0.0	5.398923e-01	9.914685e-01	0.0	5.913075e-01	1.064328e+00	0.0	5.576769e-01	1.158020e+00	0.0	6.081442e-01	9.606550e-01	0.0	1.000486e+00	5.083804e-01	0.0	1.203123e+00	5.973609e-01	0.0	3.153149e-01	1.192263e+00	0.0	-2.685503e-01	1.034284e+00	0.0	-3.008665e-01	8.550831e-01	0.0	-5.019231e-01	7.157054e-01	0.0	-2.990234e-01	6.811988e-01	0.0	-1.434948e+00	1.379545e+00	0.0	6.534345e-01	1.149079e+00	0.0	-2.793134e-01	2.547372e+00	0.0	-9.973589e-03	2.759153e+00	0.0	6.493110e-01	6.285846e-01	0.0	5.827520e-01	4.908435e-01	0.0	3.665854e-01	1.273267e+00	0.0	6.685201e-01	4.138977e-01	0.0	5.157985e-01	3.640362e-01	0.0	1.262719e+00	2.456970e+00	0.0	-1.490908e+00	1.712910e+00	0.0	1.502402e+00	2.700846e+00	0.0	5.974928e-01	2.889319e-01	0.0	1.119604e+00	3.485180e-01	0.0	-1.375858e+00	1.084211e+00	0.0	-4.823396e-01	5.352784e-01	0.0	-6.494241e-01	5.651124e-01	0.0	-3.326515e-01	4.948743e-01	0.0	-8.327681e-02	9.764521e-01	0.0	-8.060496e-02	1.126015e+00	0.0	-1.902360e+00	1.479461e+00	0.0	5.042795e-01	5.669838e-01	0.0	5.812945e-01	7.021735e-01	0.0	7.621460e-01	3.333716e-01	0.0	-1.874512e-01	5.905230e-01	0.0	9.387592e-01	1.924206e+00	0.0	1.345141e+00	5.112388e-01	0.0	1.407233e+00	7.200606e-01	0.0	1.571217e+00	5.844372e-01	0.0	1.647788e+00	8.550066e-01	0.0	1.878358e+00	7.257089e-01	0.0	5.981572e-01	1.257540e+00	0.0	7.100494e-01	1.245410e+00	0.0	-4.699919e-01	3.641215e-01	0.0	-2.324362e-01	1.371105e+00	0.0	-5.465852e-01	2.344244e+00	0.0	-6.703557e-01	2.694654e+00	0.0	-9.665672e-01	2.480699e+00	0.0	-1.085920e+00	2.835161e+00	0.0	-1.466216e+00	2.516436e+00	0.0	-2.033149e-01	4.378589e-01	0.0	2.436704e-01	1.285388e+00	0.0	2.906970e-01	1.387618e+00	0.0	1.982835e-01	1.194830e+00	0.0	3.779572e-01	2.563125e+00	0.0	3.071577e-01	3.025403e+00	0.0	6.759389e-01	2.764776e+00	0.0	-1.179495e+00	1.923012e+00	0.0	7.714054e-01	9.646253e-01	0.0	-1.481571e-01	3.174657e+00	0.0	-1.394440e-01	8.172113e-01	0.0	4.494950e-01	2.487942e-01	0.0	3.544034e-01	3.162108e-01	0.0	3.156470e-01	2.194362e-01	0.0	2.700856e-01	1.123521e+00	0.0	1.614051e-01	1.103338e+00	0.0	1.841469e+00	2.552733e+00	0.0	1.568584e+00	1.262085e+00	0.0	2.534359e+00	2.480651e+00	0.0	1.098270e+00	2.883513e+00	0.0	-1.554241e+00	2.076332e+00	0.0	4.224038e-01	4.342488e-01	0.0	2.998660e-01	3.939185e-01	0.0	1.241450e+00	1.689306e-01	0.0	3.937609e-03	8.880802e-01	0.0	-1.027679e-01	5.198959e-01	0.0	4.767547e-01	3.521212e+00	0.0	-3.270160e-01	3.402704e-01	0.0	-2.144082e-01	3.049025e-01	0.0	7.176433e-01	8.040806e-01	0.0	2.216539e+00	9.955768e-01	0.0	-1.578982e+00	3.046572e+00	0.0	-1.937755e+00	2.699617e+00	0.0	6.462975e-01	1.375159e+00	0.0	-2.448287e+00	1.342154e+00	0.0	8.629926e-01	1.297122e+00	0.0	-1.175521e+00	2.588492e-01	0.0	-1.263881e+00	5.390307e-01	0.0	-1.553294e+00	5.883694e-01	0.0	-9.898273e-01	5.150652e-01	0.0	-1.070244e+00	7.778350e-01	0.0	1.773885e+00	3.013533e+00	0.0	2.375645e-01	1.620292e+00	0.0	6.208285e-01	8.384600e-01	0.0	1.097445e-01	1.290147e+00	0.0	4.519984e-02	9.770869e-01	0.0	5.028366e-01	7.682620e-01	0.0	-1.831749e-02	7.612436e-01	0.0	-5.443981e-01	2.007700e-01	0.0	5.891296e-01	9.733553e-02	0.0	1.002885e+00	1.568645e-01	0.0	-9.348144e-01	2.304874e-01	0.0	1.862135e+00	2.360031e-01	0.0	3.048393e-01	7.582351e-02	0.0	-2.755231e-01	1.092817e-01	0.0	-1.423005e+00	3.540822e+00	0.0	4.283100e-01	1.374720e+00	0.0	2.568009e+00	3.092529e+00	0.0	3.913746e-01	5.129064e-01	0.0	-1.815856e+00	3.300811e-01	0.0	-1.931082e+00	7.416838e-01	0.0	1.488902e+00	9.850827e-01	0.0	4.170811e-01	6.137412e-01	0.0	5.396759e-01	8.855505e-01	0.0	1.040322e+00	2.209413e+00	0.0	-2.488564e+00	2.549254e+00	0.0	1.533239e+00	3.499194e+00	0.0	-6.717909e-02	6.474738e-01	0.0	4.871691e-01	9.310967e-01	0.0	-2.418864e+00	3.087717e+00	0.0	1.575921e-01	8.565048e-01	0.0	8.910448e-01	2.519924e-01	0.0	7.169397e-01	2.407463e+00	0.0	-7.846722e-01	3.875415e-01	0.0	7.469253e-02	7.020569e-01	0.0	4.029753e-01	7.601769e-01	0.0	-2.094188e+00	1.109322e+00	0.0	3.140618e-01	6.124481e-01	0.0	-2.120986e-03	5.508460e-01	0.0	2.406421e-01	4.608759e-01	0.0	1.255337e+00	8.317839e-01	0.0	2.088223e-01	3.866844e-01	0.0	-7.570608e-02	2.928299e-01	0.0	1.595404e-01	2.470516e-01	0.0	2.469216e-01	2.707173e-01	0.0	-3.365886e-02	4.609639e-01	0.0	2.406454e-01	1.411859e-01	0.0	-1.933750e-01	1.940432e-01	0.0	-7.061173e-01	7.319089e-01	0.0	6.594368e-02	1.181653e+00	0.0	2.183000e+00	6.660450e-01	0.0	7.817313e-01	1.126212e+00	0.0	1.920640e+00	1.055379e+00	0.0	3.718734e-01	1.068122e+00	0.0	8.311726e-01	4.663927e-01	0.0	-6.117714e-01	3.779210e-01	0.0	4.441825e-01	7.078454e-01	0.0	2.387082e-01	1.053953e+00	0.0	1.262276e-01	1.055740e-01	0.0	-1.071550e-01	1.274026e-01	0.0	-1.833974e+00	1.848929e+00	0.0	-1.988538e+00	2.224624e+00	0.0	-2.289826e-01	1.200432e+00	0.0	-7.643550e-01	3.087041e+00	0.0	4.714268e-01	1.248987e+00	0.0	1.348401e+00	1.134611e+00	0.0	-3.959205e-01	2.924699e+00	0.0	1.088663e+00	8.542491e-01	0.0	9.628904e-01	2.544038e+00	0.0	7.257354e-01	3.128298e+00	0.0	-1.077964e+00	1.019257e+00	0.0	2.174296e+00	2.826831e+00	0.0	1.402901e+00	3.109506e+00	0.0	-1.177010e-01	4.
[...]
POINT_DATA 394

SCALARS Density float 1
LOOKUP_TABLE default
1.223718e+00	1.223913e+00	1.221687e+00	1.222024e+00	1.223477e+00	1.223660e+00	1.223274e+00	1.223594e+00	1.223579e+00	1.223590e+00	1.223631e+00	1.223656e+00	1.223721e+00	1.223727e+00	1.223734e+00	1.223719e+00	1.223747e+00	1.223764e+00	1.223803e+00	1.223826e+00	1.223843e+00	1.223906e+00	1.223872e+00	1.223974e+00	1.223859e+00	1.224011e+00	1.223863e+00	1.223870e+00	1.223854e+00	1.223810e+00	1.223779e+00	1.223720e+00	1.223707e+00	1.223613e+00	1.223693e+00	1.222934e+00	1.224744e+00	1.219947e+00	1.223845e+00	1.223371e+00	1.223436e+00	1.223423e+00	1.223386e+00	1.223365e+00	1.223364e+00	1.223365e+00	1.223382e+00	1.223408e+00	1.223341e+00	1.223532e+00	1.223349e+00	1.223443e+00	1.223382e+00	1.223327e+00	1.223284e+00	1.223252e+00	1.223168e+00	1.223167e+00	1.223166e+00	1.223294e+00	1.222823e+00	1.223395e+00	1.223119e+00	1.222929e+00	1.222842e+00	1.222950e+00	1.223086e+00	1.223111e+00	1.223251e+00	1.223291e+00	1.223374e+00	1.223421e+00	1.223495e+00	1.223546e+00	1.223578e+00	1.223581e+00	1.222981e+00	1.223757e+00	1.223755e+00	1.223112e+00	1.223409e+00	1.223691e+00	1.223823e+00	1.223225e+00	1.223626e+00	1.223315e+00	1.223516e+00	1.223307e+00	1.223383e+00	1.223821e+00	1.223889e+00	1.223333e+00	1.223518e+00	1.223501e+00	1.223457e+00	1.223883e+00	1.223049e+00	1.223714e+00	1.223599e+00	1.223123e+00	1.223933e+00	1.223421e+00	1.223221e+00	1.223706e+00	1.223008e+00	1.222916e+00	1.223112e+00	1.223119e+00	1.223061e+00	1.223039e+00	1.223031e+00	1.223285e+00	1.222861e+00	1.222911e+00	1.222998e+00	1.223109e+00	1.222878e+00	1.223157e+00	1.223145e+00	1.223251e+00	1.223174e+00	1.223230e+00	1.223438e+00	1.223323e+00	1.222980e+00	1.223035e+00	1.223253e+00	1.222871e+00	1.223042e+00	1.223406e+00	1.223498e+00	1.223503e+00	1.223439e+00	1.223578e+00	1.223643e+00	1.223542e+00	1.223619e+00	1.223622e+00	1.223158e+00	1.223109e+00	1.223208e+00	1.223509e+00	1.223241e+00	1.223192e+00	1.221396e+00	1.221763e+00	1.222833e+00	1.222845e+00	1.223416e+00	1.223688e+00	1.223678e+00	1.223724e+00	1.223736e+00	1.223745e+00	1.223643e+00	1.223150e+00	1.222978e+00	1.223259e+00	1.223508e+00	1.223195e+00	1.221758e+00	1.223172e+00	1.222750e+00	1.222822e+00	1.222607e+00	1.223074e+00	1.223181e+00	1.223092e+00	1.223152e+00	1.223687e+00	1.223729e+00	1.223763e+00	1.223735e+00	1.223670e+00	1.222708e+00	1.223472e+00	1.223463e+00	1.223378e+00	1.223311e+00	1.223074e+00	1.223274e+00	1.223334e+00	1.223285e+00	1.223641e+00	1.223164e+00	1.223331e+00	1.223078e+00	1.223714e+00	1.223800e+00	1.223825e+00	1.223894e+00	1.223617e+00	1.223562e+00	1.223681e+00	1.223357e+00	1.223433e+00	1.223223e+00	1.223788e+00	1.223356e+00	1.222954e+00	1.223126e+00	1.222904e+00	1.222876e+00	1.223016e+00	1.222870e+00	1.222868e+00	1.223863e+00	1.223517e+00	1.223531e+00	1.223514e+00	1.223572e+00	1.223559e+00	1.223612e+00	1.223816e+00	1.223128e+00	1.223474e+00	1.223433e+00	1.223346e+00	1.223375e+00	1.223391e+00	1.223615e+00	1.222967e+00	1.223414e+00	1.223758e+00	1.223322e+00	1.223340e+00	1.223381e+00	1.223607e+00	1.223098e+00	1.223105e+00	1.222864e+00	1.223291e+00	1.223308e+00	1.223634e+00	1.223405e+00	1.223290e+00	1.222978e+00	1.223581e+00	1.223900e+00	1.223412e+00	1.223859e+00	1.223889e+00	1.223155e+00	1.222863e+00	1.223554e+00	1.223592e+00	1.222671e+00	1.223663e+00	1.222942e+00	1.223789e+00	1.223811e+00	1.223688e+00	1.223783e+00	1.223712e+00	1.223271e+00	1.223454e+00	1.223214e+00	1.223400e+00	1.223652e+00	1.223457e+00	1.223756e+00	1.223918e+00	1.223304e+00	1.223198e+00	1.223821e+00	1.222959e+00	1.223453e+00	1.223945e+00	1.223556e+00	1.223064e+00	1.223168e+00	1.223432e+00	1.223756e+00	1.223706e+00	1.223002e+00	1.223376e+00	1.223069e+00	1.223217e+00	1.223628e+00	1.223246e+00	1.223709e+00	1.223163e+00	1.223614e+00	1.223957e+00	1.223194e+00	1.223350e+00	1.223788e+00	1.223749e+00	1.223412e+00	1.223679e+00	1.223454e+00	1.223736e+00	1.223391e+00	1.223024e+00	1.223398e+00	1.223869e+00	1.223395e+00	1.223331e+00	1.223759e+00	1.223310e+00	1.223920e+00	1.223743e+00	1.223548e+00	1.222893e+00	1.222991e+00	1.223259e+00	1.225318e+00	1.223238e+00	1.223866e+00	1.223334e+00	1.223398e+00	1.223373e+00	1.223896e+00	1.223629e+00	1.223635e+00	1.223611e+00	1.223513e+00	1.222750e+00	1.223064e+00	1.223475e+00	1.222970e+00	1.223242e+00	1.223303e+00	1.223747e+00	1.223301e+00	1.223248e+00	1.223859e+00	1.223555e+00	1.223512e+00	1.223090e+00	1.223554e+00	1.222931e+00	1.223165e+00	1.223842e+00	1.223280e+00	1.223363e+00	1.223332e+00	1.223361e+00	1.223723e+00	1.223235e+00	1.223270e+00	1.223621e+00	1.223026e+00	1.223722e+00	1.223254e+00	1.222394e+00	1.223743e+00	1.223682e+00	1.223192e+00	1.223379e+00	1.222475e+00	1.223593e+00	1.223137e+00	1.223591e+00	1.223781e+00	1.225349e+00	1.223862e+00	1.223716e+00	1.223323e+00	1.223212e+00	1.223571e+00	1.223425e+00	1.223738e+00	1.223042e+00	1.223887e+00	1.223102e+00	1.223001e+00	1.223575e+00	1.223084e+00	1.223569e+00	1.223300e+00	1.223779e+00	1.223718e+00	1.223687e+00	1.223322e+00	1.223322e+00	1.223923e+00	1.223519e+00	1.223498e+00	1.223137e+00	1.223484e+00	1.222769e+00	1.223388e+00	1.223156e+00	1.223342e+00	1.223469e+00	1.223730e+00	1.222967e+00	1.223437e+00	1.222756e+00	1.223292e+00	1.222938e+00	1.223595e+00	1.222869e+00	
SCALARS X-Momentum float 1
LOOKUP_TABLE default
8.659339e+00	3.927282e-01	6.692195e+00	2.455179e-01	-5.567262e-01	-4.294770e+00	1.623108e+01	1.021839e+01	1.008936e+01	9.890074e+00	9.644407e+00	9.360481e+00	9.092873e+00	8.834700e+00	8.509825e+00	8.212793e+00	7.766870e+00	7.191122e+00	6.536717e+00	5.785895e+00	4.934988e+00	4.101595e+00	3.129240e+00	2.163244e+00	1.201873e+00	7.131658e-02	4.135859e-01	9.046493e-01	1.469278e+00	2.091033e+00	2.716699e+00	3.322953e+00	3.920465e+00	4.488065e+00	4.894275e+00	4.903875e+00	4.611239e+00	4.089142e+00	1.237242e+00	1.395968e+00	1.798575e+00	2.006939e+00	2.093782e+00	2.067658e+00	1.893760e+00	1.600691e+00	1.250991e+00	8.572159e-01	5.041412e-01	2.334866e-01	-1.816219e+00	-3.309329e+00	-4.586665e+00	-5.738684e+00	-6.676782e+00	-7.379817e+00	-7.866320e+00	-8.094645e+00	-7.635460e+00	-6.773216e+00	-5.871747e+00	-5.418415e-01	4.818117e+00	1.007717e+01	1.390907e+01	1.584203e+01	1.636585e+01	1.554506e+01	1.465633e+01	1.367440e+01	1.284672e+01	1.215420e+01	1.155708e+01	1.104100e+01	1.062249e+01	1.034599e+01	5.196959e+00	2.155194e+00	7.662503e+00	-5.440899e+00	2.019498e+00	4.238587e+00	5.630034e+00	-5.202475e+00	9.581356e+00	1.224627e+01	1.119601e+01	1.370950e+01	9.787463e-01	2.499519e+00	3.735098e+00	-3.857865e+00	2.267594e+00	5.157856e+00	-1.025857e-02	1.483583e+00	1.212562e+00	8.843149e+00	1.033973e+01	1.541435e+01	1.703834e+00	-1.767913e+00	-2.866938e+00	8.528171e+00	7.269579e+00	1.061246e+01	1.372603e+01	1.253810e+01	8.679542e+00	1.128707e+01	1.397090e+01	1.302270e+01	9.976686e+00	1.175570e+01	8.445281e+00	1.006390e+01	1.321582e+01	1.228969e+01	1.407794e+01	1.372413e+01	1.414682e+01	1.373907e+01	1.343370e+01	1.269718e+01	6.667839e+00	1.472452e+01	1.391565e+01	5.072046e+00	4.147348e+00	1.240624e+01	1.157043e+01	1.149696e+01	1.069137e+01	1.027031e+01	9.965172e+00	1.032229e+01	9.368367e+00	9.346595e+00	4.951772e+00	3.117330e+00	2.350920e+00	1.155355e+01	1.979512e+00	1.333920e+01	5.543304e+00	2.469983e+00	6.440463e+00	4.576218e+00	1.224367e+01	8.707179e+00	8.894738e+00	8.506916e+00	7.867790e+00	7.505545e+00	9.398623e+00	8.615891e-01	1.192740e+00	8.672009e-01	1.077689e+01	1.512604e+01	9.347915e+00	1.016713e+01	2.299318e+00	4.084480e+00	7.193197e+00	2.797855e+00	-6.862901e-01	-2.063702e-01	1.121802e+01	7.980011e+00	6.966075e+00	6.592478e+00	5.866966e+00	9.055873e+00	6.313395e+00	1.152578e+01	1.210121e+01	1.954724e+00	9.296864e-01	1.209700e+01	-3.949706e-01	-2.403542e-01	1.498761e+01	9.465153e+00	1.508615e+01	-1.688317e+00	-2.859151e+00	8.596156e+00	5.721231e+00	6.339780e+00	4.925031e+00	7.343795e+00	8.498085e+00	9.184827e+00	1.950246e+00	2.608410e+00	-1.878646e+00	4.887209e+00	1.448732e+01	-1.441272e+00	1.044592e+00	-7.389060e-01	2.447394e+00	8.184840e-01	9.743223e+00	8.876202e+00	4.922181e+00	9.576589e+00	1.093855e+01	1.103942e+01	1.054292e+01	1.066487e+01	1.017960e+01	3.917684e+00	1.171061e+01	1.254340e+01	1.043177e+01	1.297288e+01	1.266540e+01	1.360849e+01	9.829404e+00	3.629232e+00	1.192719e+01	6.336405e+00	-1.358168e+00	4.529857e-02	-8.749809e-01	9.924292e+00	8.684945e+00	1.532617e+01	7.756759e+00	1.506768e+01	1.430806e+01	9.810555e+00	1.035349e+00	1.110002e+00	-5.626962e+00	6.436452e+00	4.043952e+00	1.279532e+01	4.084338e+00	3.115881e+00	2.717708e+00	3.682774e+00	1.039409e+01	1.005544e+01	1.165873e+01	9.140994e+00	9.298880e+00	7.102784e+00	7.628786e+00	8.090494e+00	7.073559e+00	7.735212e+00	1.514841e+01	1.261946e+01	2.796891e+00	1.071033e+01	7.005377e+00	2.674267e+00	5.543401e+00	4.758078e+00	-4.655734e+00	-5.423506e+00	6.430944e+00	-4.576191e+00	-2.873070e+00	2.695394e+00	1.070891e+01	1.288421e+01	1.598197e+01	1.814917e+00	8.159403e+00	8.551406e+00	4.282370e+00	2.272747e+00	2.477107e+00	1.475464e+01	9.820099e+00	1.452915e+01	4.783030e+00	1.563762e+00	1.007087e+01	5.455176e+00	-3.484374e+00	1.398870e+01	6.309855e+00	4.734121e+00	2.202834e+00	8.902688e+00	2.178831e+00	3.764291e+00	1.739432e+00	2.723412e+00	1.390889e+00	1.930060e+00	5.192820e-01	1.828723e-01	3.131968e+00	-1.247115e+00	2.238825e+00	7.056369e+00	9.385158e+00	1.533931e-01	6.048876e+00	4.749199e+00	8.206255e+00	-5.253582e-01	5.604581e+00	2.532954e+00	7.856876e+00	-4.754141e-01	1.080695e+00	9.529030e+00	9.756013e+00	8.828891e+00	1.111687e+01	1.079526e+01	6.346403e+00	1.151009e+01	2.965921e+00	1.447109e+01	1.337428e+01	8.315393e+00	1.556204e+01	1.458872e+01	3.358451e+00	1.084729e+01	1.174767e+01	1.465067e+01	1.033659e+01	3.929699e+00	1.406279e+01	3.321346e+00	-2.892960e+00	1.447413e+01	-2.231739e+00	1.308012e+01	8.784721e+00	-3.325440e+00	1.309046e+01	9.850688e+00	2.996350e+00	8.123604e+00	-2.622234e+00	-2.908601e+00	8.693237e+00	6.137024e+00	6.677997e+00	1.168338e+01	8.148102e+00	9.597754e+00	1.099402e+01	1.014025e+01	4.222145e+00	5.913881e+00	2.878246e+00	8.434356e+00	-2.840082e-01	1.233777e+01	1.019161e+01	1.222134e+01	5.544351e+00	1.597738e+01	2.338100e+00	-3.371412e+00	-1.804175e+00	1.019779e+01	-1.940188e+00	1.079252e+01	1.209553e+01	6.806690e+00	8.019824e+00	9.416796e+00	7.687996e-01	1.645121e+00	7.976287e-01	-7.806802e-01	1.340481e+01	1.438880e+01	5.752482e+00	1.269128e+01	9.077970e+00	1.518945e+01	2.050857e+00	1.148815e+01	7.306170e+00	7.320561e+00	2.523398e+00	5.442650e+00	1.347391e+01	8.899863e+00	4.888539e+00	7.310942e+00	
SCALARS Y-Momentum float 1
LOOKUP_TABLE default
-1.878415e-02	3.874565e-01	5.240079e+00	-7.374097e-01	5.283584e-01	2.283112e-01	6.641643e-02	-1.235776e-02	1.446286e-02	4.097675e-02	5.776750e-02	7.625873e-02	6.489077e-02	1.302733e-02	-3.412018e-03	2.461059e-05	6.791599e-03	5.494066e-03	1.122366e-02	1.323274e-02	-2.601823e-03	2.153997e-02	7.940280e-03	7.793017e-03	-3.095531e-02	1.253525e+00	2.249124e+00	3.202270e+00	4.173739e+00	5.075699e+00	5.878449e+00	6.590282e+00	7.244130e+00	7.903137e+00	8.342845e+00	8.366496e+00	8.379652e+00	-2.329467e+00	1.180714e+00	1.960403e+00	2.687051e+00	3.237244e+00	3.581107e+00	3.764408e+00	3.763562e+00	3.582043e+00	3.259196e+00	2.792915e+00	2.214680e+00	1.437122e+00	-7.206708e-04	3.416631e-02	2.629408e-02	9.888592e-03	4.240739e-03	9.056521e-03	1.171008e-02	2.613405e-03	-4.355105e-02	-6.738168e-02	-1.006187e-01	-4.949698e-01	-4.419179e-01	4.273630e-02	7.026137e-01	8.877958e-01	5.134789e-01	1.105453e-02	1.230259e-03	-5.642859e-03	-3.715171e-02	-2.476606e-02	-4.343039e-03	-5.605122e-03	1.863729e-03	-3.113429e-03	8.656277e+00	2.397059e+00	4.921635e-01	-2.109959e-01	3.422715e+00	6.363345e+00	8.598961e-01	4.623617e-01	3.786276e-01	3.948311e-01	4.389304e-01	8.614801e-01	3.082059e+00	4.199893e+00	9.590935e-01	6.607592e-01	3.040834e+00	7.540471e+00	2.203713e+00	2.514689e+00	-7.913159e-01	3.229567e-01	2.478677e-01	8.450298e-01	8.353422e-01	8.440491e-01	-5.992771e-01	2.466417e-01	-3.990618e-01	1.536291e-01	9.632189e-01	9.426855e-01	1.702835e-01	9.681179e-01	1.747624e+00	1.815057e+00	1.153791e+00	1.940814e+00	1.479744e+00	2.134589e+00	2.861973e+00	3.152842e+00	3.817390e+00	4.304956e+00	4.385964e+00	5.048443e+00	4.289404e+00	4.911521e+00	1.747283e+00	2.426385e+00	3.719565e+00	1.459937e+00	2.029610e+00	3.613549e+00	3.707741e+00	5.036427e+00	3.521110e+00	4.305059e+00	3.093742e+00	2.642108e+00	3.569660e+00	2.538398e+00	2.230292e+00	2.721575e+00	2.281865e+00	2.721652e+00	2.835580e+00	4.948573e+00	2.670558e-01	5.236380e-01	1.427703e+00	1.302179e+00	2.595756e+00	2.717380e+00	1.998327e+00	3.801985e+00	2.555383e+00	3.517300e+00	1.860541e+00	2.163819e+00	1.690968e+00	2.487065e+00	6.117973e+00	2.072174e+00	5.075772e+00	4.418203e+00	2.072487e+00	2.180150e+00	2.207862e+00	3.024013e+00	1.428808e+00	9.005238e-01	7.580550e+00	4.898080e+00	4.516928e+00	3.268039e+00	4.106829e+00	1.448575e+00	2.236449e+00	1.928057e+00	1.726002e+00	3.098789e+00	2.662095e+00	6.598109e+00	2.046652e+00	2.230816e+00	2.398541e+00	1.338332e+00	1.911676e+00	1.570048e+00	6.118936e-01	1.454195e+00	2.844574e+00	2.332101e+00	3.268876e+00	6.308285e+00	6.535393e+00	9.350357e-01	3.128666e+00	3.438729e+00	1.412705e+00	4.393625e+00	3.365679e+00	2.931250e-01	3.566572e-01	-7.415604e-02	-1.215815e-01	-6.100351e-01	2.882508e+00	2.453175e+00	2.178653e+00	4.878382e+00	1.996686e+00	1.417750e+00	1.451833e+00	1.012416e+00	1.009586e+00	3.564289e+00	8.113363e+00	7.172619e+00	9.030404e+00	2.426143e+00	1.371719e+00	2.098918e+00	1.659264e+00	2.841876e+00	9.918709e-01	5.499831e+00	1.781599e+00	2.501517e+00	2.023150e+00	8.973216e+00	9.533877e+00	1.740720e+00	5.153801e-01	1.105760e+00	1.843714e+00	1.174770e+00	2.854429e+00	3.046660e+00	9.620406e-02	6.945505e+00	4.706283e+00	6.563153e-01	2.485813e+00	2.664423e+00	3.362823e+00	-8.128755e-01	6.158979e-01	5.890968e-01	3.505055e+00	4.506849e-01	2.239221e+00	6.105530e-01	1.072334e+00	8.317876e-01	1.381512e+00	1.697619e+00	1.463119e+00	5.914102e+00	3.559873e+00	7.885955e+00	7.948720e+00	3.162484e+00	6.372969e+00	1.076222e+00	5.446153e-01	3.331001e-01	7.369677e-01	-3.967176e-01	8.108568e-01	9.441392e-01	3.277653e-01	5.800308e+00	1.046280e+00	3.168235e+00	3.832610e-01	6.438391e-01	4.569908e-01	3.188635e+00	3.029629e+00	2.990426e+00	3.511320e-01	8.024055e-01	5.539119e+00	1.881976e+00	2.611703e-01	8.287130e+00	8.675345e-01	2.977011e+00	1.515919e+00	6.945242e+00	2.666008e+00	6.819693e-01	3.278392e+00	5.681593e+00	3.431317e+00	1.113567e+00	3.318736e+00	3.391195e+00	2.721596e+00	2.600297e+00	4.935954e+00	1.627078e+00	1.892901e+00	2.571027e+00	8.186777e+00	-8.306485e-01	2.267223e+00	-4.368959e-01	2.939999e+00	1.803432e+00	1.811185e+00	3.079541e+00	9.926715e+00	1.578571e+00	1.584486e+00	9.598730e-01	7.348542e-01	5.146953e+00	9.158546e-01	4.010473e+00	9.969238e-01	1.272011e+00	1.765900e+00	2.548206e+00	1.354984e+00	1.932760e+00	1.446223e+00	1.430243e+00	4.126621e+00	2.669683e+00	4.414209e-01	1.592281e+00	1.979373e+00	2.681830e+00	2.631737e+00	1.803666e+00	1.131375e+00	3.535486e+00	1.363232e+00	3.341911e+00	1.027408e+00	9.846045e-01	6.282851e+00	2.267519e+00	3.358524e+00	1.321944e+00	-4.083657e-01	-4.631335e-01	1.095563e-01	8.317414e+00	9.422428e+00	7.479892e+00	2.327562e+00	6.499050e+00	2.891362e+00	1.425697e+00	1.698970e+00	9.830839e+00	3.447533e+00	1.021531e+00	2.253065e+00	4.259771e+00	1.039117e-01	6.296394e-01	5.105039e+00	5.006767e-01	2.785169e+00	2.208245e-02	-6.967188e-01	4.308888e-01	1.213274e+00	6.609540e-01	6.529600e+00	1.961274e+00	8.171455e+00	5.983833e-01	2.927325e+00	3.195289e+00	7.276446e-01	8.290990e-01	5.778026e+00	3.897569e+00	7.464398e+00	3.689762e+00	4.283984e+00	1.471470e+00	3.251806e+00	7.683837e-01	2.011116e+00	-4.206216e-01	3.263861e+00	3.077261e-02	3.134149e+00	7.330855e+00	6.216598e+00	1.955801e+00	
SCALARS Energy float 1
LOOKUP_TABLE default