# vtk DataFile Version 3.0
vtk output
ASCII
DATASET UNSTRUCTURED_GRID
POINTS 394 float
-3.000000e+00	0.000000e+00	0.0	-5.000000e-02	2.823933e-17	0.0	3.407848e-01	1.026572e+00	0.0	4.408416e-01	9.731615e-01	0.0	5.000000e-02	-9.593873e-18	0.0	3.000000e+00	0.000000e+00	0.0	3.000000e+00	4.000000e+00	0.0	-3.000000e+00	4.000000e+00	0.0	-3.000000e+00	3.428571e+00	0.0	-3.000000e+00	2.857143e+00	0.0	-3.000000e+00	2.285714e+00	0.0	-3.000000e+00	1.714286e+00	0.0	-3.000000e+00	1.142857e+00	0.0	-3.000000e+00	5.714286e-01	0.0	-2.473871e+00	0.000000e+00	0.0	-2.029066e+00	0.000000e+00	0.0	-1.653013e+00	0.000000e+00	0.0	-1.335087e+00	0.000000e+00	0.0	-1.066302e+00	0.000000e+00	0.0	-8.390627e-01	0.000000e+00	0.0	-6.469477e-01	0.000000e+00	0.0	-4.845277e-01	0.000000e+00	0.0	-3.472127e-01	0.000000e+00	0.0	-2.311224e-01	0.000000e+00	0.0	-1.329760e-01	0.000000e+00	0.0	-4.526243e-02	8.186958e-02	0.0	-3.376990e-02	1.632615e-01	0.0	-1.581999e-02	2.440359e-01	0.0	7.638623e-03	3.242234e-01	0.0	3.571589e-02	4.038489e-01	0.0	6.755975e-02	4.829489e-01	0.0	1.023842e-01	5.615740e-01	0.0	1.394889e-01	6.397794e-01	0.0	1.782568e-01	7.176228e-01	0.0	2.181635e-01	7.951592e-01	0.0	2.587539e-01	8.724624e-01	0.0	2.997625e-01	9.495555e-01	0.0	3.908141e-01	9.999152e-01	0.0	3.997018e-01	8.962933e-01	0.0	3.587554e-01	8.195051e-01	0.0	3.181551e-01	7.429227e-01	0.0	2.782573e-01	6.665978e-01	0.0	2.394950e-01	5.905942e-01	0.0	2.023963e-01	5.149701e-01	0.0	1.675767e-01	4.397807e-01	0.0	1.357371e-01	3.650793e-01	0.0	1.076622e-01	2.909138e-01	0.0	8.420487e-02	2.173180e-01	0.0	6.626075e-02	1.443094e-01	0.0	5.470483e-02	7.189158e-02	0.0	1.329760e-01	0.000000e+00	0.0	2.311224e-01	0.000000e+00	0.0	3.472127e-01	0.000000e+00	0.0	4.845277e-01	0.000000e+00	0.0	6.469477e-01	0.000000e+00	0.0	8.390627e-01	0.000000e+00	0.0	1.066302e+00	0.000000e+00	0.0	1.335087e+00	0.000000e+00	0.0	1.653013e+00	0.000000e+00	0.0	2.029066e+00	0.000000e+00	0.0	2.473871e+00	0.000000e+00	0.0	3.000000e+00	5.714286e-01	0.0	3.000000e+00	1.142857e+00	0.0	3.000000e+00	1.714286e+00	0.0	3.000000e+00	2.285714e+00	0.0	3.000000e+00	2.857143e+00	0.0	3.000000e+00	3.428571e+00	0.0	2.400000e+00	4.000000e+00	0.0	1.800000e+00	4.000000e+00	0.0	1.200000e+00	4.000000e+00	0.0	6.000000e-01	4.000000e+00	0.0	0.000000e+00	4.000000e+00	0.0	-6.000000e-01	4.000000e+00	0.0	-1.200000e+00	4.000000e+00	0.0	-1.800000e+00	4.000000e+00	0.0	-2.400000e+00	4.000000e+00	0.0	1.825368e-01	9.302910e-01	0.0	4.265869e-01	8.453436e-01	0.0	-1.464587e+00	2.846441e-01	0.0	1.533230e+00	1.911560e-01	0.0	2.650932e-01	5.368851e-01	0.0	3.217827e-02	6.190305e-01	0.0	-7.279875e-01	1.964538e-01	0.0	7.762052e-01	1.232310e-01	0.0	-2.546218e+00	2.101329e+00	0.0	2.593869e+00	1.910015e+00	0.0	-8.406715e-01	3.522416e+00	0.0	1.024573e+00	3.445967e+00	0.0	1.795926e-01	3.190287e-01	0.0	-5.776333e-02	3.742186e-01	0.0	-4.028378e-01	1.342091e-01	0.0	4.330323e-01	8.860275e-02	0.0	3.448738e-01	6.871525e-01	0.0	1.021140e-01	7.765556e-01	0.0	1.469372e-01	1.776572e-01	0.0	-9.844947e-02	2.131375e-01	0.0	2.561884e+00	7.662130e-01	0.0	-2.481066e+00	8.183497e-01	0.0	-2.019164e+00	3.469955e+00	0.0	2.120649e+00	3.419392e+00	0.0	-1.787227e-01	8.444354e-02	0.0	1.907051e-01	6.548781e-02	0.0	2.255869e+00	3.557156e-01	0.0	-2.239143e+00	3.783885e-01	0.0	2.546338e+00	1.352977e+00	0.0	2.214855e+00	1.644810e+00	0.0	2.199835e+00	2.067668e+00	0.0	1.894160e+00	1.796435e+00	0.0	1.865606e+00	1.385202e+00	0.0	1.617879e+00	1.586896e+00	0.0	1.595126e+00	1.943010e+00	0.0	1.374698e+00	1.728739e+00	0.0	1.376031e+00	1.422114e+00	0.0	1.176665e+00	1.545988e+00	0.0	1.175121e+00	1.291416e+00	0.0	9.938098e-01	1.374026e+00	0.0	9.757359e-01	1.645483e+00	0.0	8.184336e-01	1.504274e+00	0.0	7.806783e-01	1.747009e+00	0.0	6.302980e-01	1.634797e+00	0.0	5.789459e-01	1.854146e+00	0.0	4.357405e-01	1.737405e+00	0.0	3.598926e-01	1.962283e+00	0.0	2.051210e-01	1.801897e+00	0.0	1.015604e+00	1.156300e+00	0.0	1.322047e+00	2.075925e+00	0.0	5.623448e-01	2.121369e+00	0.0	1.141216e+00	1.039292e+00	0.0	9.793746e-01	9.663109e-01	0.0	1.021106e-01	2.084225e+00	0.0	-1.085804e-01	1.937319e+00	0.0	-2.537056e-03	1.663422e+00	0.0	-3.380558e-01	1.793236e+00	0.0	-2.662302e-01	1.556332e+00	0.0	-5.668638e-01	1.638612e+00	0.0	-5.950380e-01	1.873492e+00	0.0	-5.105154e-01	1.397978e+00	0.0	-8.239841e-01	1.473348e+00	0.0	8.723806e-01	1.053590e+00	0.0	8.366072e-01	8.825702e-01	0.0	9.366456e-01	7.881132e-01	0.0	-1.995292e-01	2.223658e+00	0.0	7.830681e-01	7.100314e-01	0.0	4.882269e-01	1.508710e+00	0.0	3.954442e-01	1.051337e+00	0.0	4.557740e-01	1.018854e+00	0.0	4.245525e-01	1.099027e+00	0.0	4.910941e-01	1.084143e+00	0.0	4.663790e-02	2.395657e+00	0.0	-7.813172e-01	1.210861e+00	0.0	-1.098993e+00	1.286939e+00	0.0	-4.808723e-01	1.137544e+00	0.0	-8.005688e-01	9.309399e-01	0.0	-5.177467e-01	9.087145e-01	0.0	-1.145864e+00	1.584947e+00	0.0	8.830891e-01	6.165973e-01	0.0	1.048712e+00	6.874107e-01	0.0	7.235102e-01	5.567187e-01	0.0	-1.427782e-02	1.431476e+00	0.0	1.551400e+00	2.310558e+00	0.0	3.473627e-01	1.111705e+00	0.0	3.864663e-01	1.175530e+00	0.0	5.129297e-01	9.941007e-01	0.0	5.641328e-01	1.066634e+00	0.0	5.295964e-01	1.158890e+00	0.0	5.828331e-01	9.643128e-01	0.0	9.901144e-01	5.150622e-01	0.0	1.191639e+00	6.040237e-01	0.0	2.884018e-01	1.188578e+00	0.0	-2.831029e-01	1.025529e+00	0.0	-3.108673e-01	8.469130e-01	0.0	-5.077177e-01	7.091209e-01	0.0	-3.054416e-01	6.743769e-01	0.0	-1.441542e+00	1.372948e+00	0.0	6.263397e-01	1.151323e+00	0.0	-2.951851e-01	2.542915e+00	0.0	-2.551411e-02	2.755536e+00	0.0	6.350752e-01	6.347082e-01	0.0	5.727973e-01	4.960705e-01	0.0	3.390584e-01	1.270359e+00	0.0	6.603704e-01	4.188515e-01	0.0	5.096361e-01	3.679918e-01	0.0	1.245071e+00	2.458465e+00	0.0	-1.498655e+00	1.706774e+00	0.0	1.488265e+00	2.702741e+00	0.0	5.925886e-01	2.925969e-01	0.0	1.113134e+00	3.540058e-01	0.0	-1.380869e+00	1.077947e+00	0.0	-4.857791e-01	5.303569e-01	0.0	-6.528732e-01	5.598973e-01	0.0	-3.359436e-01	4.903424e-01	0.0	-9.936638e-02	9.681154e-01	0.0	-9.975117e-02	1.117806e+00	0.0	-1.907108e+00	1.474445e+00	0.0	4.923899e-01	5.726658e-01	0.0	5.646280e-01	7.081906e-01	0.0	7.556363e-01	3.380047e-01	0.0	-1.930101e-01	5.851554e-01	0.0	9.152186e-01	1.925124e+00	0.0	1.336071e+00	5.171277e-01	0.0	1.395403e+00	7.269991e-01	0.0	1.562519e+00	5.906523e-01	0.0	1.635872e+00	8.616601e-01	0.0	1.870155e+00	7.316044e-01	0.0	5.705449e-01	1.258452e+00	0.0	6.832046e-01	1.247599e+00	0.0	-4.716407e-01	3.607670e-01	0.0	-2.512561e-01	1.362074e+00	0.0	-5.618388e-01	2.338699e+00	0.0	-6.825926e-01	2.690406e+00	0.0	-9.779754e-01	2.475629e+00	0.0	-1.095298e+00	2.831700e+00	0.0	-1.474548e+00	2.511714e+00	0.0	-2.060664e-01	4.342925e-01	0.0	2.176380e-01	1.280717e+00	0.0	2.640813e-01	1.383556e+00	0.0	1.733427e-01	1.189488e+00	0.0	3.580756e-01	2.561463e+00	0.0	2.934471e-01	3.023540e+00	0.0	6.585394e-01	2.764356e+00	0.0	-1.189858e+00	1.916493e+00	0.0	7.479551e-01	9.697995e-01	0.0	-1.584220e-01	3.171613e+00	0.0	-1.503057e-01	8.096638e-01	0.0	4.462520e-01	2.513918e-01	0.0	3.506734e-01	3.191595e-01	0.0	3.135234e-01	2.213451e-01	0.0	2.443024e-01	1.119158e+00	0.0	1.383150e-01	1.097624e+00	0.0	1.828959e+00	2.555292e+00	0.0	1.552240e+00	1.268793e+00	0.0	2.527704e+00	2.482116e+00	0.0	1.083246e+00	2.884242e+00	0.0	-1.562163e+00	2.070621e+00	0.0	4.152937e-01	4.387969e-01	0.0	2.949400e-01	3.967279e-01	0.0	1.238685e+00	1.715748e-01	0.0	-1.118144e-02	8.811696e-01	0.0	-1.073382e-01	5.162125e-01	0.0	4.688646e-01	3.519975e+00	0.0	-3.286017e-01	3.374236e-01	0.0	-2.157777e-01	3.026646e-01	0.0	6.973423e-01	8.098220e-01	0.0	2.208113e+00	1.001265e+00	0.0	-1.584631e+00	3.044051e+00	0.0	-1.942794e+00	2.696929e+00	0.0	6.190368e-01	1.376091e+00	0.0	-2.450467e+00	1.339067e+00	0.0	8.375860e-01	1.300674e+00	0.0	-1.176252e+00	2.565122e-01	0.0	-1.266071e+00	5.346866e-01	0.0	-1.555297e+00	5.842342e-01	0.0	-9.921309e-01	5.100085e-01	0.0	-1.074100e+00	7.716692e-01	0.0	1.763418e+00	3.015069e+00	0.0	2.114060e-01	1.616206e+00	0.0	5.989790e-01	8.432912e-01	0.0	8.540777e-02	1.283837e+00	0.0	2.720949e-02	9.702267e-01	0.0	4.841298e-01	7.733076e-01	0.0	-2.919557e-02	7.554268e-01	0.0	-5.448731e-01	1.984942e-01	0.0	5.877740e-01	9.886327e-02	0.0	1.000116e+00	1.598706e-01	0.0	-9.354143e-01	2.280579e-01	0.0	1.859298e+00	2.389553e-01	0.0	3.042129e-01	7.651072e-02	0.0	-2.757596e-01	1.083925e-01	0.0	-1.426915e+00	3.539375e+00	0.0	4.007075e-01	1.372672e+00	0.0	2.564391e+00	3.093204e+00	0.0	3.824599e-01	5.172795e-01	0.0	-1.816463e+00	3.279967e-01	0.0	-1.933117e+00	7.376054e-01	0.0	1.474319e+00	9.918550e-01	0.0	4.046957e-01	6.181378e-01	0.0	5.155255e-01	8.895702e-01	0.0	1.019102e+00	2.210184e+00	0.0	-2.490964e+00	2.547420e+00	0.0	1.526126e+00	3.499800e+00	0.0	-7.486107e-02	6.423634e-01	0.0	4.608307e-01	9.342046e-01	0.0	-2.421302e+00	3.086707e+00	0.0	1.411317e-01	8.524857e-01	0.0	8.862017e-01	2.562780e-01	0.0	6.959424e-01	2.406847e+00	0.0	-7.863571e-01	3.835606e-01	0.0	6.433701e-02	6.984025e-01	0.0	3.855402e-01	7.635908e-01	0.0	-2.097042e+00	1.105069e+00	0.0	3.032563e-01	6.151892e-01	0.0	-7.986363e-03	5.478114e-01	0.0	2.348716e-01	4.628901e-01	0.0	1.240055e+00	8.392023e-01	0.0	2.048418e-01	3.882260e-01	0.0	-7.734377e-02	2.915546e-01	0.0	1.577209e-01	2.479527e-01	0.0	2.444143e-01	2.724485e-01	0.0	-3.759795e-02	4.586876e-01	0.0	2.395613e-01	1.422431e-01	0.0	-1.940489e-01	1.927181e-01	0.0	-7.107667e-01	7.255904e-01	0.0	4.353056e-02	1.174674e+00	0.0	2.177454e+00	6.711636e-01	0.0	7.564435e-01	1.130117e+00	0.0	1.909197e+00	1.061849e+00	0.0	3.442152e-01	1.065347e+00	0.0	8.215861e-01	4.721386e-01	0.0	-6.134940e-01	3.741480e-01	0.0	4.281949e-01	7.122168e-01	0.0	2.148210e-01	1.049707e+00	0.0	1.257444e-01	1.059457e-01	0.0	-1.075323e-01	1.268636e-01	0.0	-1.840066e+00	1.843826e+00	0.0	-1.993822e+00	2.220390e+00	0.0	-2.466125e-01	1.191749e+00	0.0	-7.735582e-01	3.084232e+00	0.0	4.431701e-01	1.247832e+00	0.0	1.330337e+00	1.141264e+00	0.0	-4.076627e-01	2.921220e+00	0.0	1.071309e+00	8.612975e-01	0.0	9.441406e-01	2.544421e+00	0.0	7.126084e-01	3.127727e+00	0.0	-1.083752e+00	1.012465e+00	0.0	2.165651e+00	2.828934e+00	0.0	1.391644e+00	3.110764e+00	0.0	-1.208450e-01
[...]
POINT_DATA 394

SCALARS Density float 1
LOOKUP_TABLE default
1.223714e+00	1.223954e+00	1.221471e+00	1.221739e+00	1.223241e+00	1.223552e+00	1.223278e+00	1.223584e+00	1.223567e+00	1.223580e+00	1.223622e+00	1.223650e+00	1.223716e+00	1.223723e+00	1.223734e+00	1.223724e+00	1.223756e+00	1.223777e+00	1.223820e+00	1.223847e+00	1.223867e+00	1.223933e+00	1.223906e+00	1.224009e+00	1.223901e+00	1.224047e+00	1.223909e+00	1.223920e+00	1.223907e+00	1.223866e+00	1.223839e+00	1.223785e+00	1.223769e+00	1.223673e+00	1.223757e+00	1.222921e+00	1.224895e+00	1.219555e+00	1.223706e+00	1.223217e+00	1.223239e+00	1.223218e+00	1.223158e+00	1.223125e+00	1.223111e+00	1.223110e+00	1.223127e+00	1.223160e+00	1.223086e+00	1.223308e+00	1.223095e+00	1.223203e+00	1.223130e+00	1.223074e+00	1.223033e+00	1.223005e+00	1.222922e+00	1.222935e+00	1.222952e+00	1.223105e+00	1.222641e+00	1.223287e+00	1.223022e+00	1.222863e+00	1.222811e+00	1.222949e+00	1.223100e+00	1.223105e+00	1.223240e+00	1.223273e+00	1.223355e+00	1.223408e+00	1.223489e+00	1.223541e+00	1.223573e+00	1.223573e+00	1.222952e+00	1.223589e+00	1.223766e+00	1.222892e+00	1.223163e+00	1.223744e+00	1.223844e+00	1.222970e+00	1.223620e+00	1.223288e+00	1.223509e+00	1.223305e+00	1.223128e+00	1.223871e+00	1.223919e+00	1.223076e+00	1.223308e+00	1.223525e+00	1.223212e+00	1.223930e+00	1.222912e+00	1.223715e+00	1.223593e+00	1.223131e+00	1.223966e+00	1.223178e+00	1.223051e+00	1.223708e+00	1.222925e+00	1.222839e+00	1.223091e+00	1.223069e+00	1.222943e+00	1.222962e+00	1.222999e+00	1.223235e+00	1.222743e+00	1.222820e+00	1.222856e+00	1.222991e+00	1.222826e+00	1.223137e+00	1.223109e+00	1.223255e+00	1.223165e+00	1.223229e+00	1.223443e+00	1.223320e+00	1.222799e+00	1.223009e+00	1.223252e+00	1.222649e+00	1.222822e+00	1.223407e+00	1.223495e+00	1.223503e+00	1.223437e+00	1.223582e+00	1.223653e+00	1.223542e+00	1.223628e+00	1.223629e+00	1.222979e+00	1.222875e+00	1.222972e+00	1.223502e+00	1.223000e+00	1.223180e+00	1.221196e+00	1.221527e+00	1.222653e+00	1.222691e+00	1.223407e+00	1.223699e+00	1.223687e+00	1.223739e+00	1.223752e+00	1.223768e+00	1.223648e+00	1.222901e+00	1.222722e+00	1.223004e+00	1.223517e+00	1.223195e+00	1.221582e+00	1.223115e+00	1.222586e+00	1.222628e+00	1.222469e+00	1.222883e+00	1.222938e+00	1.222855e+00	1.223112e+00	1.223714e+00	1.223755e+00	1.223791e+00	1.223765e+00	1.223674e+00	1.222545e+00	1.223467e+00	1.223454e+00	1.223145e+00	1.223057e+00	1.223068e+00	1.223020e+00	1.223078e+00	1.223284e+00	1.223644e+00	1.223175e+00	1.223078e+00	1.222826e+00	1.223721e+00	1.223828e+00	1.223849e+00	1.223925e+00	1.223649e+00	1.223582e+00	1.223682e+00	1.223118e+00	1.223195e+00	1.222960e+00	1.223839e+00	1.223360e+00	1.222715e+00	1.222912e+00	1.222679e+00	1.222680e+00	1.222827e+00	1.222758e+00	1.222737e+00	1.223895e+00	1.223516e+00	1.223526e+00	1.223508e+00	1.223571e+00	1.223552e+00	1.223611e+00	1.223857e+00	1.223123e+00	1.223473e+00	1.223440e+00	1.223330e+00	1.223368e+00	1.223399e+00	1.223617e+00	1.222730e+00	1.223405e+00	1.223804e+00	1.223062e+00	1.223086e+00	1.223126e+00	1.223665e+00	1.223064e+00	1.223095e+00	1.222717e+00	1.223291e+00	1.223294e+00	1.223634e+00	1.223157e+00	1.223038e+00	1.222730e+00	1.223605e+00	1.223951e+00	1.223402e+00	1.223894e+00	1.223928e+00	1.222918e+00	1.222718e+00	1.223548e+00	1.223585e+00	1.222597e+00	1.223661e+00	1.222839e+00	1.223805e+00	1.223825e+00	1.223696e+00	1.223799e+00	1.223727e+00	1.223260e+00	1.223486e+00	1.222990e+00	1.223415e+00	1.223661e+00	1.223262e+00	1.223808e+00	1.223945e+00	1.223048e+00	1.222952e+00	1.223842e+00	1.222746e+00	1.223204e+00	1.223980e+00	1.223550e+00	1.223024e+00	1.223166e+00	1.223203e+00	1.223762e+00	1.223709e+00	1.222809e+00	1.223149e+00	1.222852e+00	1.223219e+00	1.223622e+00	1.223239e+00	1.223753e+00	1.222941e+00	1.223607e+00	1.224000e+00	1.222947e+00	1.223342e+00	1.223810e+00	1.223783e+00	1.223222e+00	1.223679e+00	1.223233e+00	1.223790e+00	1.223149e+00	1.222801e+00	1.223139e+00	1.223914e+00	1.223138e+00	1.223074e+00	1.223809e+00	1.223054e+00	1.223959e+00	1.223767e+00	1.223573e+00	1.222719e+00	1.222820e+00	1.223117e+00	1.225365e+00	1.222984e+00	1.223893e+00	1.223124e+00	1.223404e+00	1.223119e+00	1.223936e+00	1.223629e+00	1.223633e+00	1.223643e+00	1.223507e+00	1.222648e+00	1.222891e+00	1.223467e+00	1.222740e+00	1.223237e+00	1.223280e+00	1.223760e+00	1.223305e+00	1.223245e+00	1.223909e+00	1.223551e+00	1.223503e+00	1.223066e+00	1.223553e+00	1.222727e+00	1.223151e+00	1.223878e+00	1.223025e+00	1.223362e+00	1.223079e+00	1.223365e+00	1.223729e+00	1.222979e+00	1.223303e+00	1.223621e+00	1.222802e+00	1.223732e+00	1.223051e+00	1.222222e+00	1.223740e+00	1.223752e+00	1.223196e+00	1.223384e+00	1.222386e+00	1.223600e+00	1.223072e+00	1.223590e+00	1.223815e+00	1.225497e+00	1.223915e+00	1.223723e+00	1.223068e+00	1.223193e+00	1.223561e+00	1.223414e+00	1.223774e+00	1.223032e+00	1.223930e+00	1.222878e+00	1.222815e+00	1.223571e+00	1.222830e+00	1.223567e+00	1.223293e+00	1.223798e+00	1.223755e+00	1.223685e+00	1.223065e+00	1.223077e+00	1.223964e+00	1.223284e+00	1.223472e+00	1.223141e+00	1.223542e+00	1.222700e+00	1.223401e+00	1.223157e+00	1.223097e+00	1.223462e+00	1.223752e+00	1.222846e+00	1.223233e+00	1.222585e+00	1.223275e+00	1.222886e+00	1.223658e+00	1.222707e+00	
SCALARS X-Momentum float 1
LOOKUP_TABLE default
8.736261e+00	3.787614e-01	6.584077e+00	-3.738289e-01	-6.276279e-01	-4.514942e+00	1.619539e+01	1.035732e+01	1.022257e+01	1.001549e+01	9.759530e+00	9.462572e+00	9.181106e+00	8.915107e+00	8.586075e+00	8.283507e+00	7.825612e+00	7.232826e+00	6.555512e+00	5.779962e+00	4.905043e+00	4.055024e+00	3.076481e+00	2.114450e+00	1.167717e+00	5.938608e-02	3.724481e-01	8.226487e-01	1.335475e+00	1.893783e+00	2.447393e+00	2.981145e+00	3.506175e+00	4.007263e+00	4.384213e+00	4.370618e+00	4.062331e+00	3.972802e+00	5.893449e-01	8.497757e-01	1.349269e+00	1.664410e+00	1.858147e+00	1.931580e+00	1.830924e+00	1.593094e+00	1.271205e+00	8.839908e-01	5.263221e-01	2.494469e-01	-2.027560e+00	-3.659554e+00	-5.023562e+00	-6.224501e+00	-7.186931e+00	-7.898053e+00	-8.392250e+00	-8.620008e+00	-8.110152e+00	-7.172643e+00	-6.188977e+00	-6.131372e-01	4.936939e+00	1.032882e+01	1.417094e+01	1.601101e+01	1.640901e+01	1.550908e+01	1.465272e+01	1.372843e+01	1.296034e+01	1.231618e+01	1.173712e+01	1.121352e+01	1.078056e+01	1.049154e+01	4.791589e+00	1.613352e+00	7.706219e+00	-5.841959e+00	1.861491e+00	3.937194e+00	5.604821e+00	-5.617876e+00	9.690730e+00	1.257274e+01	1.136532e+01	1.383570e+01	9.482016e-01	2.348765e+00	3.678205e+00	-4.222533e+00	1.936372e+00	4.796182e+00	-6.452022e-02	1.414920e+00	1.198092e+00	8.921468e+00	1.048312e+01	1.549964e+01	1.657507e+00	-1.977512e+00	-3.082614e+00	8.600023e+00	7.486736e+00	1.095248e+01	1.409653e+01	1.295005e+01	8.971047e+00	1.169631e+01	1.442241e+01	1.350473e+01	1.033291e+01	1.222202e+01	8.699426e+00	1.044978e+01	1.374964e+01	1.281778e+01	1.458800e+01	1.423763e+01	1.454502e+01	1.410881e+01	1.369254e+01	1.292214e+01	6.765201e+00	1.516638e+01	1.419350e+01	5.074584e+00	4.020130e+00	1.256655e+01	1.170500e+01	1.164494e+01	1.080666e+01	1.037514e+01	1.006378e+01	1.043355e+01	9.446157e+00	9.425285e+00	4.838532e+00	2.844368e+00	2.126475e+00	1.168375e+01	1.709157e+00	1.383840e+01	5.550216e+00	2.121585e+00	6.556160e+00	4.477729e+00	1.238926e+01	8.759124e+00	8.957040e+00	8.540942e+00	7.882955e+00	7.492459e+00	9.483080e+00	6.307041e-01	9.883720e-01	6.540569e-01	1.089791e+01	1.549656e+01	9.634639e+00	1.055669e+01	1.832584e+00	3.877421e+00	7.375028e+00	2.351493e+00	-9.285456e-01	-4.245093e-01	1.156064e+01	7.972337e+00	6.904990e+00	6.545829e+00	5.763276e+00	9.128468e+00	6.372723e+00	1.166884e+01	1.225489e+01	1.708778e+00	7.634167e-01	1.253418e+01	-5.859870e-01	-3.936541e-01	1.529103e+01	9.556400e+00	1.533169e+01	-1.911378e+00	-3.170500e+00	8.650493e+00	5.655605e+00	6.304430e+00	4.821659e+00	7.268865e+00	8.503009e+00	9.269098e+00	1.761603e+00	2.301090e+00	-2.128272e+00	4.733657e+00	1.494722e+01	-1.693208e+00	9.069584e-01	-9.367009e-01	2.414995e+00	7.319740e-01	1.014748e+01	9.192614e+00	4.854940e+00	9.655640e+00	1.107109e+01	1.118714e+01	1.067810e+01	1.081178e+01	1.030783e+01	3.784564e+00	1.198209e+01	1.287591e+01	1.058178e+01	1.313621e+01	1.282283e+01	1.378502e+01	9.933669e+00	3.329900e+00	1.209187e+01	6.205282e+00	-1.551563e+00	-6.678572e-02	-1.025049e+00	1.009498e+01	8.665378e+00	1.561908e+01	7.996811e+00	1.534599e+01	1.449519e+01	9.919486e+00	9.167289e-01	1.026642e+00	-6.053698e+00	6.253827e+00	3.858751e+00	1.294343e+01	3.997009e+00	3.019105e+00	2.369313e+00	3.759198e+00	1.053653e+01	1.018363e+01	1.218787e+01	9.228666e+00	9.640853e+00	7.125588e+00	7.657611e+00	8.139226e+00	7.077684e+00	7.753399e+00	1.532477e+01	1.286536e+01	2.357714e+00	1.084019e+01	6.852543e+00	2.273894e+00	5.309256e+00	4.709906e+00	-5.055494e+00	-5.842165e+00	6.429960e+00	-4.908179e+00	-3.177156e+00	2.638559e+00	1.086611e+01	1.337603e+01	1.612033e+01	1.669286e+00	8.219602e+00	8.616974e+00	4.314999e+00	2.044694e+00	1.933245e+00	1.512056e+01	9.940421e+00	1.462462e+01	4.563003e+00	9.448098e-01	1.020253e+01	5.090960e+00	-3.811522e+00	1.422083e+01	6.289839e+00	4.397413e+00	1.774999e+00	8.978450e+00	1.939282e+00	3.510533e+00	1.645364e+00	2.626236e+00	1.339298e+00	1.825504e+00	4.874051e-01	1.037725e-01	2.930749e+00	-1.416254e+00	2.171787e+00	7.039437e+00	9.427298e+00	6.963260e-02	6.045284e+00	4.860480e+00	8.384190e+00	-7.510080e-01	5.560670e+00	2.212297e+00	7.779322e+00	-5.552265e-01	1.039589e+00	9.627765e+00	9.868452e+00	8.872577e+00	1.127730e+01	1.125137e+01	6.472525e+00	1.166846e+01	2.817607e+00	1.471058e+01	1.352673e+01	8.353810e+00	1.577615e+01	1.474657e+01	3.200308e+00	1.096836e+01	1.192137e+01	1.504128e+01	1.045557e+01	3.658749e+00	1.456808e+01	3.251134e+00	-3.184332e+00	1.481240e+01	-2.480618e+00	1.326736e+01	8.851742e+00	-3.639758e+00	1.345826e+01	9.949666e+00	2.582062e+00	8.162197e+00	-2.889643e+00	-3.089220e+00	8.770263e+00	5.883970e+00	6.465758e+00	1.188329e+01	8.416397e+00	9.661806e+00	1.148662e+01	1.026088e+01	4.157984e+00	5.588390e+00	2.755254e+00	8.489121e+00	-3.807297e-01	1.289128e+01	1.032943e+01	1.238594e+01	5.379062e+00	1.600635e+01	2.247748e+00	-3.697525e+00	-2.003735e+00	1.033412e+01	-2.207456e+00	1.094903e+01	1.230394e+01	6.791738e+00	7.961220e+00	9.515674e+00	7.040695e-01	1.526783e+00	7.712587e-01	-8.821507e-01	1.375668e+01	1.479084e+01	5.484418e+00	1.325450e+01	9.143054e+00	1.550959e+01	1.879874e+00	1.165758e+01	7.304884e+00	7.556119e+00	2.258544e+00	5.572712e+00	1.366626e+01	9.043369e+00	4.629684e+00	7.460672e+00	
SCALARS Y-Momentum float 1
LOOKUP_TABLE default
-2.006920e-02	3.729612e-01	6.031990e+00	-9.445868e-01	5.955783e-01	2.350948e-01	5.932421e-02	-1.253601e-02	1.630112e-02	4.390383e-02	6.033700e-02	7.743454e-02	6.479829e-02	1.180054e-02	-3.836546e-03	-2.253018e-04	6.410330e-03	5.455961e-03	1.117877e-02	1.368730e-02	-2.056705e-03	2.048690e-02	6.802552e-03	7.078790e-03	-3.067656e-02	1.210476e+00	2.185627e+00	3.131992e+00	4.107964e+00	5.023392e+00	5.860291e+00	6.637188e+00	7.396607e+00	8.195840e+00	8.819749e+00	9.031712e+00	9.266225e+00	-2.429673e+00	1.241727e+00	2.120112e+00	2.937214e+00	3.576007e+00	3.989128e+00	4.218604e+00	4.226394e+00	4.034476e+00	3.679968e+00	3.156455e+00	2.503264e+00	1.622548e+00	-1.807244e-03	3.640734e-02	2.668426e-02	8.340438e-03	2.099816e-03	7.561293e-03	1.175684e-02	2.401340e-03	-4.599856e-02	-7.086572e-02	-1.031790e-01	-5.562171e-01	-5.577024e-01	-8.156990e-02	6.087841e-01	8.315816e-01	4.898562e-01	1.203332e-02	-5.055311e-04	-1.113762e-02	-4.085746e-02	-2.616634e-02	-4.992232e-03	-5.145688e-03	2.515952e-03	-2.998254e-03	9.283199e+00	2.593474e+00	5.047832e-01	-2.396470e-01	3.809103e+00	6.434017e+00	8.743841e-01	4.857330e-01	3.929446e-01	2.759183e-01	4.467440e-01	8.201853e-01	3.444103e+00	4.144449e+00	9.554307e-01	7.030636e-01	3.347679e+00	7.811890e+00	2.463381e+00	2.457111e+00	-9.092240e-01	3.303157e-01	2.588418e-01	8.137122e-01	8.179287e-01	9.297915e-01	-6.696946e-01	2.514790e-01	-5.459861e-01	1.194882e-02	8.664438e-01	8.380604e-01	2.957691e-02	8.661790e-01	1.693812e+00	1.779388e+00	1.069227e+00	1.927449e+00	1.418454e+00	2.142609e+00	2.955995e+00	3.309478e+00	4.003364e+00	4.561952e+00	4.564820e+00	5.286537e+00	4.389920e+00	5.051909e+00	1.707274e+00	2.425340e+00	3.795442e+00	1.421600e+00	2.052289e+00	3.640032e+00	3.736019e+00	5.150728e+00	3.548338e+00	4.361203e+00	3.131850e+00	2.671682e+00	3.625711e+00	2.595673e+00	2.232888e+00	2.828082e+00	2.393970e+00	2.721350e+00	3.027375e+00	5.309607e+00	4.000981e-01	5.053705e-01	1.670409e+00	1.385476e+00	2.584447e+00	2.784859e+00	2.061577e+00	3.875809e+00	2.625313e+00	3.590696e+00	1.919088e+00	2.319962e+00	1.775792e+00	2.688940e+00	6.307726e+00	2.032112e+00	5.745487e+00	4.978532e+00	2.115566e+00	2.244864e+00	2.404116e+00	3.128826e+00	1.528577e+00	9.332057e-01	8.353694e+00	4.992198e+00	4.600807e+00	3.329385e+00	4.159902e+00	1.500026e+00	2.322485e+00	1.923845e+00	1.700963e+00	3.350038e+00	2.892362e+00	7.252644e+00	2.216110e+00	2.422380e+00	2.382258e+00	1.386692e+00	1.865653e+00	1.690643e+00	6.443688e-01	1.504479e+00	2.882037e+00	2.378843e+00	3.284881e+00	6.481287e+00	6.724240e+00	9.678226e-01	3.408922e+00	3.713547e+00	1.519451e+00	4.413303e+00	3.477379e+00	2.820032e-01	3.159851e-01	-1.370828e-01	-2.282720e-01	-7.303028e-01	3.136340e+00	2.567954e+00	2.194050e+00	4.965174e+00	2.012912e+00	1.436858e+00	1.488371e+00	1.042411e+00	1.046969e+00	3.545235e+00	8.724881e+00	7.685975e+00	9.698386e+00	2.400307e+00	1.333428e+00	2.061009e+00	1.711131e+00	2.913583e+00	9.747706e-01	5.607644e+00	1.926233e+00	2.735354e+00	2.209111e+00	9.859825e+00	1.020341e+01	1.686301e+00	3.950803e-01	1.034559e+00	1.799340e+00	1.218761e+00	3.121849e+00	3.363881e+00	9.441849e-02	7.164789e+00	4.696955e+00	6.238570e-01	2.481218e+00	2.634143e+00	3.563792e+00	-9.693795e-01	6.398723e-01	6.135958e-01	3.776883e+00	4.639743e-01	2.279164e+00	6.264517e-01	1.103145e+00	8.551306e-01	1.418524e+00	1.750677e+00	1.408493e+00	6.167051e+00	3.771727e+00	8.285582e+00	8.281266e+00	3.429322e+00	6.510814e+00	1.084067e+00	5.741965e-01	3.496515e-01	7.539709e-01	-4.468769e-01	8.776435e-01	9.321087e-01	3.397088e-01	6.312901e+00	1.007513e+00	3.476075e+00	3.923923e-01	6.614238e-01	3.712613e-01	3.502787e+00	3.200089e+00	3.032852e+00	3.660557e-01	7.640262e-01	5.583056e+00	1.936300e+00	2.729605e-01	8.735375e+00	9.226665e-01	2.987895e+00	1.548459e+00	7.104924e+00	2.915141e+00	7.026580e-01	3.630333e+00	5.691131e+00	3.825066e+00	1.102974e+00	3.701373e+00	3.328106e+00	3.043195e+00	2.872158e+00	4.902385e+00	1.788560e+00	1.858972e+00	2.633652e+00	8.580286e+00	-9.576997e-01	2.286021e+00	-5.842729e-01	3.472307e+00	1.947314e+00	1.838081e+00	3.376088e+00	1.085547e+01	1.763532e+00	1.541619e+00	9.959514e-01	7.640388e-01	5.248025e+00	9.315587e-01	4.461871e+00	9.138000e-01	1.271248e+00	1.806201e+00	2.534342e+00	1.303923e+00	1.994794e+00	1.393078e+00	1.374849e+00	4.088456e+00	2.684309e+00	4.364826e-01	1.526621e+00	2.016789e+00	2.736845e+00	2.673558e+00	1.789025e+00	1.208188e+00	3.622696e+00	1.471416e+00	3.361942e+00	1.062135e+00	1.049126e+00	6.681454e+00	2.316344e+00	3.489135e+00	1.364657e+00	-4.761783e-01	-5.131619e-01	1.108197e-01	8.728551e+00	1.004610e+01	7.881947e+00	2.635176e+00	6.696623e+00	3.053334e+00	1.472053e+00	1.699209e+00	1.074712e+01	3.399113e+00	1.054095e+00	2.491876e+00	4.665636e+00	1.088775e-01	6.079780e-01	5.164410e+00	4.841815e-01	2.734271e+00	-1.346286e-03	-7.944412e-01	4.497236e-01	1.302633e+00	6.818000e-01	6.820707e+00	2.009298e+00	8.539837e+00	6.196048e-01	3.237488e+00	3.531529e+00	7.070068e-01	9.266008e-01	6.090490e+00	4.034818e+00	7.722994e+00	3.942507e+00	4.353020e+00	1.406172e+00	3.593368e+00	7.702640e-01	2.068880e+00	-5.807344e-01	3.558017e+00	-9.946855e-02	3.142608e+00	8.229049e+00	6.298789e+00	1.926926e+00	
SCALARS Energy float 1
LOOKUP_TABLE default