# vtk DataFile Version 3.0
vtk output
ASCII
DATASET UNSTRUCTURED_GRID
POINTS 394 float
-3.000000e+00	0.000000e+00	0.0	-5.000000e-02	1.287829e-17	0.0	-1.397518e-02	1.001502e+00	0.0	8.605785e-02	9.995431e-01	0.0	5.000000e-02	-1.426205e-18	0.0	3.000000e+00	0.000000e+00	0.0	3.000000e+00	4.000000e+00	0.0	-3.000000e+00	4.000000e+00	0.0	-3.000000e+00	3.428571e+00	0.0	-3.000000e+00	2.857143e+00	0.0	-3.000000e+00	2.285714e+00	0.0	-3.000000e+00	1.714286e+00	0.0	-3.000000e+00	1.142857e+00	0.0	-3.000000e+00	5.714286e-01	0.0	-2.473871e+00	0.000000e+00	0.0	-2.029066e+00	0.000000e+00	0.0	-1.653013e+00	0.000000e+00	0.0	-1.335087e+00	0.000000e+00	0.0	-1.066302e+00	0.000000e+00	0.0	-8.390627e-01	0.000000e+00	0.0	-6.469477e-01	0.000000e+00	0.0	-4.845277e-01	0.000000e+00	0.0	-3.472127e-01	0.000000e+00	0.0	-2.311224e-01	0.000000e+00	0.0	-1.329760e-01	0.000000e+00	0.0	-4.844636e-02	7.833882e-02	0.0	-4.538653e-02	1.562002e-01	0.0	-4.135674e-02	2.336189e-01	0.0	-3.698079e-02	3.106842e-01	0.0	-3.272000e-02	3.874957e-01	0.0	-2.887204e-02	4.641594e-01	0.0	-2.556603e-02	5.407734e-01	0.0	-2.280160e-02	6.174049e-01	0.0	-2.051585e-02	6.940861e-01	0.0	-1.860844e-02	7.708350e-01	0.0	-1.697879e-02	8.476684e-01	0.0	-1.541610e-02	9.245749e-01	0.0	3.604043e-02	1.000557e+00	0.0	8.451295e-02	9.225938e-01	0.0	8.299614e-02	8.455847e-01	0.0	8.135056e-02	7.685028e-01	0.0	7.944696e-02	6.913387e-01	0.0	7.716034e-02	6.141074e-01	0.0	7.439812e-02	5.368273e-01	0.0	7.109292e-02	4.595284e-01	0.0	6.724479e-02	3.822710e-01	0.0	6.298390e-02	3.051478e-01	0.0	5.860812e-02	2.282650e-01	0.0	5.458189e-02	1.517240e-01	0.0	5.150227e-02	7.561554e-02	0.0	1.329760e-01	0.000000e+00	0.0	2.311224e-01	0.000000e+00	0.0	3.472127e-01	0.000000e+00	0.0	4.845277e-01	0.000000e+00	0.0	6.469477e-01	0.000000e+00	0.0	8.390627e-01	0.000000e+00	0.0	1.066302e+00	0.000000e+00	0.0	1.335087e+00	0.000000e+00	0.0	1.653013e+00	0.000000e+00	0.0	2.029066e+00	0.000000e+00	0.0	2.473871e+00	0.000000e+00	0.0	3.000000e+00	5.714286e-01	0.0	3.000000e+00	1.142857e+00	0.0	3.000000e+00	1.714286e+00	0.0	3.000000e+00	2.285714e+00	0.0	3.000000e+00	2.857143e+00	0.0	3.000000e+00	3.428571e+00	0.0	2.400000e+00	4.000000e+00	0.0	1.800000e+00	4.000000e+00	0.0	1.200000e+00	4.000000e+00	0.0	6.000000e-01	4.000000e+00	0.0	0.000000e+00	4.000000e+00	0.0	-6.000000e-01	4.000000e+00	0.0	-1.200000e+00	4.000000e+00	0.0	-1.800000e+00	4.000000e+00	0.0	-2.400000e+00	4.000000e+00	0.0	-9.932491e-02	8.896293e-01	0.0	1.314022e-01	8.869388e-01	0.0	-1.483039e+00	2.507539e-01	0.0	1.501228e+00	2.265771e-01	0.0	1.201065e-01	5.724960e-01	0.0	-1.115094e-01	5.785506e-01	0.0	-7.460506e-01	1.628454e-01	0.0	7.476861e-01	1.579391e-01	0.0	-2.587195e+00	2.077088e+00	0.0	2.518671e+00	1.946115e+00	0.0	-9.294877e-01	3.509553e+00	0.0	9.134451e-01	3.460839e+00	0.0	1.196077e-01	3.446556e-01	0.0	-1.152502e-01	3.472483e-01	0.0	-4.140271e-01	1.111532e-01	0.0	4.164849e-01	1.089833e-01	0.0	1.285377e-01	7.273324e-01	0.0	-1.091291e-01	7.326355e-01	0.0	1.228636e-01	1.946233e-01	0.0	-1.207958e-01	1.957073e-01	0.0	2.524415e+00	8.150610e-01	0.0	-2.504403e+00	7.872095e-01	0.0	-2.059137e+00	3.451874e+00	0.0	2.065377e+00	3.439020e+00	0.0	-1.837018e-01	7.504852e-02	0.0	1.842272e-01	7.450642e-02	0.0	2.224302e+00	3.974291e-01	0.0	-2.250921e+00	3.563455e-01	0.0	2.467132e+00	1.406162e+00	0.0	2.088504e+00	1.712907e+00	0.0	2.066833e+00	2.117382e+00	0.0	1.723141e+00	1.865609e+00	0.0	1.708284e+00	1.474883e+00	0.0	1.411339e+00	1.670651e+00	0.0	1.386138e+00	2.009095e+00	0.0	1.130601e+00	1.802664e+00	0.0	1.141389e+00	1.510596e+00	0.0	9.065835e-01	1.620705e+00	0.0	9.147385e-01	1.380180e+00	0.0	6.945895e-01	1.449722e+00	0.0	6.752272e-01	1.700541e+00	0.0	4.887620e-01	1.553284e+00	0.0	4.653082e-01	1.781297e+00	0.0	2.936386e-01	1.662252e+00	0.0	2.583878e-01	1.873024e+00	0.0	9.728432e-02	1.739170e+00	0.0	4.372595e-02	1.963329e+00	0.0	-1.297065e-01	1.784286e+00	0.0	7.383836e-01	1.242490e+00	0.0	1.085993e+00	2.133839e+00	0.0	2.658279e-01	2.137414e+00	0.0	9.034286e-01	1.138723e+00	0.0	7.313115e-01	1.056380e+00	0.0	-1.921350e-01	2.067825e+00	0.0	-3.980657e-01	1.895520e+00	0.0	-3.322028e-01	1.615953e+00	0.0	-6.047763e-01	1.723930e+00	0.0	-5.505574e-01	1.472051e+00	0.0	-8.059649e-01	1.554760e+00	0.0	-8.320356e-01	1.798339e+00	0.0	-7.527886e-01	1.293595e+00	0.0	-1.018426e+00	1.380154e+00	0.0	5.884182e-01	1.130206e+00	0.0	5.816490e-01	9.648274e-01	0.0	7.243739e-01	8.784002e-01	0.0	-4.607137e-01	2.184891e+00	0.0	5.749148e-01	7.953940e-01	0.0	1.356496e-01	1.517589e+00	0.0	3.586887e-02	1.047593e+00	0.0	9.623924e-02	1.040413e+00	0.0	6.346793e-02	1.101863e+00	0.0	1.348277e-01	1.103812e+00	0.0	-2.172043e-01	2.375389e+00	0.0	-9.547829e-01	1.112527e+00	0.0	-1.239419e+00	1.194566e+00	0.0	-6.995287e-01	1.031556e+00	0.0	-9.173257e-01	8.305295e-01	0.0	-6.715112e-01	8.024818e-01	0.0	-1.305700e+00	1.498063e+00	0.0	7.157056e-01	7.061890e-01	0.0	8.741957e-01	7.845484e-01	0.0	5.636865e-01	6.390336e-01	0.0	-3.434991e-01	1.365022e+00	0.0	1.355232e+00	2.362250e+00	0.0	-1.313802e-02	1.091211e+00	0.0	2.438826e-02	1.168005e+00	0.0	1.693880e-01	1.028738e+00	0.0	2.194412e-01	1.102701e+00	0.0	1.726145e-01	1.181814e+00	0.0	2.609978e-01	1.013694e+00	0.0	8.587673e-01	6.075010e-01	0.0	1.052059e+00	6.964579e-01	0.0	-6.545562e-02	1.159206e+00	0.0	-5.085784e-01	9.242819e-01	0.0	-4.799564e-01	7.449203e-01	0.0	-6.166805e-01	6.196085e-01	0.0	-4.258530e-01	5.825587e-01	0.0	-1.556842e+00	1.287192e+00	0.0	2.843620e-01	1.191321e+00	0.0	-5.194337e-01	2.508746e+00	0.0	-2.404207e-01	2.731697e+00	0.0	4.385404e-01	7.173842e-01	0.0	4.282468e-01	5.699519e-01	0.0	-2.016314e-02	1.252563e+00	0.0	5.462945e-01	4.902055e-01	0.0	4.144694e-01	4.283041e-01	0.0	1.025858e+00	2.498266e+00	0.0	-1.628212e+00	1.631667e+00	0.0	1.315305e+00	2.743345e+00	0.0	5.202343e-01	3.490016e-01	0.0	1.032426e+00	4.301158e-01	0.0	-1.473509e+00	9.932149e-01	0.0	-5.572452e-01	4.581514e-01	0.0	-7.240995e-01	4.848237e-01	0.0	-4.062842e-01	4.229085e-01	0.0	-3.432608e-01	8.737786e-01	0.0	-3.784766e-01	1.030426e+00	0.0	-1.991776e+00	1.409059e+00	0.0	3.120091e-01	6.499306e-01	0.0	3.322621e-01	7.862797e-01	0.0	6.671690e-01	4.054476e-01	0.0	-3.010362e-01	5.113739e-01	0.0	6.179284e-01	1.960779e+00	0.0	1.227868e+00	5.981813e-01	0.0	1.254709e+00	8.216240e-01	0.0	1.460753e+00	6.740746e-01	0.0	1.495846e+00	9.532252e-01	0.0	1.776551e+00	8.101168e-01	0.0	2.199682e-01	1.285531e+00	0.0	3.450119e-01	1.290038e+00	0.0	-5.105509e-01	3.081721e-01	0.0	-5.275170e-01	1.265100e+00	0.0	-7.838520e-01	2.288452e+00	0.0	-8.626460e-01	2.653377e+00	0.0	-1.151251e+00	2.424686e+00	0.0	-1.236642e+00	2.800393e+00	0.0	-1.606380e+00	2.459760e+00	0.0	-2.679789e-01	3.787023e-01	0.0	-1.299148e-01	1.241638e+00	0.0	-8.840159e-02	1.354286e+00	0.0	-1.638532e-01	1.139782e+00	0.0	9.735400e-02	2.565019e+00	0.0	1.097404e-01	3.018971e+00	0.0	4.352223e-01	2.780443e+00	0.0	-1.354966e+00	1.841349e+00	0.0	4.521864e-01	1.042164e+00	0.0	-3.052397e-01	3.148032e+00	0.0	-3.310417e-01	7.167005e-01	0.0	3.925037e-01	2.956535e-01	0.0	2.808897e-01	3.711510e-01	0.0	2.728580e-01	2.578272e-01	0.0	-9.893360e-02	1.079398e+00	0.0	-1.800870e-01	1.040907e+00	0.0	1.677144e+00	2.601634e+00	0.0	1.357569e+00	1.364792e+00	0.0	2.445595e+00	2.508418e+00	0.0	8.952425e-01	2.911764e+00	0.0	-1.691859e+00	2.002533e+00	0.0	2.939759e-01	5.077167e-01	0.0	2.005395e-01	4.447231e-01	0.0	1.205592e+00	2.076004e-01	0.0	-2.424955e-01	8.028711e-01	0.0	-1.996866e-01	4.632542e-01	0.0	3.626498e-01	3.516197e+00	0.0	-3.666934e-01	2.915165e-01	0.0	-2.498236e-01	2.647423e-01	0.0	4.358712e-01	8.874818e-01	0.0	2.112348e+00	1.078066e+00	0.0	-1.673035e+00	3.018827e+00	0.0	-2.023546e+00	2.667891e+00	0.0	2.731170e-01	1.406516e+00	0.0	-2.491930e+00	1.297086e+00	0.0	5.202857e-01	1.361410e+00	0.0	-1.194713e+00	2.213013e-01	0.0	-1.312163e+00	4.721836e-01	0.0	-1.597470e+00	5.247354e-01	0.0	-1.042823e+00	4.361446e-01	0.0	-1.150773e+00	6.844598e-01	0.0	1.636184e+00	3.046195e+00	0.0	-1.351015e-01	1.590506e+00	0.0	3.167182e-01	9.067759e-01	0.0	-2.470416e-01	1.224404e+00	0.0	-2.371702e-01	8.953061e-01	0.0	2.239058e-01	8.354772e-01	0.0	-2.101429e-01	6.852331e-01	0.0	-5.606392e-01	1.618004e-01	0.0	5.671809e-01	1.246313e-01	0.0	9.649352e-01	2.030056e-01	0.0	-9.526162e-01	1.909341e-01	0.0	1.827893e+00	2.772542e-01	0.0	2.926400e-01	9.035991e-02	0.0	-2.836691e-01	9.291883e-02	0.0	-1.488240e+00	3.526031e+00	0.0	4.280195e-02	1.367462e+00	0.0	2.520489e+00	3.105173e+00	0.0	2.326970e-01	5.802177e-01	0.0	-1.831771e+00	2.966085e-01	0.0	-1.975362e+00	6.791988e-01	0.0	1.301212e+00	1.086822e+00	0.0	2.126103e-01	6.771671e-01	0.0	2.033817e-01	9.386142e-01	0.0	7.513425e-01	2.243790e+00	0.0	-2.530640e+00	2.525231e+00	0.0	1.440122e+00	3.515890e+00	0.0	-2.138858e-01	5.770880e-01	0.0	1.211250e-01	9.693221e-01	0.0	-2.459966e+00	3.076877e+00	0.0	-1.042186e-01	8.100729e-01	0.0	8.224995e-01	3.184113e-01	0.0	4.254184e-01	2.423774e+00	0.0	-8.258838e-01	3.244823e-01	0.0	-1.104446e-01	6.555954e-01	0.0	1.328602e-01	8.051727e-01	0.0	-2.151939e+00	1.046459e+00	0.0	1.227662e-01	6.527809e-01	0.0	-1.217480e-01	5.075415e-01	0.0	1.215809e-01	4.967427e-01	0.0	1.054791e+00	9.421429e-01	0.0	1.217783e-01	4.180533e-01	0.0	-1.149152e-01	2.701408e-01	0.0	1.183544e-01	2.686454e-01	0.0	1.932176e-01	3.066489e-01	0.0	-1.198418e-01	4.253340e-01	0.0	2.178143e-01	1.643429e-01	0.0	-2.121437e-01	1.693615e-01	0.0	-8.018331e-01	6.368347e-01	0.0	-2.694412e-01	1.104445e+00	0.0	2.116122e+00	7.377411e-01	0.0	4.392624e-01	1.190885e+00	0.0	1.776088e+00	1.150635e+00	0.0	-1.205028e-02	1.044282e+00	0.0	6.954894e-01	5.527868e-01	0.0	-6.541331e-01	3.168065e-01	0.0	1.954004e-01	7.674022e-01	0.0	-1.094540e-01	1.008779e+00	0.0	1.160930e-01	1.150418e-01	0.0	-1.164971e-01	1.172214e-01	0.0	-1.943364e+00	1.780754e+00	0.0	-2.082362e+00	2.168525e+00	0.0	-5.087972e-01	1.097113e+00	0.0	-9.092275e-01	3.061799e+00	0.0	8.022144e-02	1.250036e+00	0.0	1.112307e+00	1.237169e+00	0.0	-5.770325e-01	2.894212e+00	0.0	8.576854e-01	9.599370e-01	0.0	7.067425e-01	2.571584e+00	0.0	5.434917e-01	3.137638e+00	0.0	-1.190065e+00	9.209832e-01	0.0	2.061038e+00	2.864794e+00	0.0	1.254198e+0
[...]
POINT_DATA 394

SCALARS Density float 1
LOOKUP_TABLE default
1.223755e+00	1.223964e+00	1.222425e+00	1.222008e+00	1.223552e+00	1.223788e+00	1.223246e+00	1.223612e+00	1.223594e+00	1.223609e+00	1.223658e+00	1.223689e+00	1.223767e+00	1.223773e+00	1.223784e+00	1.223763e+00	1.223798e+00	1.223821e+00	1.223858e+00	1.223881e+00	1.223905e+00	1.223944e+00	1.223926e+00	1.223988e+00	1.223921e+00	1.224000e+00	1.223925e+00	1.223942e+00	1.223944e+00	1.223932e+00	1.223924e+00	1.223891e+00	1.223888e+00	1.223808e+00	1.223888e+00	1.223094e+00	1.224884e+00	1.220705e+00	1.223912e+00	1.223550e+00	1.223558e+00	1.223489e+00	1.223431e+00	1.223401e+00	1.223402e+00	1.223411e+00	1.223440e+00	1.223476e+00	1.223420e+00	1.223647e+00	1.223425e+00	1.223533e+00	1.223448e+00	1.223377e+00	1.223332e+00	1.223301e+00	1.223206e+00	1.223258e+00	1.223254e+00	1.223381e+00	1.222914e+00	1.223510e+00	1.223180e+00	1.222974e+00	1.222849e+00	1.222943e+00	1.223083e+00	1.223104e+00	1.223225e+00	1.223268e+00	1.223355e+00	1.223415e+00	1.223499e+00	1.223557e+00	1.223593e+00	1.223595e+00	1.223440e+00	1.223750e+00	1.223808e+00	1.223192e+00	1.223451e+00	1.223836e+00	1.223866e+00	1.223300e+00	1.223656e+00	1.223297e+00	1.223528e+00	1.223307e+00	1.223444e+00	1.223907e+00	1.223927e+00	1.223417e+00	1.223576e+00	1.223681e+00	1.223534e+00	1.223945e+00	1.223047e+00	1.223757e+00	1.223618e+00	1.223111e+00	1.223957e+00	1.223512e+00	1.223301e+00	1.223751e+00	1.222979e+00	1.222974e+00	1.223128e+00	1.223116e+00	1.223074e+00	1.223055e+00	1.223042e+00	1.223267e+00	1.222958e+00	1.222979e+00	1.223011e+00	1.223171e+00	1.222932e+00	1.223221e+00	1.223152e+00	1.223266e+00	1.223209e+00	1.223258e+00	1.223477e+00	1.223359e+00	1.223186e+00	1.223029e+00	1.223278e+00	1.222979e+00	1.223193e+00	1.223440e+00	1.223535e+00	1.223557e+00	1.223501e+00	1.223647e+00	1.223700e+00	1.223598e+00	1.223697e+00	1.223679e+00	1.223282e+00	1.223270e+00	1.223305e+00	1.223557e+00	1.223347e+00	1.223257e+00	1.222497e+00	1.222245e+00	1.222825e+00	1.223094e+00	1.223430e+00	1.223741e+00	1.223740e+00	1.223796e+00	1.223789e+00	1.223817e+00	1.223698e+00	1.223235e+00	1.223075e+00	1.223334e+00	1.223567e+00	1.223201e+00	1.222025e+00	1.223279e+00	1.223239e+00	1.223087e+00	1.222878e+00	1.223303e+00	1.223246e+00	1.223155e+00	1.223166e+00	1.223775e+00	1.223782e+00	1.223847e+00	1.223838e+00	1.223703e+00	1.222995e+00	1.223509e+00	1.223487e+00	1.223458e+00	1.223384e+00	1.223163e+00	1.223327e+00	1.223380e+00	1.223275e+00	1.223684e+00	1.223147e+00	1.223428e+00	1.223084e+00	1.223761e+00	1.223872e+00	1.223890e+00	1.223917e+00	1.223812e+00	1.223693e+00	1.223719e+00	1.223423e+00	1.223473e+00	1.223265e+00	1.223923e+00	1.223339e+00	1.223040e+00	1.223171e+00	1.222950e+00	1.222956e+00	1.223049e+00	1.223019e+00	1.222994e+00	1.223950e+00	1.223619e+00	1.223552e+00	1.223538e+00	1.223606e+00	1.223578e+00	1.223647e+00	1.223900e+00	1.223231e+00	1.223498e+00	1.223514e+00	1.223368e+00	1.223389e+00	1.223414e+00	1.223653e+00	1.223193e+00	1.223416e+00	1.223886e+00	1.223384e+00	1.223415e+00	1.223441e+00	1.223752e+00	1.223082e+00	1.223084e+00	1.222936e+00	1.223305e+00	1.223296e+00	1.223670e+00	1.223449e+00	1.223375e+00	1.223027e+00	1.223770e+00	1.223979e+00	1.223409e+00	1.223898e+00	1.223943e+00	1.223331e+00	1.222967e+00	1.223571e+00	1.223609e+00	1.222780e+00	1.223702e+00	1.223134e+00	1.223839e+00	1.223872e+00	1.223739e+00	1.223836e+00	1.223785e+00	1.223263e+00	1.223535e+00	1.223391e+00	1.223463e+00	1.223730e+00	1.223590e+00	1.223880e+00	1.223945e+00	1.223368e+00	1.223256e+00	1.223869e+00	1.223008e+00	1.223532e+00	1.223974e+00	1.223566e+00	1.223127e+00	1.223158e+00	1.223485e+00	1.223803e+00	1.223745e+00	1.223033e+00	1.223458e+00	1.223324e+00	1.223223e+00	1.223651e+00	1.223231e+00	1.223841e+00	1.223328e+00	1.223636e+00	1.223976e+00	1.223248e+00	1.223343e+00	1.223865e+00	1.223878e+00	1.223560e+00	1.223720e+00	1.223510e+00	1.223872e+00	1.223436e+00	1.223100e+00	1.223446e+00	1.223932e+00	1.223464e+00	1.223415e+00	1.223874e+00	1.223398e+00	1.223967e+00	1.223851e+00	1.223682e+00	1.223004e+00	1.223133e+00	1.223314e+00	1.224118e+00	1.223309e+00	1.223938e+00	1.223483e+00	1.223517e+00	1.223463e+00	1.223942e+00	1.223667e+00	1.223669e+00	1.223737e+00	1.223534e+00	1.222871e+00	1.223132e+00	1.223489e+00	1.223094e+00	1.223243e+00	1.223299e+00	1.223814e+00	1.223306e+00	1.223235e+00	1.223970e+00	1.223599e+00	1.223521e+00	1.223074e+00	1.223597e+00	1.223216e+00	1.223187e+00	1.223900e+00	1.223331e+00	1.223359e+00	1.223388e+00	1.223379e+00	1.223783e+00	1.223268e+00	1.223335e+00	1.223660e+00	1.223279e+00	1.223771e+00	1.223333e+00	1.222514e+00	1.223798e+00	1.223873e+00	1.223526e+00	1.223478e+00	1.222936e+00	1.223671e+00	1.223176e+00	1.223630e+00	1.223889e+00	1.224798e+00	1.223959e+00	1.223772e+00	1.223380e+00	1.223326e+00	1.223577e+00	1.223437e+00	1.223879e+00	1.223032e+00	1.223960e+00	1.223177e+00	1.223098e+00	1.223607e+00	1.223198e+00	1.223595e+00	1.223347e+00	1.223846e+00	1.223853e+00	1.223721e+00	1.223360e+00	1.223370e+00	1.223969e+00	1.223595e+00	1.223483e+00	1.223147e+00	1.223735e+00	1.222936e+00	1.223508e+00	1.223162e+00	1.223409e+00	1.223493e+00	1.223802e+00	1.223011e+00	1.223500e+00	1.222829e+00	1.223326e+00	1.223143e+00	1.223821e+00	1.223031e+00	
SCALARS X-Momentum float 1
LOOKUP_TABLE default
7.937988e+00	2.293709e-01	4.012923e+00	5.515714e-01	-6.234893e-01	-5.192033e+00	1.643701e+01	1.001432e+01	9.844155e+00	9.587001e+00	9.271582e+00	8.904075e+00	8.540601e+00	8.182084e+00	7.748638e+00	7.390737e+00	6.852101e+00	6.188042e+00	5.452374e+00	4.647708e+00	3.800628e+00	3.021696e+00	2.203769e+00	1.454109e+00	7.666478e-01	-1.981404e-02	4.764338e-02	1.322206e-01	1.871189e-01	2.298214e-01	2.611350e-01	2.806871e-01	2.983122e-01	3.159329e-01	3.078221e-01	2.610764e-01	1.650967e-02	4.621525e+00	4.192052e-01	2.406470e-01	2.596375e-01	2.438293e-01	2.621005e-01	2.978490e-01	3.114897e-01	3.020539e-01	2.795667e-01	2.152128e-01	1.572026e-01	1.206581e-01	-1.944507e+00	-3.508730e+00	-4.861759e+00	-6.126345e+00	-7.185524e+00	-7.974349e+00	-8.561011e+00	-8.841449e+00	-8.342740e+00	-7.513067e+00	-6.687483e+00	-1.504852e+00	3.900567e+00	9.405944e+00	1.359233e+01	1.581823e+01	1.649854e+01	1.579946e+01	1.490626e+01	1.391000e+01	1.305626e+01	1.232032e+01	1.164245e+01	1.102801e+01	1.052320e+01	1.018075e+01	9.474961e-01	8.863479e-01	6.700601e+00	-6.058000e+00	3.123869e-01	1.129470e+00	4.391865e+00	-5.819499e+00	9.169649e+00	1.206755e+01	1.113027e+01	1.387872e+01	-1.073174e-01	8.753016e-01	2.603222e+00	-4.336284e+00	5.896264e-01	1.247064e+00	-5.481627e-01	6.717478e-01	6.155008e-01	8.187883e+00	1.013537e+01	1.564251e+01	1.045120e+00	-2.051497e+00	-3.480185e+00	7.778086e+00	6.912974e+00	1.063803e+01	1.384363e+01	1.273973e+01	8.833809e+00	1.159608e+01	1.423503e+01	1.331977e+01	1.033186e+01	1.204892e+01	8.831928e+00	1.034135e+01	1.324971e+01	1.216719e+01	1.381444e+01	1.321139e+01	1.369651e+01	1.301406e+01	1.290953e+01	1.194043e+01	7.031834e+00	1.491494e+01	1.361926e+01	5.374170e+00	4.221889e+00	1.191897e+01	1.094171e+01	1.051974e+01	9.932617e+00	9.195627e+00	9.108632e+00	9.674109e+00	8.180276e+00	8.466202e+00	5.101858e+00	2.814143e+00	2.004299e+00	1.113373e+01	1.164437e+00	1.246921e+01	5.278141e+00	2.567568e+00	6.099604e+00	4.529016e+00	1.194283e+01	7.603706e+00	8.034570e+00	6.980680e+00	6.577868e+00	5.808737e+00	8.702290e+00	1.665810e-01	8.855287e-01	-1.928549e-01	9.333688e+00	1.534808e+01	7.756588e+00	8.890119e+00	2.063898e+00	4.066142e+00	6.950444e+00	2.361029e+00	-1.251308e+00	-5.219683e-01	9.214326e+00	5.877332e+00	4.724596e+00	4.854847e+00	3.699967e+00	8.348732e+00	6.369307e+00	1.125297e+01	1.193866e+01	6.793168e-01	-3.476655e-01	1.049911e+01	-1.427913e+00	-1.335463e+00	1.512123e+01	8.888358e+00	1.527758e+01	-2.558365e+00	-3.413817e+00	7.757435e+00	4.083931e+00	4.889975e+00	3.128851e+00	4.524915e+00	6.126424e+00	8.590484e+00	4.499495e-01	1.183488e+00	-2.703446e+00	2.632688e+00	1.439471e+01	-1.831491e+00	8.904483e-01	-1.058011e+00	2.362666e+00	5.328988e-01	9.342298e+00	8.850973e+00	3.461572e+00	8.128148e+00	1.055738e+01	1.078374e+01	1.019503e+01	1.041187e+01	9.828617e+00	2.110146e+00	9.807714e+00	1.101696e+01	8.008594e+00	1.279796e+01	1.264165e+01	1.360221e+01	9.285767e+00	3.476009e+00	1.187150e+01	3.536848e+00	-2.206270e+00	-1.017850e+00	-1.633933e+00	7.257556e+00	5.626222e+00	1.555023e+01	8.039063e+00	1.511744e+01	1.442933e+01	9.348287e+00	-3.166197e-01	-2.389702e-01	-6.276363e+00	3.037017e+00	1.798290e+00	1.290882e+01	2.611613e+00	1.753925e+00	1.840237e+00	3.458477e+00	1.014959e+01	9.738670e+00	1.118467e+01	8.582801e+00	9.453771e+00	6.028991e+00	6.599585e+00	7.193379e+00	5.886879e+00	6.621810e+00	1.536523e+01	1.159031e+01	1.712302e+00	8.729646e+00	3.492686e+00	1.209515e+00	2.289224e+00	3.495223e+00	-5.223889e+00	-6.041373e+00	5.251771e+00	-5.168384e+00	-3.257738e+00	1.765633e+00	1.057115e+01	1.161329e+01	1.614694e+01	2.473909e-01	7.309657e+00	7.788034e+00	4.388816e+00	6.234277e-01	1.426054e+00	1.476433e+01	9.473598e+00	1.474748e+01	2.021020e+00	8.285904e-01	9.797595e+00	1.233028e+00	-4.154636e+00	1.387313e+01	5.011397e+00	1.204916e+00	7.247496e-01	8.248113e+00	4.390331e-01	1.129205e+00	1.698757e-01	2.766242e+00	3.807475e-02	7.534884e-01	-2.849842e-01	-7.418802e-01	1.014318e+00	-1.748668e+00	1.288015e+00	5.615484e+00	6.931740e+00	-2.295432e-01	6.237390e+00	4.716133e+00	6.817523e+00	-1.378247e+00	4.219439e+00	9.135062e-01	4.396694e+00	-7.865328e-01	5.652832e-01	9.029280e+00	9.345606e+00	7.023051e+00	1.095672e+01	9.820860e+00	6.643646e+00	1.135304e+01	2.968903e+00	1.450560e+01	1.345543e+01	7.305766e+00	1.576533e+01	1.477787e+01	1.495839e+00	1.030960e+01	1.176989e+01	1.487682e+01	9.839654e+00	3.887316e+00	1.420476e+01	2.139175e+00	-3.571125e+00	1.432441e+01	-2.832964e+00	1.273059e+01	8.060364e+00	-4.034908e+00	1.189476e+01	9.176018e+00	2.454072e+00	7.172531e+00	-3.092869e+00	-3.700674e+00	7.985632e+00	2.182253e+00	2.949313e+00	1.004049e+01	7.528835e+00	7.704709e+00	1.084742e+01	9.711941e+00	2.918552e+00	1.733486e+00	1.374775e+00	7.606017e+00	-9.757823e-01	1.145032e+01	9.971127e+00	1.226941e+01	2.890648e+00	1.619669e+01	1.175439e+00	-3.900479e+00	-2.268729e+00	9.936015e+00	-2.632932e+00	1.061668e+01	1.078873e+01	5.480594e+00	4.994689e+00	8.932458e+00	-3.957213e-01	1.000927e-01	4.618502e-01	-9.404938e-01	1.245543e+01	1.414172e+01	2.019964e+00	1.226680e+01	7.586972e+00	1.537786e+01	3.849687e-01	1.141367e+01	6.038285e+00	7.282289e+00	9.484410e-01	5.570589e+00	1.323606e+01	6.544318e+00	1.749776e+00	7.650788e+00	
SCALARS Y-Momentum float 1
LOOKUP_TABLE default
-2.543586e-02	2.252486e-01	7.375189e+00	-2.716263e-01	6.018298e-01	2.227827e-01	6.307746e-02	-1.373261e-02	2.334631e-02	5.479576e-02	7.733222e-02	1.006954e-01	8.862261e-02	2.371029e-02	-4.089884e-03	2.563814e-04	5.365905e-03	3.216559e-03	9.134092e-03	1.080732e-02	-8.913901e-03	2.296047e-03	-2.156795e-03	6.875999e-03	-1.805168e-02	7.080090e-01	1.264698e+00	1.850149e+00	2.511379e+00	3.207249e+00	3.915903e+00	4.650990e+00	5.437047e+00	6.318289e+00	7.129842e+00	7.612090e+00	8.369067e+00	-1.956733e-01	2.379941e+00	3.446923e+00	4.307842e+00	4.902181e+00	5.243850e+00	5.358631e+00	5.214775e+00	4.849336e+00	4.315834e+00	3.609285e+00	2.762728e+00	1.711242e+00	-6.070611e-03	2.480576e-02	2.840857e-02	1.203664e-02	1.033102e-02	2.288301e-02	2.406590e-02	1.953412e-03	-5.645256e-02	-7.622075e-02	-9.630528e-02	-5.153603e-01	-6.043434e-01	-2.846124e-01	3.437350e-01	6.375372e-01	4.151516e-01	1.683945e-02	6.578693e-03	-3.171990e-03	-3.743587e-02	-2.319704e-02	-2.284186e-03	-4.687972e-03	5.103915e-03	-1.262047e-03	8.256748e+00	3.682015e+00	5.076175e-01	-2.579528e-01	5.026106e+00	4.801001e+00	7.128763e-01	6.672283e-01	4.553419e-01	1.070283e-01	5.316687e-01	8.638520e-01	4.209374e+00	2.716604e+00	6.730330e-01	9.353359e-01	4.650776e+00	6.344609e+00	2.881198e+00	1.505882e+00	-8.476495e-01	3.812819e-01	3.088767e-01	7.917494e-01	5.175478e-01	1.056052e+00	-6.324497e-01	2.843198e-01	-5.839142e-01	-9.960514e-03	7.719563e-01	9.072146e-01	1.722558e-01	1.143931e+00	1.846641e+00	2.166985e+00	1.543424e+00	2.547142e+00	2.076844e+00	3.037448e+00	3.614279e+00	4.194198e+00	4.528547e+00	5.154365e+00	4.903954e+00	5.612211e+00	4.666939e+00	5.338061e+00	2.472346e+00	2.632611e+00	4.055436e+00	1.896063e+00	2.527841e+00	3.944140e+00	4.077707e+00	5.473941e+00	3.908715e+00	4.710379e+00	3.448269e+00	3.002960e+00	3.878099e+00	2.825672e+00	2.942795e+00	3.245635e+00	2.700701e+00	3.043459e+00	3.425383e+00	5.871894e+00	1.907388e+00	1.586691e+00	3.158159e+00	2.713825e+00	2.859426e+00	2.914852e+00	2.219652e+00	3.951742e+00	2.633262e+00	3.478279e+00	2.124166e+00	2.649010e+00	1.962605e+00	3.243947e+00	6.615430e+00	2.091941e+00	6.665871e+00	5.918658e+00	2.963105e+00	3.351493e+00	3.776717e+00	3.786406e+00	1.738484e+00	1.008741e+00	8.715763e+00	4.927813e+00	4.255398e+00	3.018319e+00	3.527013e+00	1.655099e+00	3.590226e+00	2.196481e+00	1.929197e+00	4.006402e+00	3.697956e+00	7.671525e+00	2.847602e+00	3.203461e+00	2.487016e+00	1.554122e+00	1.888188e+00	2.270704e+00	7.486053e-01	1.624944e+00	2.427424e+00	2.103227e+00	2.577860e+00	6.167725e+00	6.795950e+00	1.090684e+00	4.391858e+00	4.466428e+00	1.961736e+00	3.429406e+00	3.873164e+00	2.854259e-01	3.820611e-01	-1.481866e-01	-1.706975e-01	-6.945112e-01	4.385428e+00	3.817241e+00	1.730048e+00	5.271518e+00	2.307148e+00	1.664128e+00	1.718570e+00	1.212583e+00	1.207147e+00	2.566905e+00	8.886262e+00	7.924433e+00	9.767026e+00	2.623998e+00	1.493684e+00	2.214618e+00	1.929820e+00	3.522513e+00	1.133733e+00	4.924548e+00	2.541849e+00	3.531507e+00	2.782755e+00	1.005724e+01	1.009232e+01	1.649504e+00	6.753531e-01	8.685268e-01	1.877939e+00	1.386968e+00	4.103002e+00	4.349527e+00	1.247427e-01	6.400513e+00	3.438602e+00	6.978195e-01	1.833917e+00	1.803448e+00	4.026800e+00	-8.861214e-01	7.479785e-01	7.078565e-01	4.781102e+00	5.362028e-01	3.404446e+00	5.933435e-01	1.099088e+00	8.964570e-01	1.333428e+00	1.757109e+00	1.393481e+00	6.426263e+00	4.332417e+00	8.486247e+00	7.766133e+00	4.388743e+00	5.379431e+00	8.257134e-01	7.995819e-01	4.694540e-01	6.668899e-01	-4.632045e-01	1.072743e+00	6.210860e-01	4.033551e-01	6.799714e+00	9.153174e-01	4.610013e+00	4.194020e-01	7.281085e-01	5.494634e-01	4.707206e+00	3.902583e+00	3.255134e+00	4.258992e-01	7.737384e-01	4.321750e+00	2.669815e+00	3.206515e-01	7.378143e+00	1.177971e+00	3.194372e+00	1.348195e+00	5.536449e+00	4.185587e+00	7.938420e-01	4.921575e+00	4.091810e+00	4.917677e+00	1.296864e+00	4.630442e+00	2.097441e+00	3.630947e+00	3.564158e+00	3.364700e+00	2.153975e+00	1.199444e+00	2.490340e+00	8.699922e+00	-9.021030e-01	3.297292e+00	-4.892099e-01	5.123494e+00	2.370329e+00	1.515554e+00	4.568862e+00	1.062820e+01	1.978807e+00	9.360628e-01	1.130042e+00	8.766834e-01	5.407823e+00	1.090307e+00	5.467834e+00	1.297390e+00	1.478056e+00	2.095412e+00	2.668805e+00	1.413747e+00	2.082939e+00	1.317196e+00	1.395189e+00	2.845774e+00	3.032050e+00	5.199300e-01	1.513769e+00	2.296147e+00	3.584982e+00	3.098638e+00	1.244617e+00	1.641241e+00	3.882361e+00	1.896277e+00	3.622097e+00	1.178908e+00	1.429066e+00	6.966837e+00	2.586338e+00	3.996709e+00	1.426875e+00	-4.940128e-01	-4.654516e-01	1.305073e-01	7.758414e+00	9.437669e+00	8.101010e+00	3.980415e+00	6.958208e+00	4.151974e+00	1.684630e+00	1.250551e+00	1.001474e+01	2.279968e+00	1.140024e+00	3.029085e+00	5.533773e+00	1.316190e-01	7.073075e-01	4.243296e+00	4.582276e-01	1.762743e+00	-2.829913e-02	-7.837552e-01	5.254889e-01	1.587366e+00	8.032356e-01	7.083621e+00	1.843622e+00	8.414446e+00	7.093956e-01	4.089794e+00	4.669509e+00	4.315519e-01	9.979912e-01	6.362987e+00	4.371520e+00	6.569724e+00	4.811192e+00	4.569904e+00	1.302413e+00	4.827444e+00	9.122582e-01	1.998530e+00	-5.057729e-01	4.599438e+00	4.459066e-02	3.376170e+00	9.101967e+00	4.929888e+00	2.897148e+00	
SCALARS Energy float 1
LOOKUP_TABLE default