# vtk DataFile Version 3.0
vtk output
ASCII
DATASET UNSTRUCTURED_GRID
POINTS 394 float
-3.000000e+00	0.000000e+00	0.0	-5.000000e-02	1.361849e-18	0.0	-4.942197e-02	1.000252e+00	0.0	5.060925e-02	1.000263e+00	0.0	5.000000e-02	-1.831284e-19	0.0	3.000000e+00	0.000000e+00	0.0	3.000000e+00	4.000000e+00	0.0	-3.000000e+00	4.000000e+00	0.0	-3.000000e+00	3.428571e+00	0.0	-3.000000e+00	2.857143e+00	0.0	-3.000000e+00	2.285714e+00	0.0	-3.000000e+00	1.714286e+00	0.0	-3.000000e+00	1.142857e+00	0.0	-3.000000e+00	5.714286e-01	0.0	-2.473871e+00	0.000000e+00	0.0	-2.029066e+00	0.000000e+00	0.0	-1.653013e+00	0.000000e+00	0.0	-1.335087e+00	0.000000e+00	0.0	-1.066302e+00	0.000000e+00	0.0	-8.390627e-01	0.000000e+00	0.0	-6.469477e-01	0.000000e+00	0.0	-4.845277e-01	0.000000e+00	0.0	-3.472127e-01	0.000000e+00	0.0	-2.311224e-01	0.000000e+00	0.0	-1.329760e-01	0.000000e+00	0.0	-4.976845e-02	7.706499e-02	0.0	-4.949371e-02	1.540089e-01	0.0	-4.927875e-02	2.308904e-01	0.0	-4.918442e-02	3.077671e-01	0.0	-4.917839e-02	3.846781e-01	0.0	-4.919876e-02	4.616201e-01	0.0	-4.922784e-02	5.385688e-01	0.0	-4.926981e-02	6.155164e-01	0.0	-4.931659e-02	6.924596e-01	0.0	-4.935645e-02	7.694076e-01	0.0	-4.939691e-02	8.463744e-01	0.0	-4.935611e-02	9.233284e-01	0.0	5.931438e-04	1.000298e+00	0.0	5.058048e-02	9.233316e-01	0.0	5.058437e-02	8.463868e-01	0.0	5.060945e-02	7.694521e-01	0.0	5.065871e-02	6.925114e-01	0.0	5.069687e-02	6.155659e-01	0.0	5.073456e-02	5.386092e-01	0.0	5.076242e-02	4.616462e-01	0.0	5.078524e-02	3.846823e-01	0.0	5.078263e-02	3.077005e-01	0.0	5.069180e-02	2.306971e-01	0.0	5.048535e-02	1.537098e-01	0.0	5.020404e-02	7.679335e-02	0.0	1.329760e-01	0.000000e+00	0.0	2.311224e-01	0.000000e+00	0.0	3.472127e-01	0.000000e+00	0.0	4.845277e-01	0.000000e+00	0.0	6.469477e-01	0.000000e+00	0.0	8.390627e-01	0.000000e+00	0.0	1.066302e+00	0.000000e+00	0.0	1.335087e+00	0.000000e+00	0.0	1.653013e+00	0.000000e+00	0.0	2.029066e+00	0.000000e+00	0.0	2.473871e+00	0.000000e+00	0.0	3.000000e+00	5.714286e-01	0.0	3.000000e+00	1.142857e+00	0.0	3.000000e+00	1.714286e+00	0.0	3.000000e+00	2.285714e+00	0.0	3.000000e+00	2.857143e+00	0.0	3.000000e+00	3.428571e+00	0.0	2.400000e+00	4.000000e+00	0.0	1.800000e+00	4.000000e+00	0.0	1.200000e+00	4.000000e+00	0.0	6.000000e-01	4.000000e+00	0.0	0.000000e+00	4.000000e+00	0.0	-6.000000e-01	4.000000e+00	0.0	-1.200000e+00	4.000000e+00	0.0	-1.800000e+00	4.000000e+00	0.0	-2.400000e+00	4.000000e+00	0.0	-1.095548e-01	8.878076e-01	0.0	1.209365e-01	8.883064e-01	0.0	-1.483859e+00	2.494192e-01	0.0	1.500259e+00	2.278351e-01	0.0	1.151376e-01	5.734187e-01	0.0	-1.166173e-01	5.769231e-01	0.0	-7.468484e-01	1.615795e-01	0.0	7.467660e-01	1.592205e-01	0.0	-2.588894e+00	2.076202e+00	0.0	2.516144e+00	1.947581e+00	0.0	-9.330139e-01	3.509250e+00	0.0	9.096046e-01	3.461623e+00	0.0	1.171758e-01	3.453095e-01	0.0	-1.176381e-01	3.461538e-01	0.0	-4.145464e-01	1.102721e-01	0.0	4.158702e-01	1.097277e-01	0.0	1.211039e-01	7.285624e-01	0.0	-1.166173e-01	7.307692e-01	0.0	1.217259e-01	1.951647e-01	0.0	-1.219004e-01	1.949409e-01	0.0	2.523336e+00	8.167529e-01	0.0	-2.505450e+00	7.859659e-01	0.0	-2.060813e+00	3.451225e+00	0.0	2.063561e+00	3.439799e+00	0.0	-1.839749e-01	7.462933e-02	0.0	1.839181e-01	7.485312e-02	0.0	2.223383e+00	3.988647e-01	0.0	-2.251469e+00	3.554420e-01	0.0	2.464585e+00	1.408185e+00	0.0	2.084360e+00	1.715536e+00	0.0	2.062368e+00	2.119428e+00	0.0	1.717456e+00	1.868364e+00	0.0	1.703162e+00	1.478255e+00	0.0	1.404436e+00	1.673942e+00	0.0	1.379059e+00	2.011826e+00	0.0	1.122275e+00	1.805700e+00	0.0	1.133471e+00	1.514067e+00	0.0	8.972874e-01	1.623762e+00	0.0	9.058741e-01	1.383676e+00	0.0	6.842001e-01	1.452796e+00	0.0	6.646868e-01	1.702928e+00	0.0	4.770905e-01	1.555424e+00	0.0	4.540791e-01	1.782960e+00	0.0	2.815546e-01	1.663644e+00	0.0	2.468385e-01	1.874145e+00	0.0	8.495255e-02	1.739613e+00	0.0	3.220584e-02	1.963777e+00	0.0	-1.420447e-01	1.783981e+00	0.0	7.288711e-01	1.245864e+00	0.0	1.077857e+00	2.136341e+00	0.0	2.551298e-01	2.138445e+00	0.0	8.954243e-01	1.142527e+00	0.0	7.229085e-01	1.059814e+00	0.0	-2.030321e-01	2.067609e+00	0.0	-4.089797e-01	1.894294e+00	0.0	-3.445145e-01	1.614442e+00	0.0	-6.150363e-01	1.721608e+00	0.0	-5.614456e-01	1.469073e+00	0.0	-8.152713e-01	1.551780e+00	0.0	-8.412690e-01	1.795758e+00	0.0	-7.621668e-01	1.289715e+00	0.0	-1.026166e+00	1.376679e+00	0.0	5.786315e-01	1.133181e+00	0.0	5.729769e-01	9.679372e-01	0.0	7.172900e-01	8.817742e-01	0.0	-4.706077e-01	2.183860e+00	0.0	5.679375e-01	7.985285e-01	0.0	1.228546e-01	1.518204e+00	0.0	2.279691e-02	1.047289e+00	0.0	8.320521e-02	1.041063e+00	0.0	5.033468e-02	1.101913e+00	0.0	1.219691e-01	1.104509e+00	0.0	-2.270250e-01	2.375087e+00	0.0	-9.617590e-01	1.108784e+00	0.0	-1.245187e+00	1.191051e+00	0.0	-7.079931e-01	1.027579e+00	0.0	-9.221295e-01	8.266544e-01	0.0	-6.775202e-01	7.984572e-01	0.0	-1.312202e+00	1.494832e+00	0.0	7.101723e-01	7.094472e-01	0.0	8.684597e-01	7.881516e-01	0.0	5.583553e-01	6.419675e-01	0.0	-3.558236e-01	1.362627e+00	0.0	1.348529e+00	2.364476e+00	0.0	-2.630234e-02	1.090302e+00	0.0	1.117829e-02	1.167717e+00	0.0	1.571133e-01	1.029943e+00	0.0	2.071370e-01	1.104065e+00	0.0	1.597519e-01	1.182734e+00	0.0	2.496705e-01	1.015521e+00	0.0	8.544827e-01	6.108496e-01	0.0	1.047555e+00	6.998655e-01	0.0	-7.847310e-02	1.158033e+00	0.0	-5.171348e-01	9.204152e-01	0.0	-4.863658e-01	7.410581e-01	0.0	-6.210221e-01	6.162069e-01	0.0	-4.304165e-01	5.790980e-01	0.0	-1.561645e+00	1.283922e+00	0.0	2.721982e-01	1.192937e+00	0.0	-5.279951e-01	2.507900e+00	0.0	-2.485216e-01	2.731250e+00	0.0	4.318698e-01	7.203270e-01	0.0	4.233758e-01	5.725091e-01	0.0	-3.335265e-02	1.251950e+00	0.0	5.424962e-01	4.927149e-01	0.0	4.112126e-01	4.303540e-01	0.0	1.018241e+00	2.500118e+00	0.0	-1.633552e+00	1.628891e+00	0.0	1.309393e+00	2.745135e+00	0.0	5.177841e-01	3.509866e-01	0.0	1.029850e+00	4.328609e-01	0.0	-1.477416e+00	9.899497e-01	0.0	-5.601504e-01	4.553761e-01	0.0	-7.270539e-01	4.819428e-01	0.0	-4.090902e-01	4.203457e-01	0.0	-3.522791e-01	8.700653e-01	0.0	-3.889332e-01	1.027066e+00	0.0	-1.995353e+00	1.406583e+00	0.0	3.058598e-01	6.525576e-01	0.0	3.242700e-01	7.890326e-01	0.0	6.642582e-01	4.078662e-01	0.0	-3.050955e-01	5.085933e-01	0.0	6.073747e-01	1.962519e+00	0.0	1.224429e+00	6.011520e-01	0.0	1.250184e+00	8.250911e-01	0.0	1.457536e+00	6.770896e-01	0.0	1.491338e+00	9.566090e-01	0.0	1.773625e+00	8.129378e-01	0.0	2.073828e-01	1.286702e+00	0.0	3.329952e-01	1.291810e+00	0.0	-5.121868e-01	3.061387e-01	0.0	-5.380612e-01	1.261514e+00	0.0	-7.924608e-01	2.286933e+00	0.0	-8.696866e-01	2.652326e+00	0.0	-1.158131e+00	2.423026e+00	0.0	-1.242246e+00	2.799469e+00	0.0	-1.611716e+00	2.457963e+00	0.0	-2.704602e-01	3.766037e-01	0.0	-1.427840e-01	1.240183e+00	0.0	-1.014268e-01	1.353312e+00	0.0	-1.763546e-01	1.137806e+00	0.0	8.783725e-02	2.565590e+00	0.0	1.029681e-01	3.019180e+00	0.0	4.272249e-01	2.781426e+00	0.0	-1.361638e+00	1.838642e+00	0.0	4.419215e-01	1.044947e+00	0.0	-3.108847e-01	3.147482e+00	0.0	-3.376796e-01	7.131312e-01	0.0	3.905654e-01	2.971765e-01	0.0	2.782915e-01	3.728023e-01	0.0	2.712444e-01	2.590314e-01	0.0	-1.115764e-01	1.077712e+00	0.0	-1.918797e-01	1.038577e+00	0.0	1.672005e+00	2.603574e+00	0.0	1.351136e+00	1.368437e+00	0.0	2.442785e+00	2.509530e+00	0.0	8.886710e-01	2.913113e+00	0.0	-1.697169e+00	2.000053e+00	0.0	2.897750e-01	5.099332e-01	0.0	1.971068e-01	4.461399e-01	0.0	1.204570e+00	2.088856e-01	0.0	-2.509004e-01	7.997219e-01	0.0	-2.031816e-01	4.612449e-01	0.0	3.587496e-01	3.516320e+00	0.0	-3.683082e-01	2.897439e-01	0.0	-2.513200e-01	2.632515e-01	0.0	4.269022e-01	8.903973e-01	0.0	2.109340e+00	1.080852e+00	0.0	-1.676617e+00	3.018022e+00	0.0	-2.026846e+00	2.666903e+00	0.0	2.607158e-01	1.407890e+00	0.0	-2.493719e+00	1.295472e+00	0.0	5.091525e-01	1.363902e+00	0.0	-1.195527e+00	2.199189e-01	0.0	-1.314128e+00	4.697507e-01	0.0	-1.599290e+00	5.224038e-01	0.0	-1.044962e+00	4.332833e-01	0.0	-1.153999e+00	6.810762e-01	0.0	1.631869e+00	3.047538e+00	0.0	-1.479044e-01	1.589819e+00	0.0	3.069713e-01	9.091070e-01	0.0	-2.594272e-01	1.222158e+00	0.0	-2.468802e-01	8.922655e-01	0.0	2.148670e-01	8.375987e-01	0.0	-2.166457e-01	6.824956e-01	0.0	-5.613393e-01	1.604002e-01	0.0	5.664728e-01	1.255855e-01	0.0	9.638304e-01	2.045637e-01	0.0	-9.533785e-01	1.895011e-01	0.0	1.826954e+00	2.785964e-01	0.0	2.921698e-01	9.086346e-02	0.0	-2.840612e-01	9.229685e-02	0.0	-1.490751e+00	3.525634e+00	0.0	2.972107e-02	1.367432e+00	0.0	2.519001e+00	3.105668e+00	0.0	2.275446e-01	5.821961e-01	0.0	-1.832465e+00	2.953506e-01	0.0	-1.977202e+00	6.768975e-01	0.0	1.295565e+00	1.090381e+00	0.0	2.060326e-01	6.790669e-01	0.0	1.924197e-01	9.403358e-01	0.0	7.418665e-01	2.245468e+00	0.0	-2.532269e+00	2.524420e+00	0.0	1.437226e+00	3.516627e+00	0.0	-2.189186e-01	5.745803e-01	0.0	1.089458e-01	9.704541e-01	0.0	-2.461547e+00	3.076565e+00	0.0	-1.130174e-01	8.082243e-01	0.0	8.204452e-01	3.206647e-01	0.0	4.156693e-01	2.424846e+00	0.0	-8.275684e-01	3.222250e-01	0.0	-1.166173e-01	6.538462e-01	0.0	1.240439e-01	8.065138e-01	0.0	-2.154304e+00	1.044185e+00	0.0	1.166173e-01	6.538462e-01	0.0	-1.258892e-01	5.059709e-01	0.0	1.175714e-01	4.975748e-01	0.0	1.048701e+00	9.459876e-01	0.0	1.186418e-01	4.187835e-01	0.0	-1.166173e-01	2.692308e-01	0.0	1.166173e-01	2.692308e-01	0.0	1.911633e-01	3.076923e-01	0.0	-1.230149e-01	4.240231e-01	0.0	2.168732e-01	1.650969e-01	0.0	-2.130153e-01	1.684055e-01	0.0	-8.055871e-01	6.334177e-01	0.0	-2.811060e-01	1.101705e+00	0.0	2.114262e+00	7.400841e-01	0.0	4.281373e-01	1.193306e+00	0.0	1.771809e+00	1.153906e+00	0.0	-2.500000e-02	1.043301e+00	0.0	6.913395e-01	5.556832e-01	0.0	-6.558579e-01	3.146104e-01	0.0	1.873560e-01	7.692308e-01	0.0	-1.213880e-01	1.006983e+00	0.0	1.155948e-01	1.153846e-01	0.0	-1.169921e-01	1.167516e-01	0.0	-1.947655e+00	1.778423e+00	0.0	-2.086024e+00	2.166615e+00	0.0	-5.187853e-01	1.093553e+00	0.0	-9.145482e-01	3.061229e+00	0.0	6.700572e-02	1.250202e+00	0.0	1.105028e+00	1.240846e+00	0.0	-5.835849e-01	2.893561e+00	0.0	8.505567e-01	9.636509e-01	0.0	6.983346e-01	2.572994e+00	0.0	5.374437e-01	3.138332e+00	0.0	-1.194511e+00	9.174719e-01	0.0	2.057508e+00	2.866260e+00	0.0	1.249515e+0
[...]
POINT_DATA 394

SCALARS Density float 1
LOOKUP_TABLE default
1.223758e+00	1.223976e+00	1.222570e+00	1.222511e+00	1.223571e+00	1.223818e+00	1.223241e+00	1.223612e+00	1.223593e+00	1.223609e+00	1.223658e+00	1.223691e+00	1.223770e+00	1.223776e+00	1.223789e+00	1.223769e+00	1.223805e+00	1.223829e+00	1.223868e+00	1.223892e+00	1.223916e+00	1.223954e+00	1.223938e+00	1.223995e+00	1.223937e+00	1.224003e+00	1.223939e+00	1.223956e+00	1.223958e+00	1.223947e+00	1.223941e+00	1.223902e+00	1.223912e+00	1.223803e+00	1.223907e+00	1.223064e+00	1.224999e+00	1.220434e+00	1.223971e+00	1.223497e+00	1.223594e+00	1.223499e+00	1.223451e+00	1.223415e+00	1.223416e+00	1.223424e+00	1.223454e+00	1.223487e+00	1.223431e+00	1.223677e+00	1.223438e+00	1.223561e+00	1.223470e+00	1.223402e+00	1.223356e+00	1.223325e+00	1.223232e+00	1.223287e+00	1.223283e+00	1.223411e+00	1.222943e+00	1.223535e+00	1.223199e+00	1.222986e+00	1.222855e+00	1.222945e+00	1.223082e+00	1.223100e+00	1.223220e+00	1.223262e+00	1.223350e+00	1.223410e+00	1.223495e+00	1.223554e+00	1.223592e+00	1.223594e+00	1.223590e+00	1.223661e+00	1.223815e+00	1.223221e+00	1.223469e+00	1.223889e+00	1.223875e+00	1.223326e+00	1.223657e+00	1.223305e+00	1.223526e+00	1.223302e+00	1.223451e+00	1.223940e+00	1.223937e+00	1.223444e+00	1.223590e+00	1.223761e+00	1.223546e+00	1.223964e+00	1.223070e+00	1.223761e+00	1.223617e+00	1.223107e+00	1.223963e+00	1.223541e+00	1.223329e+00	1.223756e+00	1.222997e+00	1.222986e+00	1.223132e+00	1.223120e+00	1.223087e+00	1.223061e+00	1.223040e+00	1.223264e+00	1.222967e+00	1.222977e+00	1.223013e+00	1.223173e+00	1.222923e+00	1.223212e+00	1.223141e+00	1.223245e+00	1.223200e+00	1.223242e+00	1.223468e+00	1.223348e+00	1.223205e+00	1.223023e+00	1.223268e+00	1.222993e+00	1.223215e+00	1.223433e+00	1.223533e+00	1.223551e+00	1.223496e+00	1.223649e+00	1.223701e+00	1.223597e+00	1.223702e+00	1.223681e+00	1.223291e+00	1.223289e+00	1.223330e+00	1.223553e+00	1.223373e+00	1.223240e+00	1.222584e+00	1.222414e+00	1.222790e+00	1.223150e+00	1.223426e+00	1.223745e+00	1.223745e+00	1.223805e+00	1.223795e+00	1.223826e+00	1.223701e+00	1.223260e+00	1.223102e+00	1.223359e+00	1.223548e+00	1.223195e+00	1.222322e+00	1.223132e+00	1.223251e+00	1.223142e+00	1.222880e+00	1.223364e+00	1.223271e+00	1.223181e+00	1.222995e+00	1.223789e+00	1.223792e+00	1.223858e+00	1.223843e+00	1.223706e+00	1.223009e+00	1.223507e+00	1.223483e+00	1.223481e+00	1.223410e+00	1.223128e+00	1.223350e+00	1.223407e+00	1.223267e+00	1.223687e+00	1.223141e+00	1.223449e+00	1.223109e+00	1.223766e+00	1.223891e+00	1.223899e+00	1.223915e+00	1.223810e+00	1.223688e+00	1.223723e+00	1.223448e+00	1.223474e+00	1.223293e+00	1.223945e+00	1.223329e+00	1.223067e+00	1.223195e+00	1.222976e+00	1.222982e+00	1.223073e+00	1.223017e+00	1.222997e+00	1.223968e+00	1.223634e+00	1.223550e+00	1.223536e+00	1.223606e+00	1.223577e+00	1.223647e+00	1.223940e+00	1.223216e+00	1.223461e+00	1.223477e+00	1.223361e+00	1.223385e+00	1.223409e+00	1.223654e+00	1.223228e+00	1.223413e+00	1.223900e+00	1.223415e+00	1.223425e+00	1.223453e+00	1.223603e+00	1.222995e+00	1.223078e+00	1.222948e+00	1.223306e+00	1.223288e+00	1.223672e+00	1.223468e+00	1.223407e+00	1.223054e+00	1.223834e+00	1.223953e+00	1.223406e+00	1.223898e+00	1.223961e+00	1.223354e+00	1.222992e+00	1.223570e+00	1.223608e+00	1.222757e+00	1.223704e+00	1.223132e+00	1.223847e+00	1.223882e+00	1.223745e+00	1.223846e+00	1.223791e+00	1.223257e+00	1.223507e+00	1.223446e+00	1.223416e+00	1.223774e+00	1.223593e+00	1.223861e+00	1.223953e+00	1.223394e+00	1.223282e+00	1.223877e+00	1.223035e+00	1.223555e+00	1.223984e+00	1.223565e+00	1.223102e+00	1.223155e+00	1.223505e+00	1.223809e+00	1.223749e+00	1.223051e+00	1.223469e+00	1.223325e+00	1.223214e+00	1.223651e+00	1.223226e+00	1.223844e+00	1.223426e+00	1.223635e+00	1.223959e+00	1.223273e+00	1.223335e+00	1.223879e+00	1.223927e+00	1.223639e+00	1.223723e+00	1.223539e+00	1.223912e+00	1.223446e+00	1.223122e+00	1.223452e+00	1.223959e+00	1.223467e+00	1.223448e+00	1.223915e+00	1.223422e+00	1.223978e+00	1.223864e+00	1.223666e+00	1.223033e+00	1.223141e+00	1.223337e+00	1.222621e+00	1.223336e+00	1.223947e+00	1.223453e+00	1.223534e+00	1.223480e+00	1.223956e+00	1.223669e+00	1.223671e+00	1.223736e+00	1.223531e+00	1.222889e+00	1.223150e+00	1.223485e+00	1.223114e+00	1.223234e+00	1.223292e+00	1.223824e+00	1.223302e+00	1.223229e+00	1.223948e+00	1.223599e+00	1.223517e+00	1.223071e+00	1.223596e+00	1.223229e+00	1.223180e+00	1.223910e+00	1.223352e+00	1.223348e+00	1.223411e+00	1.223372e+00	1.223788e+00	1.223294e+00	1.223305e+00	1.223661e+00	1.223295e+00	1.223777e+00	1.223361e+00	1.222542e+00	1.223803e+00	1.223798e+00	1.223463e+00	1.223452e+00	1.222917e+00	1.223674e+00	1.223167e+00	1.223630e+00	1.223906e+00	1.224975e+00	1.223962e+00	1.223778e+00	1.223421e+00	1.223286e+00	1.223576e+00	1.223432e+00	1.223915e+00	1.223029e+00	1.223950e+00	1.223206e+00	1.223127e+00	1.223606e+00	1.223225e+00	1.223594e+00	1.223334e+00	1.223856e+00	1.223886e+00	1.223724e+00	1.223403e+00	1.223394e+00	1.223984e+00	1.223610e+00	1.223486e+00	1.223134e+00	1.223662e+00	1.222933e+00	1.223496e+00	1.223159e+00	1.223416e+00	1.223490e+00	1.223811e+00	1.223030e+00	1.223532e+00	1.222849e+00	1.223318e+00	1.222893e+00	1.223756e+00	1.223036e+00	
SCALARS X-Momentum float 1
LOOKUP_TABLE default
7.882584e+00	2.033899e-01	4.163985e+00	7.986033e-04	-6.602014e-01	-5.222419e+00	1.641011e+01	1.001832e+01	9.844238e+00	9.580722e+00	9.256432e+00	8.878192e+00	8.503169e+00	8.134080e+00	7.688205e+00	7.321565e+00	6.770214e+00	6.092412e+00	5.342939e+00	4.526385e+00	3.672787e+00	2.892414e+00	2.085350e+00	1.355870e+00	7.008570e-01	-3.324094e-02	-3.292919e-03	3.190475e-02	3.458967e-02	2.824605e-02	2.017992e-02	1.633947e-02	1.558430e-03	8.939671e-03	-4.454492e-02	-1.483351e-02	-3.722355e-01	3.414831e+00	2.200189e-01	4.464962e-02	5.215354e-02	2.650585e-02	2.634111e-02	3.663334e-02	3.324035e-02	2.438069e-02	3.176518e-02	2.166576e-02	4.189806e-02	8.049106e-02	-2.024033e+00	-3.624328e+00	-5.000928e+00	-6.278088e+00	-7.338375e+00	-8.118042e+00	-8.688770e+00	-8.944847e+00	-8.417264e+00	-7.566313e+00	-6.725948e+00	-1.530375e+00	3.880570e+00	9.388763e+00	1.357337e+01	1.579471e+01	1.647183e+01	1.578012e+01	1.489738e+01	1.391422e+01	1.307141e+01	1.234146e+01	1.166418e+01	1.104557e+01	1.053528e+01	1.018782e+01	3.735437e-01	7.613643e-01	6.612344e+00	-6.138528e+00	6.455786e-02	7.270247e-01	4.254039e+00	-5.973965e+00	9.151185e+00	1.206565e+01	1.114906e+01	1.389217e+01	-3.925282e-01	6.301916e-01	2.458996e+00	-4.501173e+00	3.907475e-01	7.550724e-01	-7.386050e-01	5.403884e-01	5.984297e-01	8.139459e+00	1.014064e+01	1.563170e+01	9.472090e-01	-2.174545e+00	-3.515127e+00	7.718130e+00	6.911035e+00	1.065192e+01	1.385316e+01	1.276471e+01	8.855859e+00	1.163634e+01	1.426878e+01	1.337061e+01	1.037955e+01	1.211222e+01	8.881689e+00	1.040610e+01	1.331617e+01	1.223138e+01	1.388041e+01	1.328216e+01	1.376882e+01	1.310376e+01	1.298434e+01	1.203031e+01	7.071773e+00	1.495302e+01	1.367799e+01	5.384500e+00	4.206891e+00	1.198419e+01	1.100330e+01	1.060625e+01	9.967911e+00	9.222321e+00	9.103122e+00	9.684165e+00	8.134496e+00	8.427063e+00	5.118509e+00	2.756700e+00	1.924288e+00	1.117753e+01	1.024113e+00	1.253980e+01	4.253660e+00	2.286169e+00	5.721853e+00	4.373508e+00	1.198952e+01	7.526295e+00	7.977769e+00	6.864425e+00	6.456717e+00	5.627183e+00	8.669920e+00	3.140563e-02	8.027012e-01	-3.798309e-01	9.416990e+00	1.536968e+01	7.560588e+00	8.736856e+00	2.068094e+00	4.056658e+00	6.857602e+00	2.339825e+00	-1.373441e+00	-6.007698e-01	9.238763e+00	5.672214e+00	4.453451e+00	4.646825e+00	3.419009e+00	8.303877e+00	6.381801e+00	1.128490e+01	1.197282e+01	4.720569e-01	-5.726164e-01	1.053057e+01	-1.627084e+00	-1.559726e+00	1.514611e+01	8.860908e+00	1.528956e+01	-2.753219e+00	-3.528151e+00	7.692912e+00	3.882495e+00	4.722497e+00	2.892361e+00	4.180811e+00	5.947005e+00	8.553953e+00	2.070148e-01	9.695771e-01	-2.878019e+00	2.336047e+00	1.445185e+01	-1.907431e+00	8.482123e-01	-1.109136e+00	2.345053e+00	5.072095e-01	9.326042e+00	8.885061e+00	3.280716e+00	8.108133e+00	1.058006e+01	1.080326e+01	1.020366e+01	1.042218e+01	9.826905e+00	1.864147e+00	9.945799e+00	1.114310e+01	8.125872e+00	1.283926e+01	1.267119e+01	1.363279e+01	9.271551e+00	3.460222e+00	1.189877e+01	3.162135e+00	-2.417021e+00	-1.258159e+00	-1.846093e+00	7.365795e+00	5.549005e+00	1.555702e+01	8.067489e+00	1.510914e+01	1.444820e+01	9.334253e+00	-5.633745e-01	-5.094793e-01	-6.385902e+00	2.589400e+00	1.479366e+00	1.293121e+01	2.410823e+00	1.561330e+00	1.718687e+00	3.453570e+00	1.015461e+01	9.735099e+00	1.121033e+01	8.546195e+00	9.513151e+00	5.923859e+00	6.503746e+00	7.115674e+00	5.767306e+00	6.517982e+00	1.536613e+01	1.170389e+01	1.583666e+00	8.829151e+00	3.056822e+00	1.010601e+00	1.838012e+00	3.343940e+00	-5.389579e+00	-6.175862e+00	5.128607e+00	-5.224344e+00	-3.409126e+00	1.637321e+00	1.058308e+01	1.166490e+01	1.612990e+01	-4.403727e-03	7.236945e+00	7.727506e+00	4.385679e+00	3.880120e-01	1.351033e+00	1.480520e+01	9.463702e+00	1.474845e+01	1.638889e+00	8.227996e-01	9.796072e+00	7.038889e-01	-4.304568e+00	1.391518e+01	4.870521e+00	7.558040e-01	5.386960e-01	8.201044e+00	2.153851e-01	7.871589e-01	-1.073491e-01	2.736863e+00	-2.562698e-01	5.668967e-01	-5.341280e-01	-9.973061e-01	7.154001e-01	-1.922914e+00	1.146396e+00	5.457981e+00	6.899924e+00	-2.505437e-01	6.276039e+00	4.718652e+00	6.448399e+00	-1.543367e+00	4.056323e+00	7.040644e-01	4.376394e+00	-9.054849e-01	4.849047e-01	9.005986e+00	9.331514e+00	6.916062e+00	1.097507e+01	9.741513e+00	6.664278e+00	1.137851e+01	2.930976e+00	1.453578e+01	1.347880e+01	7.222291e+00	1.575980e+01	1.478614e+01	1.206893e+00	1.033894e+01	1.179381e+01	1.489344e+01	9.844741e+00	3.909368e+00	1.426031e+01	1.975947e+00	-3.754345e+00	1.437491e+01	-3.018100e+00	1.278800e+01	8.007148e+00	-4.208004e+00	1.200468e+01	9.163189e+00	2.416537e+00	7.090530e+00	-3.149239e+00	-3.729197e+00	7.931411e+00	1.612001e+00	2.503631e+00	1.018223e+01	7.279501e+00	7.694812e+00	1.089625e+01	9.708573e+00	2.753382e+00	1.338008e+00	1.144972e+00	7.539050e+00	-1.202509e+00	1.146312e+01	9.973929e+00	1.229499e+01	2.538230e+00	1.617582e+01	9.889219e-01	-3.983790e+00	-2.307076e+00	9.937162e+00	-2.779133e+00	1.062946e+01	1.091914e+01	5.339084e+00	4.724551e+00	8.906646e+00	-6.783323e-01	-1.580952e-01	4.091003e-01	-1.013987e+00	1.255754e+01	1.420338e+01	1.475486e+00	1.232180e+01	7.511396e+00	1.538052e+01	1.460242e-01	1.143654e+01	5.909532e+00	7.293408e+00	6.998449e-01	5.579858e+00	1.328570e+01	7.004458e+00	1.257471e+00	7.704765e+00	
SCALARS Y-Momentum float 1
LOOKUP_TABLE default
-2.624452e-02	2.007497e-01	7.433988e+00	6.196463e-01	6.367621e-01	2.232299e-01	6.211834e-02	-1.402872e-02	2.407095e-02	5.645549e-02	7.983400e-02	1.040780e-01	9.197306e-02	2.507732e-02	-4.194782e-03	2.624307e-04	5.226441e-03	2.920222e-03	8.784934e-03	1.002123e-02	-9.520167e-03	7.096851e-04	-2.986425e-03	6.766525e-03	-1.597608e-02	6.326525e-01	1.138796e+00	1.686137e+00	2.328419e+00	3.025206e+00	3.758261e+00	4.517371e+00	5.322924e+00	6.199195e+00	6.997885e+00	7.397031e+00	8.240288e+00	-4.508023e-01	2.856174e+00	3.726066e+00	4.450006e+00	4.917788e+00	5.190790e+00	5.290807e+00	5.182444e+00	4.868183e+00	4.387348e+00	3.719426e+00	2.880241e+00	1.800159e+00	-7.600566e-03	2.541708e-02	3.004838e-02	1.338672e-02	1.127920e-02	2.375548e-02	2.425445e-02	1.334395e-03	-5.731610e-02	-7.681705e-02	-9.573140e-02	-5.212124e-01	-6.202282e-01	-3.070930e-01	3.206652e-01	6.204738e-01	4.071576e-01	1.713552e-02	6.779369e-03	-3.202785e-03	-3.704907e-02	-2.333145e-02	-2.851077e-03	-5.018191e-03	5.110387e-03	-1.299876e-03	8.274449e+00	3.887972e+00	5.165814e-01	-2.781633e-01	4.997775e+00	4.748228e+00	7.159868e-01	6.624294e-01	4.658296e-01	7.582209e-02	5.368094e-01	8.515050e-01	4.251125e+00	2.587220e+00	6.613730e-01	9.491563e-01	4.709036e+00	6.343869e+00	2.965839e+00	1.401852e+00	-8.697948e-01	3.907089e-01	3.139512e-01	7.796056e-01	4.887078e-01	1.086182e+00	-6.492491e-01	2.908098e-01	-6.160570e-01	-5.129150e-02	7.357127e-01	8.605367e-01	1.171818e-01	1.085517e+00	1.797824e+00	2.110792e+00	1.474616e+00	2.485711e+00	2.001135e+00	2.977562e+00	3.561072e+00	4.143112e+00	4.478705e+00	5.103547e+00	4.865404e+00	5.584287e+00	4.656612e+00	5.359012e+00	2.391179e+00	2.585177e+00	4.028596e+00	1.803668e+00	2.430070e+00	3.964663e+00	4.134498e+00	5.563334e+00	4.001725e+00	4.858523e+00	3.553266e+00	3.078089e+00	4.021501e+00	2.912397e+00	2.863040e+00	3.152167e+00	2.607403e+00	3.080822e+00	3.347440e+00	5.807670e+00	1.392317e+00	1.915527e+00	2.934739e+00	2.813638e+00	2.872111e+00	3.010249e+00	2.281136e+00	4.110247e+00	2.713120e+00	3.597111e+00	2.179171e+00	2.578613e+00	1.878726e+00	3.198382e+00	6.792223e+00	2.050710e+00	5.821398e+00	5.582584e+00	3.149739e+00	3.414357e+00	3.760608e+00	3.803568e+00	1.678521e+00	9.377026e-01	8.432480e+00	5.143523e+00	4.394617e+00	3.091482e+00	3.586751e+00	1.695797e+00	3.586775e+00	2.219089e+00	1.935564e+00	3.963866e+00	3.684524e+00	7.445766e+00	2.829689e+00	3.209606e+00	2.448709e+00	1.590116e+00	1.855871e+00	2.271424e+00	7.080012e-01	1.665071e+00	2.458181e+00	2.138789e+00	2.585491e+00	6.415412e+00	7.119323e+00	1.116191e+00	4.394568e+00	4.437379e+00	1.942356e+00	3.437038e+00	3.825884e+00	2.265266e-01	3.098765e-01	-2.046099e-01	-2.365897e-01	-7.426652e-01	4.335197e+00	3.783297e+00	1.732790e+00	5.482381e+00	2.344884e+00	1.686946e+00	1.748994e+00	1.231062e+00	1.229467e+00	2.534791e+00	8.850717e+00	7.888703e+00	9.833225e+00	2.614815e+00	1.487066e+00	2.193879e+00	1.974540e+00	3.452645e+00	1.137438e+00	5.042690e+00	2.562502e+00	3.557418e+00	2.825291e+00	9.805316e+00	1.032957e+01	1.616589e+00	6.051364e-01	8.423844e-01	1.851652e+00	1.416682e+00	4.112981e+00	4.365995e+00	1.052380e-01	6.555932e+00	3.391009e+00	6.915134e-01	1.815454e+00	1.749711e+00	3.949738e+00	-9.267982e-01	7.599398e-01	7.209575e-01	4.720603e+00	5.492308e-01	3.356767e+00	6.021470e-01	1.120553e+00	9.150921e-01	1.357197e+00	1.798729e+00	1.369753e+00	6.452224e+00	4.294396e+00	8.687007e+00	8.045806e+00	4.447002e+00	5.424188e+00	8.228263e-01	8.040743e-01	4.559516e-01	6.736316e-01	-4.821596e-01	1.095317e+00	6.007990e-01	4.087231e-01	6.689070e+00	8.991349e-01	4.627839e+00	4.279752e-01	7.445932e-01	4.728004e-01	4.738656e+00	3.992611e+00	3.213200e+00	4.348898e-01	7.616144e-01	4.320274e+00	3.086166e+00	3.266717e-01	7.334541e+00	1.158155e+00	3.165731e+00	1.364381e+00	5.480183e+00	4.341757e+00	8.125960e-01	4.923296e+00	4.003977e+00	4.898471e+00	1.210499e+00	4.641362e+00	1.968317e+00	3.705030e+00	3.610978e+00	3.249626e+00	2.205133e+00	1.145936e+00	2.552214e+00	9.029299e+00	-9.357376e-01	3.254631e+00	-5.444433e-01	3.968409e+00	2.329225e+00	1.525932e+00	4.626407e+00	1.067649e+01	2.053878e+00	8.631869e-01	1.155079e+00	8.951524e-01	5.654071e+00	1.102945e+00	5.301030e+00	1.214925e+00	1.491049e+00	1.998584e+00	2.635733e+00	1.398073e+00	2.138833e+00	1.292798e+00	1.372489e+00	2.775882e+00	3.091578e+00	5.221869e-01	1.473956e+00	2.345754e+00	3.569824e+00	3.046412e+00	1.217921e+00	1.654220e+00	3.843074e+00	1.926462e+00	3.616834e+00	1.206858e+00	1.426192e+00	6.937893e+00	2.654623e+00	3.942576e+00	1.459513e+00	-5.312685e-01	-4.734303e-01	1.337111e-01	7.884101e+00	9.667139e+00	8.200279e+00	3.845990e+00	7.245303e+00	4.102062e+00	1.719045e+00	1.239888e+00	1.006323e+01	2.199531e+00	1.166188e+00	3.089811e+00	5.444394e+00	1.339445e-01	7.060527e-01	4.299079e+00	4.514401e-01	1.680758e+00	-6.880798e-02	-8.165181e-01	5.344851e-01	1.550997e+00	8.137134e-01	7.149790e+00	1.878407e+00	8.778776e+00	7.256790e-01	4.120842e+00	4.675398e+00	3.960388e-01	1.039458e+00	6.343154e+00	4.329966e+00	6.663818e+00	4.752081e+00	4.763152e+00	1.270529e+00	4.834842e+00	9.193273e-01	2.045091e+00	-5.507928e-01	4.625886e+00	-2.144793e-02	3.357593e+00	8.440203e+00	4.925056e+00	2.832867e+00	
SCALARS Energy float 1
LOOKUP_TABLE default