# vtk DataFile Version 3.0
vtk output
ASCII
DATASET UNSTRUCTURED_GRID
POINTS 394 float
-3.000000e+00	0.000000e+00	0.0	-5.000000e-02	4.441320e-18	0.0	-4.665977e-02	1.000522e+00	0.0	5.337761e-02	1.000702e+00	0.0	5.000000e-02	-3.302408e-19	0.0	3.000000e+00	0.000000e+00	0.0	3.000000e+00	4.000000e+00	0.0	-3.000000e+00	4.000000e+00	0.0	-3.000000e+00	3.428571e+00	0.0	-3.000000e+00	2.857143e+00	0.0	-3.000000e+00	2.285714e+00	0.0	-3.000000e+00	1.714286e+00	0.0	-3.000000e+00	1.142857e+00	0.0	-3.000000e+00	5.714286e-01	0.0	-2.473871e+00	0.000000e+00	0.0	-2.029066e+00	0.000000e+00	0.0	-1.653013e+00	0.000000e+00	0.0	-1.335087e+00	0.000000e+00	0.0	-1.066302e+00	0.000000e+00	0.0	-8.390627e-01	0.000000e+00	0.0	-6.469477e-01	0.000000e+00	0.0	-4.845277e-01	0.000000e+00	0.0	-3.472127e-01	0.000000e+00	0.0	-2.311224e-01	0.000000e+00	0.0	-1.329760e-01	0.000000e+00	0.0	-4.941159e-02	7.741596e-02	0.0	-4.846004e-02	1.545862e-01	0.0	-4.737907e-02	2.315642e-01	0.0	-4.642178e-02	3.084171e-01	0.0	-4.572692e-02	3.852121e-01	0.0	-4.534852e-02	4.619909e-01	0.0	-4.527397e-02	5.387978e-01	0.0	-4.543604e-02	6.156614e-01	0.0	-4.573701e-02	6.925875e-01	0.0	-4.605956e-02	7.695680e-01	0.0	-4.633880e-02	8.465849e-01	0.0	-4.646299e-02	9.235839e-01	0.0	3.357043e-03	1.000654e+00	0.0	5.346568e-02	9.237731e-01	0.0	5.363955e-02	8.468532e-01	0.0	5.389138e-02	7.699355e-01	0.0	5.421847e-02	6.929700e-01	0.0	5.450940e-02	6.159382e-01	0.0	5.467425e-02	5.388399e-01	0.0	5.460436e-02	4.616903e-01	0.0	5.422640e-02	3.845196e-01	0.0	5.353391e-02	3.073672e-01	0.0	5.258237e-02	2.302800e-01	0.0	5.150517e-02	1.533199e-01	0.0	5.053689e-02	7.654036e-02	0.0	1.329760e-01	0.000000e+00	0.0	2.311224e-01	0.000000e+00	0.0	3.472127e-01	0.000000e+00	0.0	4.845277e-01	0.000000e+00	0.0	6.469477e-01	0.000000e+00	0.0	8.390627e-01	0.000000e+00	0.0	1.066302e+00	0.000000e+00	0.0	1.335087e+00	0.000000e+00	0.0	1.653013e+00	0.000000e+00	0.0	2.029066e+00	0.000000e+00	0.0	2.473871e+00	0.000000e+00	0.0	3.000000e+00	5.714286e-01	0.0	3.000000e+00	1.142857e+00	0.0	3.000000e+00	1.714286e+00	0.0	3.000000e+00	2.285714e+00	0.0	3.000000e+00	2.857143e+00	0.0	3.000000e+00	3.428571e+00	0.0	2.400000e+00	4.000000e+00	0.0	1.800000e+00	4.000000e+00	0.0	1.200000e+00	4.000000e+00	0.0	6.000000e-01	4.000000e+00	0.0	0.000000e+00	4.000000e+00	0.0	-6.000000e-01	4.000000e+00	0.0	-1.200000e+00	4.000000e+00	0.0	-1.800000e+00	4.000000e+00	0.0	-2.400000e+00	4.000000e+00	0.0	-1.095548e-01	8.878076e-01	0.0	1.209365e-01	8.883064e-01	0.0	-1.483859e+00	2.494192e-01	0.0	1.500259e+00	2.278351e-01	0.0	1.151376e-01	5.734187e-01	0.0	-1.166173e-01	5.769231e-01	0.0	-7.468484e-01	1.615795e-01	0.0	7.467660e-01	1.592205e-01	0.0	-2.588894e+00	2.076202e+00	0.0	2.516144e+00	1.947581e+00	0.0	-9.330139e-01	3.509250e+00	0.0	9.096046e-01	3.461623e+00	0.0	1.171758e-01	3.453095e-01	0.0	-1.176381e-01	3.461538e-01	0.0	-4.145464e-01	1.102721e-01	0.0	4.158702e-01	1.097277e-01	0.0	1.211039e-01	7.285624e-01	0.0	-1.166173e-01	7.307692e-01	0.0	1.217259e-01	1.951647e-01	0.0	-1.219004e-01	1.949409e-01	0.0	2.523336e+00	8.167529e-01	0.0	-2.505450e+00	7.859659e-01	0.0	-2.060813e+00	3.451225e+00	0.0	2.063561e+00	3.439799e+00	0.0	-1.839749e-01	7.462933e-02	0.0	1.839181e-01	7.485312e-02	0.0	2.223383e+00	3.988647e-01	0.0	-2.251469e+00	3.554420e-01	0.0	2.464585e+00	1.408185e+00	0.0	2.084360e+00	1.715536e+00	0.0	2.062368e+00	2.119428e+00	0.0	1.717456e+00	1.868364e+00	0.0	1.703162e+00	1.478255e+00	0.0	1.404436e+00	1.673942e+00	0.0	1.379059e+00	2.011826e+00	0.0	1.122275e+00	1.805700e+00	0.0	1.133471e+00	1.514067e+00	0.0	8.972874e-01	1.623762e+00	0.0	9.058741e-01	1.383676e+00	0.0	6.842001e-01	1.452796e+00	0.0	6.646868e-01	1.702928e+00	0.0	4.770905e-01	1.555424e+00	0.0	4.540791e-01	1.782960e+00	0.0	2.815546e-01	1.663644e+00	0.0	2.468385e-01	1.874145e+00	0.0	8.495255e-02	1.739613e+00	0.0	3.220584e-02	1.963777e+00	0.0	-1.420447e-01	1.783981e+00	0.0	7.288711e-01	1.245864e+00	0.0	1.077857e+00	2.136341e+00	0.0	2.551298e-01	2.138445e+00	0.0	8.954243e-01	1.142527e+00	0.0	7.229085e-01	1.059814e+00	0.0	-2.030321e-01	2.067609e+00	0.0	-4.089797e-01	1.894294e+00	0.0	-3.445145e-01	1.614442e+00	0.0	-6.150363e-01	1.721608e+00	0.0	-5.614456e-01	1.469073e+00	0.0	-8.152713e-01	1.551780e+00	0.0	-8.412690e-01	1.795758e+00	0.0	-7.621668e-01	1.289715e+00	0.0	-1.026166e+00	1.376679e+00	0.0	5.786315e-01	1.133181e+00	0.0	5.729769e-01	9.679372e-01	0.0	7.172900e-01	8.817742e-01	0.0	-4.706077e-01	2.183860e+00	0.0	5.679375e-01	7.985285e-01	0.0	1.228546e-01	1.518204e+00	0.0	2.279691e-02	1.047289e+00	0.0	8.320521e-02	1.041063e+00	0.0	5.033468e-02	1.101913e+00	0.0	1.219691e-01	1.104509e+00	0.0	-2.270250e-01	2.375087e+00	0.0	-9.617590e-01	1.108784e+00	0.0	-1.245187e+00	1.191051e+00	0.0	-7.079931e-01	1.027579e+00	0.0	-9.221295e-01	8.266544e-01	0.0	-6.775202e-01	7.984572e-01	0.0	-1.312202e+00	1.494832e+00	0.0	7.101723e-01	7.094472e-01	0.0	8.684597e-01	7.881516e-01	0.0	5.583553e-01	6.419675e-01	0.0	-3.558236e-01	1.362627e+00	0.0	1.348529e+00	2.364476e+00	0.0	-2.630234e-02	1.090302e+00	0.0	1.117829e-02	1.167717e+00	0.0	1.571133e-01	1.029943e+00	0.0	2.071370e-01	1.104065e+00	0.0	1.597519e-01	1.182734e+00	0.0	2.496705e-01	1.015521e+00	0.0	8.544827e-01	6.108496e-01	0.0	1.047555e+00	6.998655e-01	0.0	-7.847310e-02	1.158033e+00	0.0	-5.171348e-01	9.204152e-01	0.0	-4.863658e-01	7.410581e-01	0.0	-6.210221e-01	6.162069e-01	0.0	-4.304165e-01	5.790980e-01	0.0	-1.561645e+00	1.283922e+00	0.0	2.721982e-01	1.192937e+00	0.0	-5.279951e-01	2.507900e+00	0.0	-2.485216e-01	2.731250e+00	0.0	4.318698e-01	7.203270e-01	0.0	4.233758e-01	5.725091e-01	0.0	-3.335265e-02	1.251950e+00	0.0	5.424962e-01	4.927149e-01	0.0	4.112126e-01	4.303540e-01	0.0	1.018241e+00	2.500118e+00	0.0	-1.633552e+00	1.628891e+00	0.0	1.309393e+00	2.745135e+00	0.0	5.177841e-01	3.509866e-01	0.0	1.029850e+00	4.328609e-01	0.0	-1.477416e+00	9.899497e-01	0.0	-5.601504e-01	4.553761e-01	0.0	-7.270539e-01	4.819428e-01	0.0	-4.090902e-01	4.203457e-01	0.0	-3.522791e-01	8.700653e-01	0.0	-3.889332e-01	1.027066e+00	0.0	-1.995353e+00	1.406583e+00	0.0	3.058598e-01	6.525576e-01	0.0	3.242700e-01	7.890326e-01	0.0	6.642582e-01	4.078662e-01	0.0	-3.050955e-01	5.085933e-01	0.0	6.073747e-01	1.962519e+00	0.0	1.224429e+00	6.011520e-01	0.0	1.250184e+00	8.250911e-01	0.0	1.457536e+00	6.770896e-01	0.0	1.491338e+00	9.566090e-01	0.0	1.773625e+00	8.129378e-01	0.0	2.073828e-01	1.286702e+00	0.0	3.329952e-01	1.291810e+00	0.0	-5.121868e-01	3.061387e-01	0.0	-5.380612e-01	1.261514e+00	0.0	-7.924608e-01	2.286933e+00	0.0	-8.696866e-01	2.652326e+00	0.0	-1.158131e+00	2.423026e+00	0.0	-1.242246e+00	2.799469e+00	0.0	-1.611716e+00	2.457963e+00	0.0	-2.704602e-01	3.766037e-01	0.0	-1.427840e-01	1.240183e+00	0.0	-1.014268e-01	1.353312e+00	0.0	-1.763546e-01	1.137806e+00	0.0	8.783725e-02	2.565590e+00	0.0	1.029681e-01	3.019180e+00	0.0	4.272249e-01	2.781426e+00	0.0	-1.361638e+00	1.838642e+00	0.0	4.419215e-01	1.044947e+00	0.0	-3.108847e-01	3.147482e+00	0.0	-3.376796e-01	7.131312e-01	0.0	3.905654e-01	2.971765e-01	0.0	2.782915e-01	3.728023e-01	0.0	2.712444e-01	2.590314e-01	0.0	-1.115764e-01	1.077712e+00	0.0	-1.918797e-01	1.038577e+00	0.0	1.672005e+00	2.603574e+00	0.0	1.351136e+00	1.368437e+00	0.0	2.442785e+00	2.509530e+00	0.0	8.886710e-01	2.913113e+00	0.0	-1.697169e+00	2.000053e+00	0.0	2.897750e-01	5.099332e-01	0.0	1.971068e-01	4.461399e-01	0.0	1.204570e+00	2.088856e-01	0.0	-2.509004e-01	7.997219e-01	0.0	-2.031816e-01	4.612449e-01	0.0	3.587496e-01	3.516320e+00	0.0	-3.683082e-01	2.897439e-01	0.0	-2.513200e-01	2.632515e-01	0.0	4.269022e-01	8.903973e-01	0.0	2.109340e+00	1.080852e+00	0.0	-1.676617e+00	3.018022e+00	0.0	-2.026846e+00	2.666903e+00	0.0	2.607158e-01	1.407890e+00	0.0	-2.493719e+00	1.295472e+00	0.0	5.091525e-01	1.363902e+00	0.0	-1.195527e+00	2.199189e-01	0.0	-1.314128e+00	4.697507e-01	0.0	-1.599290e+00	5.224038e-01	0.0	-1.044962e+00	4.332833e-01	0.0	-1.153999e+00	6.810762e-01	0.0	1.631869e+00	3.047538e+00	0.0	-1.479044e-01	1.589819e+00	0.0	3.069713e-01	9.091070e-01	0.0	-2.594272e-01	1.222158e+00	0.0	-2.468802e-01	8.922655e-01	0.0	2.148670e-01	8.375987e-01	0.0	-2.166457e-01	6.824956e-01	0.0	-5.613393e-01	1.604002e-01	0.0	5.664728e-01	1.255855e-01	0.0	9.638304e-01	2.045637e-01	0.0	-9.533785e-01	1.895011e-01	0.0	1.826954e+00	2.785964e-01	0.0	2.921698e-01	9.086346e-02	0.0	-2.840612e-01	9.229685e-02	0.0	-1.490751e+00	3.525634e+00	0.0	2.972107e-02	1.367432e+00	0.0	2.519001e+00	3.105668e+00	0.0	2.275446e-01	5.821961e-01	0.0	-1.832465e+00	2.953506e-01	0.0	-1.977202e+00	6.768975e-01	0.0	1.295565e+00	1.090381e+00	0.0	2.060326e-01	6.790669e-01	0.0	1.924197e-01	9.403358e-01	0.0	7.418665e-01	2.245468e+00	0.0	-2.532269e+00	2.524420e+00	0.0	1.437226e+00	3.516627e+00	0.0	-2.189186e-01	5.745803e-01	0.0	1.089458e-01	9.704541e-01	0.0	-2.461547e+00	3.076565e+00	0.0	-1.130174e-01	8.082243e-01	0.0	8.204452e-01	3.206647e-01	0.0	4.156693e-01	2.424846e+00	0.0	-8.275684e-01	3.222250e-01	0.0	-1.166173e-01	6.538462e-01	0.0	1.240439e-01	8.065138e-01	0.0	-2.154304e+00	1.044185e+00	0.0	1.166173e-01	6.538462e-01	0.0	-1.258892e-01	5.059709e-01	0.0	1.175714e-01	4.975748e-01	0.0	1.048701e+00	9.459876e-01	0.0	1.186418e-01	4.187835e-01	0.0	-1.166173e-01	2.692308e-01	0.0	1.166173e-01	2.692308e-01	0.0	1.911633e-01	3.076923e-01	0.0	-1.230149e-01	4.240231e-01	0.0	2.168732e-01	1.650969e-01	0.0	-2.130153e-01	1.684055e-01	0.0	-8.055871e-01	6.334177e-01	0.0	-2.811060e-01	1.101705e+00	0.0	2.114262e+00	7.400841e-01	0.0	4.281373e-01	1.193306e+00	0.0	1.771809e+00	1.153906e+00	0.0	-2.500000e-02	1.043301e+00	0.0	6.913395e-01	5.556832e-01	0.0	-6.558579e-01	3.146104e-01	0.0	1.873560e-01	7.692308e-01	0.0	-1.213880e-01	1.006983e+00	0.0	1.155948e-01	1.153846e-01	0.0	-1.169921e-01	1.167516e-01	0.0	-1.947655e+00	1.778423e+00	0.0	-2.086024e+00	2.166615e+00	0.0	-5.187853e-01	1.093553e+00	0.0	-9.145482e-01	3.061229e+00	0.0	6.700572e-02	1.250202e+00	0.0	1.105028e+00	1.240846e+00	0.0	-5.835849e-01	2.893561e+00	0.0	8.505567e-01	9.636509e-01	0.0	6.983346e-01	2.572994e+00	0.0	5.374437e-01	3.138332e+00	0.0	-1.194511e+00	9.174719e-01	0.0	2.057508e+00	2.866260e+00	0.0	1.249515e+0
[...]
POINT_DATA 394

SCALARS Density float 1
LOOKUP_TABLE default
1.223757e+00	1.223974e+00	1.222563e+00	1.222442e+00	1.223566e+00	1.223811e+00	1.223242e+00	1.223612e+00	1.223593e+00	1.223609e+00	1.223658e+00	1.223690e+00	1.223770e+00	1.223776e+00	1.223788e+00	1.223768e+00	1.223804e+00	1.223829e+00	1.223867e+00	1.223891e+00	1.223915e+00	1.223953e+00	1.223936e+00	1.223994e+00	1.223935e+00	1.224004e+00	1.223938e+00	1.223954e+00	1.223957e+00	1.223945e+00	1.223941e+00	1.223902e+00	1.223910e+00	1.223807e+00	1.223908e+00	1.223074e+00	1.224987e+00	1.220488e+00	1.223971e+00	1.223496e+00	1.223587e+00	1.223494e+00	1.223444e+00	1.223408e+00	1.223410e+00	1.223420e+00	1.223449e+00	1.223485e+00	1.223428e+00	1.223670e+00	1.223435e+00	1.223555e+00	1.223465e+00	1.223395e+00	1.223348e+00	1.223317e+00	1.223224e+00	1.223278e+00	1.223274e+00	1.223403e+00	1.222935e+00	1.223529e+00	1.223193e+00	1.222982e+00	1.222853e+00	1.222944e+00	1.223082e+00	1.223101e+00	1.223221e+00	1.223263e+00	1.223350e+00	1.223411e+00	1.223496e+00	1.223555e+00	1.223592e+00	1.223594e+00	1.223575e+00	1.223665e+00	1.223815e+00	1.223212e+00	1.223462e+00	1.223881e+00	1.223874e+00	1.223318e+00	1.223657e+00	1.223302e+00	1.223527e+00	1.223303e+00	1.223449e+00	1.223934e+00	1.223936e+00	1.223437e+00	1.223583e+00	1.223751e+00	1.223544e+00	1.223961e+00	1.223063e+00	1.223760e+00	1.223617e+00	1.223108e+00	1.223963e+00	1.223534e+00	1.223321e+00	1.223755e+00	1.222992e+00	1.222982e+00	1.223130e+00	1.223117e+00	1.223081e+00	1.223058e+00	1.223039e+00	1.223263e+00	1.222963e+00	1.222976e+00	1.223010e+00	1.223172e+00	1.222924e+00	1.223212e+00	1.223143e+00	1.223248e+00	1.223202e+00	1.223244e+00	1.223470e+00	1.223350e+00	1.223200e+00	1.223023e+00	1.223270e+00	1.222987e+00	1.223209e+00	1.223435e+00	1.223534e+00	1.223553e+00	1.223498e+00	1.223650e+00	1.223701e+00	1.223597e+00	1.223702e+00	1.223681e+00	1.223286e+00	1.223282e+00	1.223321e+00	1.223553e+00	1.223364e+00	1.223242e+00	1.222546e+00	1.222401e+00	1.222803e+00	1.223143e+00	1.223427e+00	1.223745e+00	1.223745e+00	1.223805e+00	1.223795e+00	1.223825e+00	1.223701e+00	1.223252e+00	1.223093e+00	1.223350e+00	1.223552e+00	1.223196e+00	1.222292e+00	1.223150e+00	1.223250e+00	1.223137e+00	1.222880e+00	1.223355e+00	1.223262e+00	1.223172e+00	1.223015e+00	1.223788e+00	1.223792e+00	1.223857e+00	1.223844e+00	1.223706e+00	1.223007e+00	1.223507e+00	1.223484e+00	1.223473e+00	1.223402e+00	1.223133e+00	1.223342e+00	1.223398e+00	1.223269e+00	1.223687e+00	1.223142e+00	1.223442e+00	1.223100e+00	1.223766e+00	1.223888e+00	1.223898e+00	1.223916e+00	1.223812e+00	1.223691e+00	1.223722e+00	1.223439e+00	1.223468e+00	1.223284e+00	1.223942e+00	1.223330e+00	1.223058e+00	1.223186e+00	1.222967e+00	1.222974e+00	1.223065e+00	1.223018e+00	1.222996e+00	1.223965e+00	1.223633e+00	1.223550e+00	1.223536e+00	1.223606e+00	1.223577e+00	1.223647e+00	1.223932e+00	1.223218e+00	1.223466e+00	1.223486e+00	1.223362e+00	1.223386e+00	1.223410e+00	1.223654e+00	1.223221e+00	1.223413e+00	1.223899e+00	1.223406e+00	1.223421e+00	1.223450e+00	1.223622e+00	1.223006e+00	1.223079e+00	1.222943e+00	1.223305e+00	1.223290e+00	1.223672e+00	1.223461e+00	1.223399e+00	1.223045e+00	1.223828e+00	1.223960e+00	1.223406e+00	1.223900e+00	1.223958e+00	1.223347e+00	1.222985e+00	1.223570e+00	1.223608e+00	1.222759e+00	1.223704e+00	1.223132e+00	1.223846e+00	1.223880e+00	1.223744e+00	1.223845e+00	1.223791e+00	1.223257e+00	1.223511e+00	1.223437e+00	1.223422e+00	1.223771e+00	1.223590e+00	1.223866e+00	1.223953e+00	1.223386e+00	1.223274e+00	1.223876e+00	1.223026e+00	1.223549e+00	1.223982e+00	1.223565e+00	1.223105e+00	1.223155e+00	1.223498e+00	1.223809e+00	1.223749e+00	1.223044e+00	1.223463e+00	1.223323e+00	1.223215e+00	1.223651e+00	1.223227e+00	1.223847e+00	1.223423e+00	1.223635e+00	1.223963e+00	1.223265e+00	1.223337e+00	1.223878e+00	1.223922e+00	1.223625e+00	1.223723e+00	1.223529e+00	1.223906e+00	1.223441e+00	1.223114e+00	1.223449e+00	1.223954e+00	1.223466e+00	1.223439e+00	1.223908e+00	1.223416e+00	1.223976e+00	1.223863e+00	1.223670e+00	1.223025e+00	1.223139e+00	1.223330e+00	1.222787e+00	1.223327e+00	1.223947e+00	1.223453e+00	1.223544e+00	1.223476e+00	1.223954e+00	1.223669e+00	1.223671e+00	1.223736e+00	1.223532e+00	1.222887e+00	1.223143e+00	1.223485e+00	1.223106e+00	1.223236e+00	1.223293e+00	1.223823e+00	1.223302e+00	1.223230e+00	1.223957e+00	1.223600e+00	1.223518e+00	1.223070e+00	1.223596e+00	1.223226e+00	1.223181e+00	1.223909e+00	1.223345e+00	1.223349e+00	1.223405e+00	1.223373e+00	1.223788e+00	1.223285e+00	1.223309e+00	1.223661e+00	1.223291e+00	1.223777e+00	1.223352e+00	1.222534e+00	1.223802e+00	1.223809e+00	1.223473e+00	1.223456e+00	1.222914e+00	1.223677e+00	1.223168e+00	1.223630e+00	1.223904e+00	1.224947e+00	1.223964e+00	1.223778e+00	1.223410e+00	1.223291e+00	1.223576e+00	1.223432e+00	1.223909e+00	1.223029e+00	1.223955e+00	1.223197e+00	1.223119e+00	1.223607e+00	1.223216e+00	1.223594e+00	1.223336e+00	1.223855e+00	1.223883e+00	1.223724e+00	1.223391e+00	1.223386e+00	1.223982e+00	1.223607e+00	1.223487e+00	1.223136e+00	1.223675e+00	1.222934e+00	1.223499e+00	1.223159e+00	1.223411e+00	1.223491e+00	1.223810e+00	1.223024e+00	1.223522e+00	1.222843e+00	1.223320e+00	1.222956e+00	1.223771e+00	1.223033e+00	
SCALARS X-Momentum float 1
LOOKUP_TABLE default
7.890007e+00	2.083525e-01	4.100523e+00	4.176274e-02	-6.512161e-01	-5.217147e+00	1.641286e+01	1.001849e+01	9.844863e+00	9.582101e+00	9.258887e+00	8.881957e+00	8.508326e+00	8.140581e+00	7.696363e+00	7.331050e+00	6.781685e+00	6.106424e+00	5.359819e+00	4.546138e+00	3.694801e+00	2.915401e+00	2.106853e+00	1.373987e+00	7.133149e-01	-2.999397e-02	9.661844e-03	5.698643e-02	7.098927e-02	7.464847e-02	6.991692e-02	6.272962e-02	4.084818e-02	3.525571e-02	-2.242650e-02	-7.774548e-03	-3.538277e-01	3.553791e+00	2.400156e-01	6.073452e-02	7.311742e-02	4.948293e-02	5.643772e-02	7.628220e-02	8.477738e-02	8.353111e-02	8.841144e-02	7.069181e-02	7.276102e-02	9.204627e-02	-2.005596e+00	-3.598855e+00	-4.971724e+00	-6.248035e+00	-7.310054e+00	-8.092904e+00	-8.667574e+00	-8.928371e+00	-8.405385e+00	-7.557674e+00	-6.719463e+00	-1.525976e+00	3.884050e+00	9.391731e+00	1.357629e+01	1.579770e+01	1.647476e+01	1.578217e+01	1.489841e+01	1.391397e+01	1.307005e+01	1.233950e+01	1.166216e+01	1.104407e+01	1.053447e+01	1.018764e+01	4.227438e-01	7.709834e-01	6.624803e+00	-6.125187e+00	9.989872e-02	7.891396e-01	4.276333e+00	-5.946570e+00	9.153916e+00	1.206830e+01	1.114709e+01	1.389081e+01	-3.305650e-01	6.841562e-01	2.484985e+00	-4.468090e+00	4.094496e-01	8.047296e-01	-6.920544e-01	5.697861e-01	6.031745e-01	8.145976e+00	1.014051e+01	1.563323e+01	9.663357e-01	-2.146199e+00	-3.508297e+00	7.726235e+00	6.914432e+00	1.065427e+01	1.385488e+01	1.276554e+01	8.858396e+00	1.163607e+01	1.426754e+01	1.336740e+01	1.037842e+01	1.210701e+01	8.880095e+00	1.039922e+01	1.330741e+01	1.222033e+01	1.386974e+01	1.326928e+01	1.375719e+01	1.308924e+01	1.297278e+01	1.201624e+01	7.071222e+00	1.494970e+01	1.366914e+01	5.389387e+00	4.214235e+00	1.197433e+01	1.099338e+01	1.059171e+01	9.960502e+00	9.214296e+00	9.100589e+00	9.680560e+00	8.135409e+00	8.429473e+00	5.120841e+00	2.768639e+00	1.939408e+00	1.117069e+01	1.045156e+00	1.252485e+01	4.361576e+00	2.297398e+00	5.748396e+00	4.378525e+00	1.198270e+01	7.533518e+00	7.983715e+00	6.873911e+00	6.471006e+00	5.647324e+00	8.672710e+00	5.309985e-02	8.188492e-01	-3.524027e-01	9.399417e+00	1.536855e+01	7.569452e+00	8.740684e+00	2.063258e+00	4.052506e+00	6.855915e+00	2.343284e+00	-1.352543e+00	-5.852822e-01	9.218732e+00	5.689934e+00	4.483327e+00	4.673829e+00	3.456890e+00	8.309058e+00	6.374851e+00	1.128016e+01	1.196817e+01	4.990308e-01	-5.399232e-01	1.051382e+01	-1.595511e+00	-1.521893e+00	1.514351e+01	8.863853e+00	1.528875e+01	-2.719311e+00	-3.508400e+00	7.700916e+00	3.912697e+00	4.746854e+00	2.930946e+00	4.211737e+00	5.955958e+00	8.558563e+00	2.377810e-01	9.939889e-01	-2.848937e+00	2.381917e+00	1.444375e+01	-1.893097e+00	8.590173e-01	-1.098230e+00	2.352603e+00	5.146603e-01	9.318032e+00	8.875445e+00	3.310832e+00	8.102991e+00	1.057604e+01	1.080031e+01	1.020190e+01	1.042073e+01	9.826953e+00	1.908805e+00	9.916007e+00	1.111915e+01	8.091254e+00	1.283343e+01	1.266747e+01	1.362876e+01	9.272297e+00	3.466286e+00	1.189542e+01	3.204045e+00	-2.377009e+00	-1.212735e+00	-1.801972e+00	7.323111e+00	5.531361e+00	1.555750e+01	8.069807e+00	1.511152e+01	1.444603e+01	9.335647e+00	-5.245858e-01	-4.603642e-01	-6.367733e+00	2.631874e+00	1.536870e+00	1.292881e+01	2.446953e+00	1.598668e+00	1.735769e+00	3.458390e+00	1.015423e+01	9.735819e+00	1.119902e+01	8.551120e+00	9.504194e+00	5.939265e+00	6.517141e+00	7.126272e+00	5.784474e+00	6.531812e+00	1.536660e+01	1.168571e+01	1.599327e+00	8.803590e+00	3.092904e+00	1.029381e+00	1.890928e+00	3.369787e+00	-5.358532e+00	-6.152863e+00	5.147464e+00	-5.214643e+00	-3.376788e+00	1.661411e+00	1.058205e+01	1.164932e+01	1.613232e+01	3.022499e-02	7.246880e+00	7.735570e+00	4.392127e+00	4.145172e-01	1.358550e+00	1.479988e+01	9.465378e+00	1.474859e+01	1.696001e+00	8.162840e-01	9.796770e+00	7.492934e-01	-4.278830e+00	1.390917e+01	4.891884e+00	8.129016e-01	5.534095e-01	8.207228e+00	2.410379e-01	8.489310e-01	-5.983294e-02	2.746798e+00	-1.978009e-01	6.089209e-01	-4.761837e-01	-9.424124e-01	7.767811e-01	-1.883660e+00	1.174736e+00	5.478754e+00	6.885460e+00	-2.443837e-01	6.271985e+00	4.723530e+00	6.489360e+00	-1.517199e+00	4.082357e+00	7.228827e-01	4.341628e+00	-8.760966e-01	5.019998e-01	9.008823e+00	9.333410e+00	6.920148e+00	1.097276e+01	9.738018e+00	6.667717e+00	1.137511e+01	2.941921e+00	1.453182e+01	1.347602e+01	7.232356e+00	1.576137e+01	1.478549e+01	1.265404e+00	1.033334e+01	1.179124e+01	1.489389e+01	9.842640e+00	3.907757e+00	1.425435e+01	2.006511e+00	-3.719683e+00	1.436748e+01	-2.980185e+00	1.277949e+01	8.013949e+00	-4.177228e+00	1.198523e+01	9.162789e+00	2.424050e+00	7.101347e+00	-3.138668e+00	-3.723816e+00	7.938699e+00	1.663804e+00	2.534905e+00	1.015599e+01	7.294083e+00	7.684304e+00	1.088488e+01	9.708251e+00	2.782493e+00	1.355089e+00	1.192567e+00	7.547853e+00	-1.150752e+00	1.145148e+01	9.974201e+00	1.229216e+01	2.584208e+00	1.617823e+01	1.028375e+00	-3.969265e+00	-2.299058e+00	9.937422e+00	-2.754743e+00	1.062804e+01	1.089737e+01	5.359180e+00	4.739217e+00	8.910130e+00	-6.209984e-01	-1.176191e-01	4.196525e-01	-9.960360e-01	1.254067e+01	1.419398e+01	1.529339e+00	1.230924e+01	7.514016e+00	1.538199e+01	1.773061e-01	1.143383e+01	5.926900e+00	7.296827e+00	7.268233e-01	5.584631e+00	1.327847e+01	6.924391e+00	1.327724e+00	7.700319e+00	
SCALARS Y-Momentum float 1
LOOKUP_TABLE default
-2.615048e-02	2.053942e-01	7.426920e+00	5.441798e-01	6.285173e-01	2.231465e-01	6.217867e-02	-1.398716e-02	2.398899e-02	5.623627e-02	7.948703e-02	1.035771e-01	9.147907e-02	2.488667e-02	-4.178398e-03	2.685959e-04	5.244208e-03	2.944623e-03	8.794771e-03	1.008032e-02	-9.408899e-03	1.028837e-03	-2.796207e-03	6.751062e-03	-1.636527e-02	6.466294e-01	1.160617e+00	1.710815e+00	2.349881e+00	3.037596e+00	3.756359e+00	4.501303e+00	5.294814e+00	6.165977e+00	6.963352e+00	7.377511e+00	8.215103e+00	-4.202785e-01	2.842101e+00	3.726894e+00	4.464069e+00	4.944150e+00	5.226383e+00	5.329295e+00	5.214432e+00	4.886508e+00	4.390198e+00	3.707613e+00	2.859940e+00	1.781722e+00	-7.306842e-03	2.515808e-02	2.968825e-02	1.320668e-02	1.120206e-02	2.372771e-02	2.434139e-02	1.448184e-03	-5.723865e-02	-7.679035e-02	-9.578544e-02	-5.206793e-01	-6.190900e-01	-3.056269e-01	3.220807e-01	6.215268e-01	4.077108e-01	1.711753e-02	6.767709e-03	-3.210340e-03	-3.710478e-02	-2.330572e-02	-2.773235e-03	-4.980916e-03	5.120853e-03	-1.290040e-03	8.237614e+00	3.887432e+00	5.145337e-01	-2.751412e-01	5.029428e+00	4.722031e+00	7.135331e-01	6.654145e-01	4.643300e-01	7.874641e-02	5.362242e-01	8.526988e-01	4.260710e+00	2.597622e+00	6.618976e-01	9.493754e-01	4.729167e+00	6.304525e+00	2.955834e+00	1.417582e+00	-8.673800e-01	3.892315e-01	3.133265e-01	7.806597e-01	4.932357e-01	1.081734e+00	-6.472554e-01	2.897413e-01	-6.126897e-01	-4.625535e-02	7.398344e-01	8.670379e-01	1.253002e-01	1.095192e+00	1.805121e+00	2.120845e+00	1.487627e+00	2.498344e+00	2.017338e+00	2.992195e+00	3.571539e+00	4.153394e+00	4.486197e+00	5.110226e+00	4.869966e+00	5.587114e+00	4.657504e+00	5.356219e+00	2.410299e+00	2.592319e+00	4.031662e+00	1.822556e+00	2.451025e+00	3.962231e+00	4.127913e+00	5.552822e+00	3.990638e+00	4.840578e+00	3.539624e+00	3.068569e+00	4.002032e+00	2.899476e+00	2.883120e+00	3.173354e+00	2.627448e+00	3.076595e+00	3.367200e+00	5.814417e+00	1.433088e+00	1.878742e+00	2.948550e+00	2.804592e+00	2.870656e+00	2.994814e+00	2.270795e+00	4.086019e+00	2.698232e+00	3.575215e+00	2.170586e+00	2.595752e+00	1.895835e+00	3.214981e+00	6.770993e+00	2.056011e+00	5.917223e+00	5.616998e+00	3.140716e+00	3.415799e+00	3.763931e+00	3.813406e+00	1.692250e+00	9.512117e-01	8.464711e+00	5.109381e+00	4.366418e+00	3.073978e+00	3.567155e+00	1.688997e+00	3.594551e+00	2.216553e+00	1.934902e+00	3.982370e+00	3.700566e+00	7.468945e+00	2.842334e+00	3.221299e+00	2.453518e+00	1.584438e+00	1.859458e+00	2.279411e+00	7.166189e-01	1.657854e+00	2.446619e+00	2.128417e+00	2.575935e+00	6.371947e+00	7.073171e+00	1.112167e+00	4.412991e+00	4.455738e+00	1.951746e+00	3.421602e+00	3.833271e+00	2.366701e-01	3.222369e-01	-1.959618e-01	-2.265521e-01	-7.360895e-01	4.342800e+00	3.793486e+00	1.727553e+00	5.455647e+00	2.340345e+00	1.684180e+00	1.745016e+00	1.228692e+00	1.226384e+00	2.530619e+00	8.853630e+00	7.891665e+00	9.822875e+00	2.615705e+00	1.487768e+00	2.196062e+00	1.967957e+00	3.471835e+00	1.137078e+00	5.011060e+00	2.568037e+00	3.567536e+00	2.826455e+00	9.839378e+00	1.029105e+01	1.620206e+00	6.170340e-01	8.446889e-01	1.854490e+00	1.412253e+00	4.130561e+00	4.383907e+00	1.089397e-01	6.515842e+00	3.381836e+00	6.921498e-01	1.813622e+00	1.754370e+00	3.970150e+00	-9.217993e-01	7.583937e-01	7.191640e-01	4.729329e+00	5.472555e-01	3.370397e+00	5.996653e-01	1.115654e+00	9.113796e-01	1.350994e+00	1.789997e+00	1.372073e+00	6.448769e+00	4.311569e+00	8.662398e+00	7.993388e+00	4.459010e+00	5.392622e+00	8.211713e-01	8.059461e-01	4.596786e-01	6.709753e-01	-4.797608e-01	1.093391e+00	6.032220e-01	4.080752e-01	6.699496e+00	9.004457e-01	4.648302e+00	4.263568e-01	7.417479e-01	4.858957e-01	4.758970e+00	3.997947e+00	3.218969e+00	4.336602e-01	7.627052e-01	4.297641e+00	3.061318e+00	3.258870e-01	7.302774e+00	1.164958e+00	3.169016e+00	1.358547e+00	5.451497e+00	4.349980e+00	8.096007e-01	4.950933e+00	3.991915e+00	4.927120e+00	1.226684e+00	4.661225e+00	1.984750e+00	3.702742e+00	3.615358e+00	3.250351e+00	2.200313e+00	1.153037e+00	2.538461e+00	8.984282e+00	-9.317546e-01	3.269712e+00	-5.366417e-01	4.109105e+00	2.342583e+00	1.520240e+00	4.643040e+00	1.065820e+01	2.040999e+00	8.755883e-01	1.151281e+00	8.925070e-01	5.619929e+00	1.101435e+00	5.316776e+00	1.230435e+00	1.489598e+00	2.017976e+00	2.639552e+00	1.399653e+00	2.128413e+00	1.295114e+00	1.374734e+00	2.775432e+00	3.084560e+00	5.219699e-01	1.478918e+00	2.339195e+00	3.582475e+00	3.055647e+00	1.219625e+00	1.657594e+00	3.848077e+00	1.926501e+00	3.617229e+00	1.202156e+00	1.431495e+00	6.939990e+00	2.645054e+00	3.960154e+00	1.453061e+00	-5.259749e-01	-4.725169e-01	1.332082e-01	7.841991e+00	9.616132e+00	8.188194e+00	3.857288e+00	7.208473e+00	4.112587e+00	1.714182e+00	1.238429e+00	1.002758e+01	2.205522e+00	1.161437e+00	3.087244e+00	5.453244e+00	1.336612e-01	7.062227e-01	4.273873e+00	4.519897e-01	1.690787e+00	-6.222063e-02	-8.123966e-01	5.333137e-01	1.561346e+00	8.124283e-01	7.141685e+00	1.869226e+00	8.722749e+00	7.232652e-01	4.132681e+00	4.698920e+00	4.023279e-01	1.031291e+00	6.344625e+00	4.335456e+00	6.622281e+00	4.760836e+00	4.736864e+00	1.273882e+00	4.859992e+00	9.185475e-01	2.034692e+00	-5.449739e-01	4.642716e+00	-1.117946e-02	3.359516e+00	8.535245e+00	4.896142e+00	2.850509e+00	
SCALARS Energy float 1
LOOKUP_TABLE default