# vtk DataFile Version 3.0
vtk output
ASCII
DATASET UNSTRUCTURED_GRID
POINTS 394 float
-3.000000e+00	0.000000e+00	0.0	-5.000000e-02	-3.632734e-19	0.0	5.050338e-02	1.005942e+00	0.0	1.505456e-01	9.951261e-01	0.0	5.000000e-02	-3.195005e-18	0.0	3.000000e+00	0.000000e+00	0.0	3.000000e+00	4.000000e+00	0.0	-3.000000e+00	4.000000e+00	0.0	-3.000000e+00	3.428571e+00	0.0	-3.000000e+00	2.857143e+00	0.0	-3.000000e+00	2.285714e+00	0.0	-3.000000e+00	1.714286e+00	0.0	-3.000000e+00	1.142857e+00	0.0	-3.000000e+00	5.714286e-01	0.0	-2.473871e+00	0.000000e+00	0.0	-2.029066e+00	0.000000e+00	0.0	-1.653013e+00	0.000000e+00	0.0	-1.335087e+00	0.000000e+00	0.0	-1.066302e+00	0.000000e+00	0.0	-8.390627e-01	0.000000e+00	0.0	-6.469477e-01	0.000000e+00	0.0	-4.845277e-01	0.000000e+00	0.0	-3.472127e-01	0.000000e+00	0.0	-2.311224e-01	0.000000e+00	0.0	-1.329760e-01	0.000000e+00	0.0	-4.783090e-02	7.902231e-02	0.0	-4.313438e-02	1.575686e-01	0.0	-3.639940e-02	2.356351e-01	0.0	-2.833021e-02	3.132949e-01	0.0	-1.949505e-02	3.906332e-01	0.0	-1.032136e-02	4.677390e-01	0.0	-1.100625e-03	5.446921e-01	0.0	7.988362e-03	6.215555e-01	0.0	1.684974e-02	6.983808e-01	0.0	2.546971e-02	7.752123e-01	0.0	3.388031e-02	8.520894e-01	0.0	4.225541e-02	9.290069e-01	0.0	1.005245e-01	1.000573e+00	0.0	1.421830e-01	9.181814e-01	0.0	1.338555e-01	8.411790e-01	0.0	1.254255e-01	7.641241e-01	0.0	1.168081e-01	6.870185e-01	0.0	1.079468e-01	6.099026e-01	0.0	9.886018e-02	5.328246e-01	0.0	8.964194e-02	4.558382e-01	0.0	8.047226e-02	3.790079e-01	0.0	7.164117e-02	3.024136e-01	0.0	6.357573e-02	2.261445e-01	0.0	5.684703e-02	1.502833e-01	0.0	5.212173e-02	7.489286e-02	0.0	1.329760e-01	0.000000e+00	0.0	2.311224e-01	0.000000e+00	0.0	3.472127e-01	0.000000e+00	0.0	4.845277e-01	0.000000e+00	0.0	6.469477e-01	0.000000e+00	0.0	8.390627e-01	0.000000e+00	0.0	1.066302e+00	0.000000e+00	0.0	1.335087e+00	0.000000e+00	0.0	1.653013e+00	0.000000e+00	0.0	2.029066e+00	0.000000e+00	0.0	2.473871e+00	0.000000e+00	0.0	3.000000e+00	5.714286e-01	0.0	3.000000e+00	1.142857e+00	0.0	3.000000e+00	1.714286e+00	0.0	3.000000e+00	2.285714e+00	0.0	3.000000e+00	2.857143e+00	0.0	3.000000e+00	3.428571e+00	0.0	2.400000e+00	4.000000e+00	0.0	1.800000e+00	4.000000e+00	0.0	1.200000e+00	4.000000e+00	0.0	6.000000e-01	4.000000e+00	0.0	0.000000e+00	4.000000e+00	0.0	-6.000000e-01	4.000000e+00	0.0	-1.200000e+00	4.000000e+00	0.0	-1.800000e+00	4.000000e+00	0.0	-2.400000e+00	4.000000e+00	0.0	-4.682137e-02	8.970364e-01	0.0	1.853687e-01	8.797071e-01	0.0	-1.478808e+00	2.573667e-01	0.0	1.506250e+00	2.201055e-01	0.0	1.475142e-01	5.659445e-01	0.0	-8.396689e-02	5.859857e-01	0.0	-7.419359e-01	1.691912e-01	0.0	7.524401e-01	1.511605e-01	0.0	-2.578630e+00	2.081381e+00	0.0	2.531549e+00	1.938670e+00	0.0	-9.118448e-01	3.510876e+00	0.0	9.329089e-01	3.456787e+00	0.0	1.310421e-01	3.396690e-01	0.0	-1.038819e-01	3.522880e-01	0.0	-4.114906e-01	1.155131e-01	0.0	4.194127e-01	1.048907e-01	0.0	1.687247e-01	7.201681e-01	0.0	-6.932908e-02	7.406551e-01	0.0	1.273887e-01	1.912524e-01	0.0	-1.162402e-01	1.990128e-01	0.0	2.529985e+00	8.063833e-01	0.0	-2.499097e+00	7.933091e-01	0.0	-2.050744e+00	3.455000e+00	0.0	2.074630e+00	3.435028e+00	0.0	-1.826003e-01	7.684322e-02	0.0	1.853915e-01	7.268645e-02	0.0	2.229043e+00	3.900589e-01	0.0	-2.248127e+00	3.607876e-01	0.0	2.480177e+00	1.395849e+00	0.0	2.109656e+00	1.699504e+00	0.0	2.089565e+00	2.106965e+00	0.0	1.752084e+00	1.851567e+00	0.0	1.734442e+00	1.457677e+00	0.0	1.446447e+00	1.653886e+00	0.0	1.422066e+00	1.995169e+00	0.0	1.172799e+00	1.787190e+00	0.0	1.181628e+00	1.492919e+00	0.0	9.536394e-01	1.605112e+00	0.0	9.597620e-01	1.362385e+00	0.0	7.471219e-01	1.434048e+00	0.0	7.283652e-01	1.688260e+00	0.0	5.474673e-01	1.542200e+00	0.0	5.217602e-01	1.772566e+00	0.0	3.542625e-01	1.654799e+00	0.0	3.163394e-01	1.866921e+00	0.0	1.590188e-01	1.736278e+00	0.0	1.014627e-01	1.960487e+00	0.0	-6.800162e-02	1.784983e+00	0.0	7.867020e-01	1.225302e+00	0.0	1.127160e+00	2.121058e+00	0.0	3.195582e-01	2.131812e+00	0.0	9.443081e-01	1.119329e+00	0.0	7.742531e-01	1.038824e+00	0.0	-1.375344e-01	2.068261e+00	0.0	-3.434066e-01	1.900825e+00	0.0	-2.706108e-01	1.622399e+00	0.0	-5.533063e-01	1.734600e+00	0.0	-4.958616e-01	1.485719e+00	0.0	-7.591571e-01	1.568669e+00	0.0	-7.856659e-01	1.810389e+00	0.0	-7.054036e-01	1.311740e+00	0.0	-9.793935e-01	1.396632e+00	0.0	6.381815e-01	1.115003e+00	0.0	6.261000e-01	9.488814e-01	0.0	7.608403e-01	8.610220e-01	0.0	-4.111205e-01	2.189412e+00	0.0	6.110936e-01	7.790765e-01	0.0	1.996800e-01	1.513815e+00	0.0	1.012438e-01	1.047956e+00	0.0	1.614390e-01	1.036545e+00	0.0	1.291033e-01	1.100667e+00	0.0	1.992345e-01	1.099655e+00	0.0	-1.679496e-01	2.376390e+00	0.0	-9.194952e-01	1.130380e+00	0.0	-1.210272e+00	1.211498e+00	0.0	-6.565175e-01	1.050264e+00	0.0	-8.928060e-01	8.494004e-01	0.0	-6.406126e-01	8.218951e-01	0.0	-1.272944e+00	1.513545e+00	0.0	7.444076e-01	6.892077e-01	0.0	9.038135e-01	7.659703e-01	0.0	5.915744e-01	6.234742e-01	0.0	-2.817251e-01	1.375542e+00	0.0	1.389214e+00	2.350880e+00	0.0	5.264530e-02	1.094320e+00	0.0	9.038126e-02	1.168364e+00	0.0	2.312003e-01	1.022266e+00	0.0	2.813396e-01	1.095416e+00	0.0	2.370416e-01	1.176589e+00	0.0	3.184678e-01	1.004197e+00	0.0	8.810108e-01	5.900679e-01	0.0	1.075347e+00	6.789040e-01	0.0	-3.621127e-04	1.163644e+00	0.0	-4.648095e-01	9.423023e-01	0.0	-4.466661e-01	7.634184e-01	0.0	-5.942448e-01	6.362393e-01	0.0	-4.018498e-01	5.994997e-01	0.0	-1.532567e+00	1.303044e+00	0.0	3.455608e-01	1.182806e+00	0.0	-4.765072e-01	2.512498e+00	0.0	-1.997755e-01	2.733562e+00	0.0	4.736170e-01	7.017549e-01	0.0	4.539965e-01	5.559338e-01	0.0	4.572218e-02	1.254478e+00	0.0	5.661576e-01	4.766601e-01	0.0	4.314285e-01	4.167804e-01	0.0	1.064364e+00	2.488747e+00	0.0	-1.601322e+00	1.645047e+00	0.0	1.345273e+00	2.734177e+00	0.0	5.328744e-01	3.381577e-01	0.0	1.045808e+00	4.158451e-01	0.0	-1.453690e+00	1.009142e+00	0.0	-5.422373e-01	4.718525e-01	0.0	-7.088863e-01	4.990341e-01	0.0	-3.917855e-01	4.355948e-01	0.0	-2.967663e-01	8.907209e-01	0.0	-3.254222e-01	1.045558e+00	0.0	-1.973719e+00	1.421111e+00	0.0	3.450412e-01	6.353639e-01	0.0	3.743257e-01	7.716923e-01	0.0	6.823142e-01	3.925777e-01	0.0	-2.796522e-01	5.249981e-01	0.0	6.710425e-01	1.951706e+00	0.0	1.245647e+00	5.829035e-01	0.0	1.278006e+00	8.038455e-01	0.0	1.477330e+00	6.586117e-01	0.0	1.518983e+00	9.359310e-01	0.0	1.791592e+00	7.956733e-01	0.0	2.830834e-01	1.279104e+00	0.0	4.054495e-01	1.280749e+00	0.0	-5.022051e-01	3.182458e-01	0.0	-4.743151e-01	1.281613e+00	0.0	-7.406836e-01	2.295451e+00	0.0	-8.273531e-01	2.658205e+00	0.0	-1.116738e+00	2.432488e+00	0.0	-1.208554e+00	2.804652e+00	0.0	-1.579586e+00	2.468329e+00	0.0	-2.554741e-01	3.891186e-01	0.0	-6.553144e-02	1.247506e+00	0.0	-2.330609e-02	1.357965e+00	0.0	-1.011537e-01	1.148008e+00	0.0	1.451471e-01	2.561763e+00	0.0	1.437970e-01	3.017663e+00	0.0	4.754968e-01	2.775221e+00	0.0	-1.321420e+00	1.854273e+00	0.0	5.044888e-01	1.027974e+00	0.0	-2.769077e-01	3.150542e+00	0.0	-2.961651e-01	7.336262e-01	0.0	4.021745e-01	2.870337e-01	0.0	2.938608e-01	3.610193e-01	0.0	2.803447e-01	2.506456e-01	0.0	-3.555668e-02	1.086126e+00	0.0	-1.206271e-01	1.050755e+00	0.0	1.703248e+00	2.591724e+00	0.0	1.390391e+00	1.346211e+00	0.0	2.459877e+00	2.502757e+00	0.0	9.284514e-01	2.904787e+00	0.0	-1.665137e+00	2.014465e+00	0.0	3.164436e-01	4.945226e-01	0.0	2.183663e-01	4.354729e-01	0.0	1.210902e+00	2.009513e-01	0.0	-1.986928e-01	8.170794e-01	0.0	-1.815582e-01	4.730664e-01	0.0	3.823122e-01	3.515473e+00	0.0	-3.586638e-01	3.002473e-01	0.0	-2.427696e-01	2.719501e-01	0.0	4.821448e-01	8.725002e-01	0.0	2.127775e+00	1.063821e+00	0.0	-1.655085e+00	3.022624e+00	0.0	-2.006988e+00	2.672592e+00	0.0	3.353263e-01	1.399116e+00	0.0	-2.482868e+00	1.304994e+00	0.0	5.764594e-01	1.348596e+00	0.0	-1.190490e+00	2.281673e-01	0.0	-1.302055e+00	4.841885e-01	0.0	-1.588133e+00	5.362258e-01	0.0	-1.031740e+00	4.503107e-01	0.0	-1.134246e+00	7.010833e-01	0.0	1.658100e+00	3.039313e+00	0.0	-7.110808e-02	1.592938e+00	0.0	3.669177e-01	8.946851e-01	0.0	-1.849140e-01	1.234057e+00	0.0	-1.872654e-01	9.087728e-01	0.0	2.712680e-01	8.241973e-01	0.0	-1.755997e-01	6.980097e-01	0.0	-5.570680e-01	1.688004e-01	0.0	5.707345e-01	1.194984e-01	0.0	9.706815e-01	1.948552e-01	0.0	-9.486425e-01	1.980954e-01	0.0	1.832745e+00	2.703661e-01	0.0	2.947120e-01	8.756880e-02	0.0	-2.818958e-01	9.586473e-02	0.0	-1.475702e+00	3.527865e+00	0.0	1.081766e-01	1.366693e+00	0.0	2.528050e+00	3.102641e+00	0.0	2.606198e-01	5.683963e-01	0.0	-1.828189e+00	3.028263e-01	0.0	-1.965957e+00	6.905134e-01	0.0	1.330139e+00	1.068644e+00	0.0	2.480985e-01	6.662538e-01	0.0	2.593717e-01	9.296553e-01	0.0	7.990903e-01	2.235080e+00	0.0	-2.522429e+00	2.529152e+00	0.0	1.454842e+00	3.512095e+00	0.0	-1.870083e-01	5.890514e-01	0.0	1.825814e-01	9.632900e-01	0.0	-2.452049e+00	3.078328e+00	0.0	-5.824414e-02	8.178022e-01	0.0	8.331866e-01	3.065570e-01	0.0	4.744327e-01	2.418046e+00	0.0	-8.171710e-01	3.357162e-01	0.0	-7.722295e-02	6.634105e-01	0.0	1.794382e-01	7.977845e-01	0.0	-2.139943e+00	1.057596e+00	0.0	1.566088e-01	6.459709e-01	0.0	-9.976057e-02	5.149531e-01	0.0	1.431353e-01	4.903827e-01	0.0	1.086089e+00	9.224687e-01	0.0	1.376346e-01	4.123196e-01	0.0	-1.073825e-01	2.741744e-01	0.0	1.258244e-01	2.645730e-01	0.0	2.028298e-01	2.999216e-01	0.0	-1.037493e-01	4.315184e-01	0.0	2.217979e-01	1.599319e-01	0.0	-2.083175e-01	1.738233e-01	0.0	-7.825444e-01	6.536020e-01	0.0	-2.106365e-01	1.116412e+00	0.0	2.125692e+00	7.257317e-01	0.0	4.955169e-01	1.178464e+00	0.0	1.798000e+00	1.133932e+00	0.0	5.278277e-02	1.047659e+00	0.0	7.171067e-01	5.375235e-01	0.0	-6.452599e-01	3.277316e-01	0.0	2.381163e-01	7.573673e-01	0.0	-4.931232e-02	1.016011e+00	0.0	1.178946e-01	1.132139e-01	0.0	-1.146360e-01	1.190518e-01	0.0	-1.921752e+00	1.792030e+00	0.0	-2.063917e+00	2.177761e+00	0.0	-4.582233e-01	1.113458e+00	0.0	-8.825629e-01	3.064353e+00	0.0	1.462446e-01	1.248324e+00	0.0	1.149446e+00	1.218436e+00	0.0	-5.441814e-01	2.897142e+00	0.0	8.942748e-01	9.409153e-01	0.0	7.491315e-01	2.564232e+00	0.0	5.739952e-01	3.133948e+00	0.0	-1.167495e+00	9.380904e-01	0.0	2.078987e+00	2.857316e+00	0.0	1.277952e+00	3.1335
[...]
POINT_DATA 394

SCALARS Density float 1
LOOKUP_TABLE default
1.223746e+00	1.223986e+00	1.222127e+00	1.221623e+00	1.223218e+00	1.223573e+00	1.223266e+00	1.223602e+00	1.223583e+00	1.223598e+00	1.223646e+00	1.223678e+00	1.223754e+00	1.223760e+00	1.223774e+00	1.223759e+00	1.223794e+00	1.223819e+00	1.223861e+00	1.223886e+00	1.223912e+00	1.223958e+00	1.223942e+00	1.224011e+00	1.223942e+00	1.224028e+00	1.223949e+00	1.223967e+00	1.223968e+00	1.223951e+00	1.223940e+00	1.223902e+00	1.223897e+00	1.223812e+00	1.223903e+00	1.223048e+00	1.224971e+00	1.220211e+00	1.223555e+00	1.223126e+00	1.223119e+00	1.223083e+00	1.223048e+00	1.223036e+00	1.223045e+00	1.223055e+00	1.223084e+00	1.223125e+00	1.223059e+00	1.223314e+00	1.223079e+00	1.223206e+00	1.223119e+00	1.223051e+00	1.223007e+00	1.222977e+00	1.222884e+00	1.222940e+00	1.222952e+00	1.223101e+00	1.222641e+00	1.223308e+00	1.223011e+00	1.222859e+00	1.222800e+00	1.222942e+00	1.223102e+00	1.223107e+00	1.223226e+00	1.223257e+00	1.223341e+00	1.223404e+00	1.223493e+00	1.223551e+00	1.223587e+00	1.223587e+00	1.223333e+00	1.223366e+00	1.223806e+00	1.222869e+00	1.223067e+00	1.223844e+00	1.223873e+00	1.222946e+00	1.223645e+00	1.223238e+00	1.223520e+00	1.223307e+00	1.223084e+00	1.223928e+00	1.223943e+00	1.223068e+00	1.223162e+00	1.223661e+00	1.223186e+00	1.223969e+00	1.222836e+00	1.223749e+00	1.223610e+00	1.223128e+00	1.223977e+00	1.223173e+00	1.223036e+00	1.223743e+00	1.222842e+00	1.222839e+00	1.223079e+00	1.223031e+00	1.222885e+00	1.222929e+00	1.222996e+00	1.223192e+00	1.222762e+00	1.222848e+00	1.222778e+00	1.222993e+00	1.222869e+00	1.223169e+00	1.223135e+00	1.223272e+00	1.223209e+00	1.223260e+00	1.223478e+00	1.223354e+00	1.222865e+00	1.223011e+00	1.223282e+00	1.222619e+00	1.222787e+00	1.223434e+00	1.223523e+00	1.223547e+00	1.223485e+00	1.223634e+00	1.223692e+00	1.223584e+00	1.223684e+00	1.223670e+00	1.222932e+00	1.222841e+00	1.222878e+00	1.223540e+00	1.222904e+00	1.223241e+00	1.222116e+00	1.221857e+00	1.222643e+00	1.222846e+00	1.223419e+00	1.223736e+00	1.223733e+00	1.223787e+00	1.223790e+00	1.223816e+00	1.223690e+00	1.222801e+00	1.222645e+00	1.222905e+00	1.223561e+00	1.223204e+00	1.221833e+00	1.223210e+00	1.222853e+00	1.222754e+00	1.222658e+00	1.222907e+00	1.222839e+00	1.222768e+00	1.223144e+00	1.223774e+00	1.223786e+00	1.223851e+00	1.223835e+00	1.223699e+00	1.222721e+00	1.223495e+00	1.223473e+00	1.223030e+00	1.222966e+00	1.223152e+00	1.222923e+00	1.222992e+00	1.223284e+00	1.223677e+00	1.223169e+00	1.223044e+00	1.222715e+00	1.223758e+00	1.223879e+00	1.223895e+00	1.223935e+00	1.223796e+00	1.223681e+00	1.223712e+00	1.223002e+00	1.223040e+00	1.222872e+00	1.223932e+00	1.223349e+00	1.222660e+00	1.222816e+00	1.222609e+00	1.222637e+00	1.222753e+00	1.222876e+00	1.222814e+00	1.223957e+00	1.223594e+00	1.223541e+00	1.223527e+00	1.223597e+00	1.223569e+00	1.223639e+00	1.223913e+00	1.223222e+00	1.223504e+00	1.223512e+00	1.223352e+00	1.223379e+00	1.223419e+00	1.223646e+00	1.222774e+00	1.223407e+00	1.223893e+00	1.223010e+00	1.223037e+00	1.223079e+00	1.223781e+00	1.223066e+00	1.223089e+00	1.222690e+00	1.223292e+00	1.223293e+00	1.223662e+00	1.223061e+00	1.222991e+00	1.222677e+00	1.223747e+00	1.224004e+00	1.223400e+00	1.223915e+00	1.223961e+00	1.222879e+00	1.222719e+00	1.223564e+00	1.223601e+00	1.222698e+00	1.223692e+00	1.222953e+00	1.223841e+00	1.223870e+00	1.223734e+00	1.223837e+00	1.223781e+00	1.223262e+00	1.223548e+00	1.222946e+00	1.223468e+00	1.223715e+00	1.223163e+00	1.223893e+00	1.223962e+00	1.223018e+00	1.222903e+00	1.223876e+00	1.222702e+00	1.223193e+00	1.223995e+00	1.223560e+00	1.223097e+00	1.223164e+00	1.223090e+00	1.223798e+00	1.223740e+00	1.222713e+00	1.223038e+00	1.222884e+00	1.223233e+00	1.223642e+00	1.223234e+00	1.223845e+00	1.222935e+00	1.223627e+00	1.224000e+00	1.222885e+00	1.223345e+00	1.223865e+00	1.223876e+00	1.223128e+00	1.223712e+00	1.223118e+00	1.223882e+00	1.223070e+00	1.222730e+00	1.223082e+00	1.223954e+00	1.223104e+00	1.223048e+00	1.223886e+00	1.223040e+00	1.223988e+00	1.223846e+00	1.223678e+00	1.222727e+00	1.222840e+00	1.223069e+00	1.224320e+00	1.222895e+00	1.223945e+00	1.223040e+00	1.223493e+00	1.223108e+00	1.223964e+00	1.223659e+00	1.223661e+00	1.223734e+00	1.223524e+00	1.222765e+00	1.222840e+00	1.223477e+00	1.222676e+00	1.223251e+00	1.223284e+00	1.223810e+00	1.223311e+00	1.223242e+00	1.223986e+00	1.223585e+00	1.223510e+00	1.223049e+00	1.223585e+00	1.222838e+00	1.223161e+00	1.223915e+00	1.222973e+00	1.223369e+00	1.223036e+00	1.223380e+00	1.223775e+00	1.222904e+00	1.223358e+00	1.223650e+00	1.222835e+00	1.223769e+00	1.223019e+00	1.222243e+00	1.223784e+00	1.223896e+00	1.223477e+00	1.223472e+00	1.222757e+00	1.223657e+00	1.223091e+00	1.223621e+00	1.223893e+00	1.224988e+00	1.223982e+00	1.223766e+00	1.223022e+00	1.223289e+00	1.223570e+00	1.223424e+00	1.223875e+00	1.223035e+00	1.223979e+00	1.222837e+00	1.222802e+00	1.223597e+00	1.222789e+00	1.223588e+00	1.223342e+00	1.223845e+00	1.223858e+00	1.223713e+00	1.222993e+00	1.222985e+00	1.223993e+00	1.223263e+00	1.223472e+00	1.223165e+00	1.223734e+00	1.222864e+00	1.223489e+00	1.223158e+00	1.223004e+00	1.223483e+00	1.223804e+00	1.222804e+00	1.223084e+00	1.222551e+00	1.223312e+00	1.223088e+00	1.223824e+00	1.222753e+00	
SCALARS X-Momentum float 1
LOOKUP_TABLE default
8.150048e+00	2.450795e-01	4.565060e+00	2.509931e-01	-6.847914e-01	-5.176475e+00	1.633078e+01	1.014008e+01	9.975976e+00	9.727463e+00	9.421700e+00	9.065186e+00	8.715447e+00	8.377510e+00	7.971414e+00	7.623868e+00	7.095829e+00	6.433642e+00	5.690795e+00	4.868665e+00	3.991165e+00	3.181502e+00	2.325586e+00	1.537504e+00	8.128140e-01	-1.682238e-02	6.749429e-02	1.820645e-01	2.803810e-01	3.786848e-01	4.721427e-01	5.604088e-01	6.449810e-01	7.268107e-01	7.742403e-01	7.183013e-01	4.645496e-01	4.699130e+00	2.866611e-01	2.435265e-01	3.889611e-01	4.678374e-01	5.464863e-01	6.065011e-01	6.038975e-01	5.522316e-01	4.726142e-01	3.452622e-01	2.303020e-01	1.514770e-01	-2.139742e+00	-3.841620e+00	-5.282098e+00	-6.590116e+00	-7.654597e+00	-8.423166e+00	-8.973915e+00	-9.204432e+00	-8.625406e+00	-7.694910e+00	-6.770640e+00	-1.351475e+00	4.201056e+00	9.756245e+00	1.386117e+01	1.593624e+01	1.647472e+01	1.567932e+01	1.481480e+01	1.387264e+01	1.307493e+01	1.238468e+01	1.173443e+01	1.113389e+01	1.063718e+01	1.030121e+01	1.468923e+00	9.177338e-01	6.938862e+00	-6.285427e+00	6.062611e-01	1.491046e+00	4.615318e+00	-6.150364e+00	9.324877e+00	1.236358e+01	1.124762e+01	1.390399e+01	6.584489e-02	1.037228e+00	2.764459e+00	-4.648867e+00	8.222157e-01	1.740538e+00	-5.179142e-01	7.501121e-01	7.524561e-01	8.381952e+00	1.026433e+01	1.561850e+01	1.120227e+00	-2.222739e+00	-3.510984e+00	7.992373e+00	7.184388e+00	1.092148e+01	1.409570e+01	1.302835e+01	9.089998e+00	1.189055e+01	1.451093e+01	1.363392e+01	1.061410e+01	1.238649e+01	9.074982e+00	1.066764e+01	1.363816e+01	1.260232e+01	1.420719e+01	1.365828e+01	1.403071e+01	1.338953e+01	1.316702e+01	1.223266e+01	7.207108e+00	1.516750e+01	1.383898e+01	5.485195e+00	4.305862e+00	1.211416e+01	1.115778e+01	1.081680e+01	1.017071e+01	9.495320e+00	9.360172e+00	9.887923e+00	8.491302e+00	8.711063e+00	5.202700e+00	2.876628e+00	2.061086e+00	1.130338e+01	1.263813e+00	1.298639e+01	5.537714e+00	2.502437e+00	6.423737e+00	4.656945e+00	1.209195e+01	7.879120e+00	8.263057e+00	7.334861e+00	6.864636e+00	6.163414e+00	8.909201e+00	2.096813e-01	8.922210e-01	-8.761939e-02	9.715913e+00	1.553596e+01	8.390045e+00	9.510361e+00	1.980778e+00	4.121976e+00	7.276217e+00	2.338450e+00	-1.301171e+00	-5.713247e-01	9.903345e+00	6.325701e+00	5.156145e+00	5.185109e+00	4.067298e+00	8.549088e+00	6.573116e+00	1.140000e+01	1.206572e+01	8.585836e-01	-1.894818e-01	1.115973e+01	-1.388999e+00	-1.270954e+00	1.526613e+01	9.071375e+00	1.537043e+01	-2.631870e+00	-3.574434e+00	7.974495e+00	4.365831e+00	5.160403e+00	3.402715e+00	5.070328e+00	6.640769e+00	8.772315e+00	6.926440e-01	1.389648e+00	-2.791513e+00	2.960332e+00	1.471025e+01	-1.923261e+00	8.949887e-01	-1.106413e+00	2.434975e+00	5.713822e-01	9.800906e+00	9.202800e+00	3.693012e+00	8.495385e+00	1.072376e+01	1.093145e+01	1.035559e+01	1.055714e+01	9.983543e+00	2.346929e+00	1.039557e+01	1.155958e+01	8.620983e+00	1.292483e+01	1.273741e+01	1.369565e+01	9.470766e+00	3.513838e+00	1.198447e+01	4.023952e+00	-2.263356e+00	-9.313906e-01	-1.662847e+00	7.949431e+00	6.245490e+00	1.568060e+01	8.265446e+00	1.529979e+01	1.449829e+01	9.516307e+00	-1.244725e-01	-3.391625e-02	-6.554619e+00	3.606891e+00	2.082260e+00	1.296981e+01	2.820326e+00	1.922483e+00	1.943000e+00	3.610797e+00	1.028815e+01	9.884334e+00	1.169845e+01	8.758597e+00	9.787485e+00	6.271155e+00	6.838295e+00	7.420556e+00	6.136655e+00	6.870170e+00	1.540636e+01	1.195604e+01	1.800546e+00	9.231536e+00	4.108260e+00	1.375614e+00	2.772293e+00	3.696876e+00	-5.558880e+00	-6.349103e+00	5.491235e+00	-5.315254e+00	-3.515593e+00	1.883780e+00	1.069477e+01	1.222398e+01	1.618444e+01	5.134410e-01	7.537849e+00	7.998220e+00	4.507022e+00	8.974315e-01	1.430259e+00	1.498221e+01	9.620702e+00	1.473431e+01	2.397262e+00	7.061898e-01	9.934908e+00	1.782177e+00	-4.356986e+00	1.402322e+01	5.258817e+00	1.633567e+00	8.718391e-01	8.438943e+00	7.180816e-01	1.423631e+00	4.442589e-01	2.811484e+00	2.698601e-01	8.668340e-01	-1.797132e-01	-6.577240e-01	1.237322e+00	-1.843514e+00	1.398990e+00	5.906547e+00	7.480146e+00	-1.825742e-01	6.390365e+00	4.881287e+00	7.381515e+00	-1.378870e+00	4.459403e+00	1.153434e+00	5.045858e+00	-8.208516e-01	6.171950e-01	9.198753e+00	9.502879e+00	7.445946e+00	1.109029e+01	1.040812e+01	6.817659e+00	1.148490e+01	3.015115e+00	1.462530e+01	1.351887e+01	7.548798e+00	1.584476e+01	1.481186e+01	1.714301e+00	1.050334e+01	1.187229e+01	1.510250e+01	1.002419e+01	3.918025e+00	1.452936e+01	2.297194e+00	-3.769155e+00	1.455308e+01	-2.999755e+00	1.290755e+01	8.260799e+00	-4.242648e+00	1.238270e+01	9.388143e+00	2.478223e+00	7.402321e+00	-3.193270e+00	-3.668641e+00	8.193763e+00	2.790932e+00	3.548128e+00	1.051307e+01	7.978055e+00	8.154195e+00	1.129375e+01	9.880982e+00	3.112053e+00	2.304272e+00	1.545833e+00	7.821669e+00	-9.595491e-01	1.204458e+01	1.009975e+01	1.235944e+01	3.306442e+00	1.613546e+01	1.303997e+00	-4.061338e+00	-2.306969e+00	1.007389e+01	-2.736965e+00	1.074971e+01	1.119218e+01	5.743862e+00	5.589625e+00	9.097954e+00	-2.354104e-01	3.605510e-01	4.964203e-01	-1.019278e+00	1.287105e+01	1.443786e+01	2.578985e+00	1.276606e+01	7.955664e+00	1.555081e+01	6.735577e-01	1.153432e+01	6.303779e+00	7.524885e+00	1.203076e+00	5.739464e+00	1.338855e+01	7.199204e+00	2.176291e+00	7.865089e+00	
SCALARS Y-Momentum float 1
LOOKUP_TABLE default
-2.473149e-02	2.401330e-01	7.738632e+00	-5.256589e-01	6.590167e-01	2.295867e-01	5.850432e-02	-1.379284e-02	2.144378e-02	5.184499e-02	7.227056e-02	9.307306e-02	8.066213e-02	1.879358e-02	-4.368923e-03	-5.273015e-05	5.344104e-03	3.731726e-03	9.780552e-03	1.202929e-02	-7.313905e-03	4.743868e-03	-1.503602e-03	6.403837e-03	-1.997704e-02	7.654441e-01	1.382780e+00	2.034922e+00	2.769666e+00	3.537146e+00	4.315014e+00	5.119557e+00	5.987129e+00	6.956216e+00	7.870328e+00	8.426716e+00	9.229484e+00	-6.292796e-01	2.230043e+00	3.384660e+00	4.350236e+00	5.049936e+00	5.467209e+00	5.631607e+00	5.508327e+00	5.144161e+00	4.596871e+00	3.859867e+00	2.973045e+00	1.856961e+00	-6.060485e-03	2.877686e-02	2.851653e-02	9.724738e-03	6.201734e-03	1.784488e-02	2.027798e-02	-1.193506e-04	-5.898968e-02	-8.052940e-02	-1.004933e-01	-5.568947e-01	-6.487854e-01	-2.901488e-01	3.706963e-01	6.626848e-01	4.238864e-01	1.589811e-02	3.268975e-03	-8.251907e-03	-3.985702e-02	-2.447974e-02	-3.180548e-03	-4.506770e-03	4.721658e-03	-1.695590e-03	8.932574e+00	3.672510e+00	5.182672e-01	-2.988551e-01	5.214283e+00	5.216052e+00	7.639006e-01	6.347640e-01	4.467081e-01	1.018520e-01	5.192922e-01	8.292801e-01	4.424425e+00	2.964547e+00	7.306017e-01	9.306011e-01	4.746042e+00	6.873966e+00	3.047173e+00	1.643543e+00	-9.312856e-01	3.727490e-01	3.027924e-01	7.801392e-01	5.619983e-01	1.112683e+00	-6.943562e-01	2.794004e-01	-6.443361e-01	-5.710476e-02	7.652353e-01	8.680733e-01	9.069365e-02	1.072210e+00	1.813703e+00	2.109502e+00	1.453101e+00	2.470556e+00	1.973529e+00	2.936263e+00	3.566194e+00	4.142085e+00	4.517509e+00	5.162334e+00	4.898450e+00	5.632934e+00	4.630398e+00	5.320639e+00	2.367977e+00	2.601520e+00	4.014560e+00	1.811168e+00	2.480762e+00	3.877642e+00	4.010981e+00	5.446134e+00	3.845117e+00	4.661108e+00	3.406262e+00	2.953581e+00	3.860243e+00	2.817635e+00	2.877307e+00	3.264292e+00	2.703201e+00	2.973598e+00	3.477615e+00	5.935621e+00	1.744466e+00	1.406212e+00	3.064037e+00	2.559813e+00	2.789562e+00	2.937622e+00	2.231404e+00	3.986542e+00	2.688654e+00	3.562049e+00	2.119436e+00	2.655812e+00	1.941169e+00	3.270031e+00	6.632034e+00	2.066645e+00	6.923566e+00	6.076388e+00	2.878333e+00	3.244365e+00	3.680484e+00	3.791088e+00	1.710729e+00	9.619860e-01	9.082652e+00	5.004463e+00	4.397173e+00	3.141600e+00	3.714231e+00	1.655295e+00	3.471535e+00	2.139658e+00	1.868316e+00	4.086389e+00	3.740213e+00	7.934835e+00	2.842379e+00	3.224491e+00	2.450641e+00	1.547116e+00	1.856384e+00	2.248894e+00	7.018565e-01	1.634989e+00	2.565111e+00	2.208708e+00	2.751371e+00	6.348981e+00	6.885542e+00	1.082148e+00	4.479026e+00	4.578428e+00	1.927945e+00	3.665335e+00	3.849051e+00	2.257176e-01	3.082028e-01	-2.234108e-01	-2.634036e-01	-7.949714e-01	4.331377e+00	3.710151e+00	1.848824e+00	5.248855e+00	2.257837e+00	1.630262e+00	1.692352e+00	1.193890e+00	1.192907e+00	2.764753e+00	9.163263e+00	8.114743e+00	1.011673e+01	2.552993e+00	1.437527e+00	2.151511e+00	1.915648e+00	3.517106e+00	1.094136e+00	5.157843e+00	2.560070e+00	3.616140e+00	2.860396e+00	1.055298e+01	1.050595e+01	1.636268e+00	5.801476e-01	8.832767e-01	1.829584e+00	1.375465e+00	4.185998e+00	4.493106e+00	8.885660e-02	6.720675e+00	3.705721e+00	6.640374e-01	1.972051e+00	1.952921e+00	4.113826e+00	-9.945396e-01	7.368342e-01	6.986539e-01	4.764507e+00	5.255784e-01	3.287940e+00	6.162057e-01	1.127102e+00	9.058317e-01	1.387019e+00	1.800429e+00	1.366379e+00	6.465767e+00	4.432561e+00	8.639558e+00	8.089231e+00	4.470401e+00	5.734241e+00	8.906431e-01	7.754047e-01	4.336654e-01	7.039455e-01	-5.107769e-01	1.101473e+00	6.748044e-01	3.960283e-01	6.957974e+00	9.215522e-01	4.720033e+00	4.202526e-01	7.245921e-01	4.619488e-01	4.811402e+00	3.941053e+00	3.222183e+00	4.182655e-01	7.481771e-01	4.635891e+00	2.604855e+00	3.145982e-01	8.004773e+00	1.134579e+00	3.137359e+00	1.425524e+00	6.005979e+00	4.218541e+00	7.849344e-01	5.069175e+00	4.447028e+00	5.126509e+00	1.236281e+00	4.848148e+00	2.290213e+00	3.830137e+00	3.706467e+00	3.664191e+00	2.241963e+00	1.304190e+00	2.577453e+00	8.883838e+00	-1.003872e+00	3.198050e+00	-5.916254e-01	5.205381e+00	2.353152e+00	1.614525e+00	4.651418e+00	1.126462e+01	2.107917e+00	1.016884e+00	1.120038e+00	8.661551e-01	5.429496e+00	1.067816e+00	5.542915e+00	1.204267e+00	1.437903e+00	2.055939e+00	2.618204e+00	1.358046e+00	2.112558e+00	1.312379e+00	1.355804e+00	3.078655e+00	2.968605e+00	5.019047e-01	1.501596e+00	2.261990e+00	3.532095e+00	3.057493e+00	1.347805e+00	1.621602e+00	3.852670e+00	1.921383e+00	3.558220e+00	1.175541e+00	1.388600e+00	7.079804e+00	2.562311e+00	4.047683e+00	1.447018e+00	-5.673573e-01	-5.087312e-01	1.260215e-01	8.254408e+00	9.967666e+00	8.237860e+00	3.940602e+00	6.999358e+00	4.080575e+00	1.666916e+00	1.349520e+00	1.079623e+01	2.472672e+00	1.144337e+00	3.161793e+00	5.593468e+00	1.282878e-01	6.764553e-01	4.497180e+00	4.569527e-01	1.916758e+00	-8.379303e-02	-8.705449e-01	5.172643e-01	1.549227e+00	7.892577e-01	7.147992e+00	1.925561e+00	8.656911e+00	6.991764e-01	4.247135e+00	4.810279e+00	4.665708e-01	1.071904e+00	6.427322e+00	4.353108e+00	7.010916e+00	4.797156e+00	4.563606e+00	1.306062e+00	4.961847e+00	8.868478e-01	2.064924e+00	-5.950964e-01	4.696617e+00	-5.051567e-02	3.310586e+00	9.536342e+00	5.299310e+00	2.780474e+00	
SCALARS Energy float 1
LOOKUP_TABLE default