# vtk DataFile Version 3.0
vtk output
ASCII
DATASET UNSTRUCTURED_GRID
POINTS 394 float
-3.000000e+00	0.000000e+00	0.0	-5.000000e-02	2.572736e-17	0.0	2.845420e-01	1.022301e+00	0.0	3.845990e-01	9.785210e-01	0.0	5.000000e-02	-1.263875e-17	0.0	3.000000e+00	0.000000e+00	0.0	3.000000e+00	4.000000e+00	0.0	-3.000000e+00	4.000000e+00	0.0	-3.000000e+00	3.428571e+00	0.0	-3.000000e+00	2.857143e+00	0.0	-3.000000e+00	2.285714e+00	0.0	-3.000000e+00	1.714286e+00	0.0	-3.000000e+00	1.142857e+00	0.0	-3.000000e+00	5.714286e-01	0.0	-2.473871e+00	0.000000e+00	0.0	-2.029066e+00	0.000000e+00	0.0	-1.653013e+00	0.000000e+00	0.0	-1.335087e+00	0.000000e+00	0.0	-1.066302e+00	0.000000e+00	0.0	-8.390627e-01	0.000000e+00	0.0	-6.469477e-01	0.000000e+00	0.0	-4.845277e-01	0.000000e+00	0.0	-3.472127e-01	0.000000e+00	0.0	-2.311224e-01	0.000000e+00	0.0	-1.329760e-01	0.000000e+00	0.0	-4.514829e-02	8.184872e-02	0.0	-3.386137e-02	1.629751e-01	0.0	-1.678278e-02	2.432959e-01	0.0	4.885455e-03	3.229078e-01	0.0	3.011505e-02	4.019033e-01	0.0	5.801744e-02	4.803757e-01	0.0	8.785445e-02	5.584267e-01	0.0	1.190563e-01	6.361596e-01	0.0	1.512125e-01	7.136659e-01	0.0	1.840442e-01	7.910058e-01	0.0	2.173210e-01	8.682225e-01	0.0	2.509340e-01	9.452962e-01	0.0	3.345711e-01	1.000460e+00	0.0	3.508662e-01	9.016357e-01	0.0	3.173078e-01	8.247967e-01	0.0	2.840132e-01	7.480800e-01	0.0	2.511841e-01	6.714906e-01	0.0	2.190292e-01	5.950650e-01	0.0	1.878314e-01	5.188682e-01	0.0	1.579991e-01	4.429935e-01	0.0	1.301026e-01	3.675476e-01	0.0	1.048790e-01	2.926346e-01	0.0	8.321727e-02	2.183505e-01	0.0	6.614977e-02	1.447834e-01	0.0	5.480359e-02	7.200389e-02	0.0	1.329760e-01	0.000000e+00	0.0	2.311224e-01	0.000000e+00	0.0	3.472127e-01	0.000000e+00	0.0	4.845277e-01	0.000000e+00	0.0	6.469477e-01	0.000000e+00	0.0	8.390627e-01	0.000000e+00	0.0	1.066302e+00	0.000000e+00	0.0	1.335087e+00	0.000000e+00	0.0	1.653013e+00	0.000000e+00	0.0	2.029066e+00	0.000000e+00	0.0	2.473871e+00	0.000000e+00	0.0	3.000000e+00	5.714286e-01	0.0	3.000000e+00	1.142857e+00	0.0	3.000000e+00	1.714286e+00	0.0	3.000000e+00	2.285714e+00	0.0	3.000000e+00	2.857143e+00	0.0	3.000000e+00	3.428571e+00	0.0	2.400000e+00	4.000000e+00	0.0	1.800000e+00	4.000000e+00	0.0	1.200000e+00	4.000000e+00	0.0	6.000000e-01	4.000000e+00	0.0	0.000000e+00	4.000000e+00	0.0	-6.000000e-01	4.000000e+00	0.0	-1.200000e+00	4.000000e+00	0.0	-1.800000e+00	4.000000e+00	0.0	-2.400000e+00	4.000000e+00	0.0	1.405058e-01	9.234761e-01	0.0	3.812903e-01	8.533022e-01	0.0	-1.466469e+00	2.798729e-01	0.0	1.527742e+00	1.968017e-01	0.0	2.473007e-01	5.430640e-01	0.0	1.458665e-02	6.126769e-01	0.0	-7.295327e-01	1.918464e-01	0.0	7.720105e-01	1.282279e-01	0.0	-2.551570e+00	2.097399e+00	0.0	2.581427e+00	1.915097e+00	0.0	-8.533341e-01	3.519471e+00	0.0	1.006451e+00	3.447166e+00	0.0	1.744457e-01	3.224782e-01	0.0	-6.258748e-02	3.708484e-01	0.0	-4.034860e-01	1.313547e-01	0.0	4.311932e-01	9.119416e-02	0.0	3.142564e-01	6.946336e-01	0.0	7.278103e-02	7.693032e-01	0.0	1.454968e-01	1.794970e-01	0.0	-9.956843e-02	2.113549e-01	0.0	2.555064e+00	7.741808e-01	0.0	-2.483688e+00	8.138775e-01	0.0	-2.024457e+00	3.466944e+00	0.0	2.111247e+00	3.422159e+00	0.0	-1.788325e-01	8.359250e-02	0.0	1.903251e-01	6.634520e-02	0.0	2.250191e+00	3.625674e-01	0.0	-2.240343e+00	3.753450e-01	0.0	2.532847e+00	1.360994e+00	0.0	2.193537e+00	1.654937e+00	0.0	2.177715e+00	2.074543e+00	0.0	1.865466e+00	1.806407e+00	0.0	1.838938e+00	1.398975e+00	0.0	1.583348e+00	1.599245e+00	0.0	1.560443e+00	1.952128e+00	0.0	1.334353e+00	1.739102e+00	0.0	1.337095e+00	1.435296e+00	0.0	1.132314e+00	1.556602e+00	0.0	1.132223e+00	1.304709e+00	0.0	9.449774e-01	1.385013e+00	0.0	9.268966e-01	1.652650e+00	0.0	7.651176e-01	1.510607e+00	0.0	7.299550e-01	1.750518e+00	0.0	5.764169e-01	1.637222e+00	0.0	5.278823e-01	1.854886e+00	0.0	3.822826e-01	1.735382e+00	0.0	3.100630e-01	1.960044e+00	0.0	1.528500e-01	1.796649e+00	0.0	9.702797e-01	1.169429e+00	0.0	1.283299e+00	2.083423e+00	0.0	5.152471e-01	2.121606e+00	0.0	1.102121e+00	1.054667e+00	0.0	9.388818e-01	9.803866e-01	0.0	5.660815e-02	2.079224e+00	0.0	-1.523658e-01	1.928378e+00	0.0	-5.305836e-02	1.653490e+00	0.0	-3.771195e-01	1.780174e+00	0.0	-3.078714e-01	1.540946e+00	0.0	-6.010458e-01	1.623749e+00	0.0	-6.290978e-01	1.859840e+00	0.0	-5.448643e-01	1.380117e+00	0.0	-8.506850e-01	1.457931e+00	0.0	8.262337e-01	1.065485e+00	0.0	7.953633e-01	8.956888e-01	0.0	9.021651e-01	8.023626e-01	0.0	-2.387541e-01	2.215087e+00	0.0	7.500038e-01	7.237104e-01	0.0	4.322265e-01	1.508312e+00	0.0	3.383555e-01	1.050627e+00	0.0	3.985430e-01	1.023006e+00	0.0	3.671783e-01	1.099110e+00	0.0	4.342300e-01	1.087274e+00	0.0	6.146264e-03	2.389962e+00	0.0	-8.044321e-01	1.195144e+00	0.0	-1.117233e+00	1.272461e+00	0.0	-5.111767e-01	1.119776e+00	0.0	-8.148597e-01	9.158959e-01	0.0	-5.376178e-01	8.920025e-01	0.0	-1.167245e+00	1.570833e+00	0.0	8.564456e-01	6.308034e-01	0.0	1.020296e+00	7.026294e-01	0.0	6.990336e-01	5.698818e-01	0.0	-6.428194e-02	1.418876e+00	0.0	1.519040e+00	2.317244e+00	0.0	2.903450e-01	1.107738e+00	0.0	3.291045e-01	1.173470e+00	0.0	4.580404e-01	1.000295e+00	0.0	5.088866e-01	1.072454e+00	0.0	4.724906e-01	1.162071e+00	0.0	5.313031e-01	9.726674e-01	0.0	9.691722e-01	5.295781e-01	0.0	1.168648e+00	6.184851e-01	0.0	2.330841e-01	1.182831e+00	0.0	-3.145531e-01	1.008562e+00	0.0	-3.329221e-01	8.305609e-01	0.0	-5.207118e-01	6.956895e-01	0.0	-3.197503e-01	6.603526e-01	0.0	-1.456254e+00	1.359671e+00	0.0	5.713243e-01	1.157238e+00	0.0	-3.285471e-01	2.535215e+00	0.0	-5.799121e-02	2.749528e+00	0.0	6.054059e-01	6.482521e-01	0.0	5.519157e-01	5.078637e-01	0.0	2.826089e-01	1.266226e+00	0.0	6.435533e-01	4.299511e-01	0.0	4.968028e-01	3.771376e-01	0.0	1.209302e+00	2.462940e+00	0.0	-1.515716e+00	1.694635e+00	0.0	1.459726e+00	2.707747e+00	0.0	5.825448e-01	3.009401e-01	0.0	1.100182e+00	3.658539e-01	0.0	-1.392226e+00	1.065192e+00	0.0	-4.934799e-01	5.201865e-01	0.0	-6.607244e-01	5.491344e-01	0.0	-3.431431e-01	4.809238e-01	0.0	-1.340451e-01	9.521506e-01	0.0	-1.404683e-01	1.102474e+00	0.0	-1.917765e+00	1.464327e+00	0.0	4.669077e-01	5.854800e-01	0.0	5.296496e-01	7.214310e-01	0.0	7.423548e-01	3.483027e-01	0.0	-2.052507e-01	5.740769e-01	0.0	8.673286e-01	1.928748e+00	0.0	1.318022e+00	5.298356e-01	0.0	1.371854e+00	7.419336e-01	0.0	1.545316e+00	6.039101e-01	0.0	1.612212e+00	8.760082e-01	0.0	1.854034e+00	7.441337e-01	0.0	5.143844e-01	1.261856e+00	0.0	6.287145e-01	1.253535e+00	0.0	-4.752624e-01	3.538285e-01	0.0	-2.913414e-01	1.345034e+00	0.0	-5.941680e-01	2.328671e+00	0.0	-7.085939e-01	2.682781e+00	0.0	-1.002427e+00	2.466169e+00	0.0	-1.115343e+00	2.825415e+00	0.0	-1.492615e+00	2.502653e+00	0.0	-2.117176e-01	4.268223e-01	0.0	1.638392e-01	1.273011e+00	0.0	2.092110e-01	1.377155e+00	0.0	1.215797e-01	1.180339e+00	0.0	3.171823e-01	2.559703e+00	0.0	2.650515e-01	3.020937e+00	0.0	6.229560e-01	2.764923e+00	0.0	-1.212371e+00	1.903838e+00	0.0	7.003286e-01	9.814004e-01	0.0	-1.800868e-01	3.166316e+00	0.0	-1.742057e-01	7.946273e-01	0.0	4.397576e-01	2.575011e-01	0.0	3.431485e-01	3.263703e-01	0.0	3.096198e-01	2.259996e-01	0.0	1.910784e-01	1.111976e+00	0.0	9.005216e-02	1.087595e+00	0.0	1.803772e+00	2.561496e+00	0.0	1.519605e+00	1.283517e+00	0.0	2.514241e+00	2.485639e+00	0.0	1.052725e+00	2.886956e+00	0.0	-1.579513e+00	2.059406e+00	0.0	3.999962e-01	4.495482e-01	0.0	2.845599e-01	4.038237e-01	0.0	1.233223e+00	1.772373e-01	0.0	-4.388031e-02	8.680358e-01	0.0	-1.171093e-01	5.086266e-01	0.0	4.524721e-01	3.518171e+00	0.0	-3.318399e-01	3.315714e-01	0.0	-2.181966e-01	2.981142e-01	0.0	6.558474e-01	8.225111e-01	0.0	2.191552e+00	1.013402e+00	0.0	-1.596826e+00	3.039344e+00	0.0	-1.953743e+00	2.691799e+00	0.0	5.635777e-01	1.379654e+00	0.0	-2.455468e+00	1.332753e+00	0.0	7.861291e-01	1.309394e+00	0.0	-1.178061e+00	2.516178e-01	0.0	-1.271207e+00	5.256836e-01	0.0	-1.560027e+00	5.756561e-01	0.0	-9.975550e-01	4.994786e-01	0.0	-1.082981e+00	7.589514e-01	0.0	1.742319e+00	3.019023e+00	0.0	1.574505e-01	1.609846e+00	0.0	5.542413e-01	8.540137e-01	0.0	3.471787e-02	1.272748e+00	0.0	-1.123422e-02	9.574644e-01	0.0	4.447645e-01	7.843881e-01	0.0	-5.314217e-02	7.440137e-01	0.0	-5.459419e-01	1.937612e-01	0.0	5.850871e-01	1.023521e-01	0.0	9.945970e-01	1.664132e-01	0.0	-9.369259e-01	2.229603e-01	0.0	1.853799e+00	2.451514e-01	0.0	3.031682e-01	7.812866e-02	0.0	-2.760990e-01	1.066771e-01	0.0	-1.435352e+00	3.536730e+00	0.0	3.441957e-01	1.370314e+00	0.0	2.557108e+00	3.094839e+00	0.0	3.630142e-01	5.276174e-01	0.0	-1.818000e+00	3.236169e-01	0.0	-1.937916e+00	7.291484e-01	0.0	1.445250e+00	1.006606e+00	0.0	3.778658e-01	6.282969e-01	0.0	4.660557e-01	8.984131e-01	0.0	9.759240e-01	2.213418e+00	0.0	-2.496238e+00	2.543806e+00	0.0	1.511787e+00	3.501616e+00	0.0	-9.186072e-02	6.320810e-01	0.0	4.069854e-01	9.410611e-01	0.0	-2.426573e+00	3.084836e+00	0.0	1.057158e-01	8.454254e-01	0.0	8.764217e-01	2.656913e-01	0.0	6.529711e-01	2.407269e+00	0.0	-7.903127e-01	3.752752e-01	0.0	4.146410e-02	6.915105e-01	0.0	3.481814e-01	7.713611e-01	0.0	-2.103609e+00	1.096345e+00	0.0	2.792270e-01	6.219923e-01	0.0	-2.077331e-02	5.417512e-01	0.0	2.222694e-01	4.683650e-01	0.0	1.209429e+00	8.553166e-01	0.0	1.966900e-01	3.925782e-01	0.0	-7.990018e-02	2.891391e-01	0.0	1.548838e-01	2.504364e-01	0.0	2.397790e-01	2.768909e-01	0.0	-4.571282e-02	4.541085e-01	0.0	2.378816e-01	1.448124e-01	0.0	-1.949722e-01	1.901562e-01	0.0	-7.213434e-01	7.126096e-01	0.0	-3.510836e-03	1.162084e+00	0.0	2.166679e+00	6.819191e-01	0.0	7.051772e-01	1.139358e+00	0.0	1.886538e+00	1.075769e+00	0.0	2.877700e-01	1.061433e+00	0.0	8.020421e-01	4.847794e-01	0.0	-6.174279e-01	3.663082e-01	0.0	3.940251e-01	7.220492e-01	0.0	1.651596e-01	1.042611e+00	0.0	1.253440e-01	1.067094e-01	0.0	-1.077892e-01	1.260898e-01	0.0	-1.853538e+00	1.833691e+00	0.0	-2.005476e+00	2.212004e+00	0.0	-2.842899e-01	1.175302e+00	0.0	-7.931138e-01	3.079297e+00	0.0	3.855265e-01	1.247158e+00	0.0	1.294126e+00	1.155959e+00	0.0	-4.324832e-01	2.915161e+00	0.0	1.036356e+00	8.767400e-01	0.0	9.059412e-01	2.546716e+00	0.0	6.857127e-01	3.127673e+00	0.0	-1.096816e+00	9.986615e-01	0.0	2.148264e+00	2.833887e+00	0.0	1.368919e+00	3.114256e+00	0.0	-1.272120e-
[...]
POINT_DATA 394

SCALARS Density float 1
LOOKUP_TABLE default
1.223720e+00	1.223965e+00	1.221569e+00	1.221675e+00	1.223223e+00	1.223554e+00	1.223276e+00	1.223586e+00	1.223569e+00	1.223582e+00	1.223626e+00	1.223655e+00	1.223722e+00	1.223729e+00	1.223741e+00	1.223731e+00	1.223764e+00	1.223786e+00	1.223829e+00	1.223856e+00	1.223878e+00	1.223940e+00	1.223916e+00	1.224015e+00	1.223912e+00	1.224051e+00	1.223921e+00	1.223936e+00	1.223927e+00	1.223892e+00	1.223870e+00	1.223821e+00	1.223807e+00	1.223713e+00	1.223796e+00	1.222938e+00	1.224924e+00	1.219618e+00	1.223666e+00	1.223191e+00	1.223203e+00	1.223175e+00	1.223116e+00	1.223084e+00	1.223074e+00	1.223075e+00	1.223097e+00	1.223135e+00	1.223064e+00	1.223291e+00	1.223078e+00	1.223189e+00	1.223116e+00	1.223056e+00	1.223015e+00	1.222987e+00	1.222902e+00	1.222924e+00	1.222942e+00	1.223096e+00	1.222634e+00	1.223288e+00	1.223018e+00	1.222861e+00	1.222809e+00	1.222949e+00	1.223101e+00	1.223104e+00	1.223237e+00	1.223269e+00	1.223351e+00	1.223406e+00	1.223489e+00	1.223543e+00	1.223575e+00	1.223575e+00	1.223017e+00	1.223530e+00	1.223774e+00	1.222879e+00	1.223123e+00	1.223771e+00	1.223852e+00	1.222952e+00	1.223624e+00	1.223281e+00	1.223510e+00	1.223306e+00	1.223099e+00	1.223889e+00	1.223928e+00	1.223058e+00	1.223264e+00	1.223554e+00	1.223189e+00	1.223944e+00	1.222894e+00	1.223721e+00	1.223595e+00	1.223132e+00	1.223973e+00	1.223160e+00	1.223043e+00	1.223714e+00	1.222910e+00	1.222837e+00	1.223089e+00	1.223061e+00	1.222929e+00	1.222954e+00	1.222997e+00	1.223223e+00	1.222742e+00	1.222818e+00	1.222833e+00	1.222982e+00	1.222829e+00	1.223144e+00	1.223107e+00	1.223258e+00	1.223172e+00	1.223233e+00	1.223450e+00	1.223326e+00	1.222803e+00	1.223007e+00	1.223257e+00	1.222631e+00	1.222802e+00	1.223412e+00	1.223500e+00	1.223510e+00	1.223446e+00	1.223593e+00	1.223662e+00	1.223550e+00	1.223640e+00	1.223637e+00	1.222958e+00	1.222858e+00	1.222944e+00	1.223508e+00	1.222968e+00	1.223189e+00	1.221364e+00	1.221569e+00	1.222625e+00	1.222708e+00	1.223409e+00	1.223707e+00	1.223696e+00	1.223750e+00	1.223761e+00	1.223779e+00	1.223656e+00	1.222869e+00	1.222695e+00	1.222971e+00	1.223526e+00	1.223197e+00	1.221598e+00	1.223126e+00	1.222631e+00	1.222633e+00	1.222493e+00	1.222880e+00	1.222907e+00	1.222830e+00	1.223111e+00	1.223730e+00	1.223763e+00	1.223807e+00	1.223781e+00	1.223679e+00	1.222568e+00	1.223472e+00	1.223456e+00	1.223109e+00	1.223025e+00	1.223083e+00	1.222986e+00	1.223047e+00	1.223283e+00	1.223650e+00	1.223175e+00	1.223056e+00	1.222794e+00	1.223729e+00	1.223842e+00	1.223860e+00	1.223929e+00	1.223681e+00	1.223604e+00	1.223688e+00	1.223079e+00	1.223148e+00	1.222929e+00	1.223865e+00	1.223357e+00	1.222695e+00	1.222886e+00	1.222658e+00	1.222667e+00	1.222807e+00	1.222770e+00	1.222738e+00	1.223911e+00	1.223530e+00	1.223528e+00	1.223511e+00	1.223576e+00	1.223555e+00	1.223616e+00	1.223871e+00	1.223140e+00	1.223476e+00	1.223452e+00	1.223331e+00	1.223370e+00	1.223404e+00	1.223623e+00	1.222726e+00	1.223404e+00	1.223828e+00	1.223037e+00	1.223060e+00	1.223097e+00	1.223702e+00	1.223055e+00	1.223093e+00	1.222706e+00	1.223292e+00	1.223291e+00	1.223639e+00	1.223120e+00	1.223008e+00	1.222707e+00	1.223634e+00	1.223970e+00	1.223401e+00	1.223904e+00	1.223939e+00	1.222896e+00	1.222715e+00	1.223550e+00	1.223587e+00	1.222610e+00	1.223666e+00	1.222853e+00	1.223813e+00	1.223835e+00	1.223704e+00	1.223808e+00	1.223739e+00	1.223258e+00	1.223503e+00	1.222968e+00	1.223428e+00	1.223670e+00	1.223227e+00	1.223833e+00	1.223952e+00	1.223029e+00	1.222931e+00	1.223850e+00	1.222729e+00	1.223187e+00	1.223988e+00	1.223551e+00	1.223031e+00	1.223165e+00	1.223165e+00	1.223769e+00	1.223715e+00	1.222782e+00	1.223110e+00	1.222836e+00	1.223221e+00	1.223625e+00	1.223237e+00	1.223779e+00	1.222919e+00	1.223610e+00	1.224004e+00	1.222923e+00	1.223341e+00	1.223823e+00	1.223805e+00	1.223195e+00	1.223685e+00	1.223194e+00	1.223815e+00	1.223113e+00	1.222780e+00	1.223106e+00	1.223927e+00	1.223112e+00	1.223049e+00	1.223831e+00	1.223036e+00	1.223969e+00	1.223785e+00	1.223597e+00	1.222717e+00	1.222810e+00	1.223106e+00	1.225168e+00	1.222955e+00	1.223905e+00	1.223095e+00	1.223413e+00	1.223100e+00	1.223947e+00	1.223634e+00	1.223638e+00	1.223667e+00	1.223510e+00	1.222655e+00	1.222875e+00	1.223468e+00	1.222715e+00	1.223238e+00	1.223278e+00	1.223771e+00	1.223306e+00	1.223244e+00	1.223933e+00	1.223557e+00	1.223504e+00	1.223061e+00	1.223559e+00	1.222734e+00	1.223153e+00	1.223889e+00	1.223002e+00	1.223361e+00	1.223056e+00	1.223369e+00	1.223738e+00	1.222952e+00	1.223319e+00	1.223626e+00	1.222794e+00	1.223740e+00	1.223038e+00	1.222219e+00	1.223747e+00	1.223794e+00	1.223248e+00	1.223402e+00	1.222456e+00	1.223610e+00	1.223067e+00	1.223595e+00	1.223832e+00	1.225410e+00	1.223937e+00	1.223732e+00	1.223042e+00	1.223209e+00	1.223562e+00	1.223415e+00	1.223797e+00	1.223031e+00	1.223945e+00	1.222862e+00	1.222806e+00	1.223575e+00	1.222809e+00	1.223570e+00	1.223301e+00	1.223809e+00	1.223782e+00	1.223690e+00	1.223030e+00	1.223038e+00	1.223975e+00	1.223264e+00	1.223464e+00	1.223146e+00	1.223592e+00	1.222726e+00	1.223420e+00	1.223157e+00	1.223060e+00	1.223466e+00	1.223764e+00	1.222834e+00	1.223191e+00	1.222575e+00	1.223280e+00	1.222917e+00	1.223709e+00	1.222705e+00	
SCALARS X-Momentum float 1
LOOKUP_TABLE default
8.647142e+00	3.583019e-01	6.293732e+00	-2.596799e-01	-6.363204e-01	-4.626390e+00	1.620119e+01	1.032777e+01	1.018812e+01	9.974228e+00	9.710011e+00	9.403235e+00	9.110362e+00	8.833182e+00	8.493025e+00	8.183702e+00	7.714721e+00	7.110653e+00	6.422026e+00	5.637977e+00	4.760584e+00	3.914835e+00	2.953958e+00	2.018799e+00	1.108060e+00	5.270668e-02	3.315616e-01	7.175765e-01	1.137457e+00	1.581704e+00	2.013579e+00	2.428975e+00	2.842388e+00	3.246230e+00	3.567456e+00	3.567583e+00	3.314041e+00	4.243033e+00	5.331073e-01	7.580246e-01	1.197273e+00	1.474227e+00	1.654675e+00	1.735211e+00	1.662791e+00	1.467820e+00	1.193350e+00	8.472169e-01	5.170034e-01	2.515403e-01	-2.060667e+00	-3.716955e+00	-5.102154e+00	-6.328073e+00	-7.312791e+00	-8.034984e+00	-8.536828e+00	-8.759538e+00	-8.224411e+00	-7.276104e+00	-6.293167e+00	-7.312136e-01	4.830092e+00	1.025644e+01	1.413771e+01	1.600432e+01	1.641187e+01	1.551967e+01	1.466506e+01	1.374495e+01	1.297995e+01	1.233494e+01	1.174649e+01	1.120960e+01	1.076479e+01	1.046685e+01	4.093518e+00	1.486268e+00	7.586568e+00	-5.941044e+00	1.668816e+00	3.398929e+00	5.444731e+00	-5.748979e+00	9.636412e+00	1.256847e+01	1.135487e+01	1.384539e+01	8.396255e-01	2.096180e+00	3.527477e+00	-4.323242e+00	1.755641e+00	4.124090e+00	-1.111747e-01	1.304704e+00	1.140179e+00	8.838714e+00	1.045412e+01	1.551247e+01	1.568624e+00	-2.026273e+00	-3.152650e+00	8.506982e+00	7.468161e+00	1.099059e+01	1.413039e+01	1.301287e+01	9.042851e+00	1.179154e+01	1.448684e+01	1.359261e+01	1.044979e+01	1.233010e+01	8.834668e+00	1.057804e+01	1.380840e+01	1.287082e+01	1.458245e+01	1.419970e+01	1.449105e+01	1.401536e+01	1.361627e+01	1.281459e+01	6.905055e+00	1.520898e+01	1.414884e+01	5.183675e+00	4.092645e+00	1.249332e+01	1.161443e+01	1.150471e+01	1.070126e+01	1.022519e+01	9.946685e+00	1.034526e+01	9.282687e+00	9.306801e+00	4.943897e+00	2.849129e+00	2.106105e+00	1.162284e+01	1.606495e+00	1.375253e+01	5.657357e+00	2.239014e+00	6.642900e+00	4.592045e+00	1.234255e+01	8.610559e+00	8.843486e+00	8.328503e+00	7.709300e+00	7.255583e+00	9.390942e+00	5.322270e-01	9.583307e-01	4.981524e-01	1.069118e+01	1.553072e+01	9.511267e+00	1.046750e+01	1.878469e+00	3.981484e+00	7.461719e+00	2.353673e+00	-1.019291e+00	-4.630574e-01	1.132681e+01	7.670986e+00	6.578457e+00	6.303592e+00	5.442894e+00	9.035997e+00	6.497478e+00	1.162944e+01	1.222864e+01	1.535154e+00	5.822487e-01	1.235879e+01	-7.474753e-01	-5.542626e-01	1.530331e+01	9.480544e+00	1.534654e+01	-2.056348e+00	-3.268403e+00	8.541371e+00	5.429650e+00	6.109528e+00	4.562376e+00	6.847418e+00	8.160120e+00	9.191857e+00	1.569028e+00	2.120313e+00	-2.272181e+00	4.384327e+00	1.495377e+01	-1.746137e+00	9.112988e-01	-9.658746e-01	2.440516e+00	7.200895e-01	1.019366e+01	9.297831e+00	4.656500e+00	9.453052e+00	1.101844e+01	1.115187e+01	1.063129e+01	1.077736e+01	1.026083e+01	3.512313e+00	1.172894e+01	1.267756e+01	1.024349e+01	1.310346e+01	1.281245e+01	1.377244e+01	9.861471e+00	3.377447e+00	1.208138e+01	5.775122e+00	-1.683555e+00	-2.064334e-01	-1.128110e+00	9.746153e+00	8.217523e+00	1.564501e+01	8.097748e+00	1.535506e+01	1.449812e+01	9.858251e+00	7.411592e-01	8.667709e-01	-6.173875e+00	5.717277e+00	3.499891e+00	1.295115e+01	3.790990e+00	2.824556e+00	2.273269e+00	3.764235e+00	1.050291e+01	1.014087e+01	1.220182e+01	9.156809e+00	9.764542e+00	6.990615e+00	7.526234e+00	8.025810e+00	6.923976e+00	7.607756e+00	1.533952e+01	1.272163e+01	2.235104e+00	1.055733e+01	6.309173e+00	2.105328e+00	4.777089e+00	4.543196e+00	-5.177292e+00	-5.967998e+00	6.279884e+00	-4.988054e+00	-3.252848e+00	2.513406e+00	1.084599e+01	1.324064e+01	1.613057e+01	1.478750e+00	8.114366e+00	8.520547e+00	4.379912e+00	1.853708e+00	1.823293e+00	1.512465e+01	9.893907e+00	1.463702e+01	4.110073e+00	8.870468e-01	1.016488e+01	4.380151e+00	-3.939944e+00	1.419629e+01	6.119947e+00	3.786165e+00	1.626219e+00	8.894685e+00	1.745928e+00	3.062592e+00	1.469526e+00	2.671579e+00	1.193481e+00	1.654530e+00	4.140724e-01	-7.411888e-04	2.583268e+00	-1.484509e+00	2.041098e+00	6.844910e+00	9.072293e+00	4.325440e-02	6.175967e+00	4.901458e+00	8.326215e+00	-8.887334e-01	5.376012e+00	2.032727e+00	7.280218e+00	-5.856442e-01	9.723524e-01	9.562123e+00	9.814030e+00	8.618213e+00	1.125473e+01	1.120172e+01	6.580070e+00	1.164550e+01	2.858783e+00	1.470434e+01	1.352651e+01	8.220823e+00	1.579372e+01	1.475654e+01	2.911154e+00	1.089377e+01	1.192211e+01	1.508564e+01	1.038850e+01	3.742249e+00	1.462254e+01	3.090137e+00	-3.308251e+00	1.479202e+01	-2.581750e+00	1.321148e+01	8.758456e+00	-3.774526e+00	1.330542e+01	9.858897e+00	2.557040e+00	8.039299e+00	-2.947442e+00	-3.183229e+00	8.682441e+00	5.248208e+00	5.888385e+00	1.165181e+01	8.447323e+00	9.391394e+00	1.155683e+01	1.020384e+01	3.982745e+00	4.937881e+00	2.531305e+00	8.383158e+00	-4.569754e-01	1.283394e+01	1.029797e+01	1.238831e+01	4.962289e+00	1.601655e+01	2.082319e+00	-3.779650e+00	-2.051585e+00	1.029816e+01	-2.330428e+00	1.092441e+01	1.211893e+01	6.616820e+00	7.511498e+00	9.452398e+00	5.713968e-01	1.344685e+00	7.272049e-01	-9.035218e-01	1.363249e+01	1.476543e+01	4.871648e+00	1.325851e+01	8.935405e+00	1.553712e+01	1.688054e+00	1.164594e+01	7.137435e+00	7.594036e+00	2.069690e+00	5.642750e+00	1.362369e+01	8.779718e+00	4.106225e+00	7.611308e+00	
SCALARS Y-Momentum float 1
LOOKUP_TABLE default
-2.090666e-02	3.523776e-01	6.578917e+00	-9.110928e-01	6.056805e-01	2.339476e-01	5.865630e-02	-1.275850e-02	1.721012e-02	4.536030e-02	6.243116e-02	7.994555e-02	6.712311e-02	1.257014e-02	-4.026780e-03	-2.616379e-04	6.068803e-03	5.075449e-03	1.084999e-02	1.342492e-02	-2.748798e-03	1.794734e-02	5.522191e-03	7.369627e-03	-2.888633e-02	1.137595e+00	2.045377e+00	2.932522e+00	3.859637e+00	4.749727e+00	5.587434e+00	6.394656e+00	7.215527e+00	8.097057e+00	8.833480e+00	9.156835e+00	9.538240e+00	-2.111852e+00	1.447950e+00	2.400494e+00	3.264640e+00	3.929397e+00	4.349992e+00	4.564103e+00	4.535283e+00	4.295003e+00	3.885958e+00	3.304005e+00	2.593548e+00	1.662680e+00	-2.807020e-03	3.471190e-02	2.620380e-02	7.734381e-03	1.945852e-03	8.733875e-03	1.285462e-02	1.783058e-03	-4.876690e-02	-7.337885e-02	-1.028933e-01	-5.616722e-01	-5.825298e-01	-1.259103e-01	5.630302e-01	8.002691e-01	4.777703e-01	1.286061e-02	-7.009270e-05	-1.118151e-02	-4.098416e-02	-2.597377e-02	-4.690743e-03	-4.951461e-03	2.937983e-03	-2.784512e-03	9.420522e+00	2.851147e+00	5.077267e-01	-2.573036e-01	4.148440e+00	6.254595e+00	8.580196e-01	5.143581e-01	4.030200e-01	2.371048e-01	4.598862e-01	8.165157e-01	3.664993e+00	3.929048e+00	9.199183e-01	7.449815e-01	3.683422e+00	7.753179e+00	2.580050e+00	2.313713e+00	-9.255047e-01	3.374363e-01	2.671885e-01	8.048871e-01	7.763899e-01	9.634947e-01	-6.832421e-01	2.560090e-01	-5.763471e-01	-1.288683e-02	8.412359e-01	8.338704e-01	2.388773e-02	8.918251e-01	1.711085e+00	1.837681e+00	1.126346e+00	2.028822e+00	1.505512e+00	2.295122e+00	3.088349e+00	3.498920e+00	4.127754e+00	4.716493e+00	4.647681e+00	5.380950e+00	4.440914e+00	5.115483e+00	1.811607e+00	2.458527e+00	3.840133e+00	1.465883e+00	2.110154e+00	3.680494e+00	3.784795e+00	5.218381e+00	3.602260e+00	4.422479e+00	3.183254e+00	2.722672e+00	3.674880e+00	2.639624e+00	2.339777e+00	2.903419e+00	2.441320e+00	2.762112e+00	3.124648e+00	5.488285e+00	6.954129e-01	6.873924e-01	2.007713e+00	1.647078e+00	2.615118e+00	2.818921e+00	2.096529e+00	3.908306e+00	2.645436e+00	3.600991e+00	1.958728e+00	2.387134e+00	1.793275e+00	2.823099e+00	6.398133e+00	2.034567e+00	6.119251e+00	5.309267e+00	2.277829e+00	2.459234e+00	2.706638e+00	3.271992e+00	1.559851e+00	9.236340e-01	8.642890e+00	5.019476e+00	4.592077e+00	3.311424e+00	4.103584e+00	1.530693e+00	2.570850e+00	1.958453e+00	1.724430e+00	3.530766e+00	3.093572e+00	7.502699e+00	2.357761e+00	2.603967e+00	2.391751e+00	1.418162e+00	1.858510e+00	1.810648e+00	6.497222e-01	1.530726e+00	2.837454e+00	2.357178e+00	3.203636e+00	6.512663e+00	6.799916e+00	9.895188e-01	3.670672e+00	3.932821e+00	1.607291e+00	4.298697e+00	3.561751e+00	2.571492e-01	2.936716e-01	-1.708182e-01	-2.572109e-01	-7.610811e-01	3.427938e+00	2.819994e+00	2.141259e+00	5.032387e+00	2.055447e+00	1.471227e+00	1.526657e+00	1.071062e+00	1.075283e+00	3.415083e+00	8.914164e+00	7.849817e+00	9.903989e+00	2.419983e+00	1.345026e+00	2.069326e+00	1.750929e+00	3.025765e+00	9.923149e-01	5.571853e+00	2.060332e+00	2.932103e+00	2.344954e+00	1.017491e+01	1.040297e+01	1.672548e+00	4.078256e-01	1.003921e+00	1.797905e+00	1.249387e+00	3.372786e+00	3.626726e+00	8.939541e-02	7.166249e+00	4.530124e+00	6.264905e-01	2.400202e+00	2.519538e+00	3.690167e+00	-9.912872e-01	6.585230e-01	6.300897e-01	4.022943e+00	4.749621e-01	2.485777e+00	6.260418e-01	1.109499e+00	8.649903e-01	1.416804e+00	1.764100e+00	1.395242e+00	6.255637e+00	3.934372e+00	8.422438e+00	8.348634e+00	3.691540e+00	6.433343e+00	1.054250e+00	6.120985e-01	3.640784e-01	7.473549e-01	-4.668536e-01	9.189174e-01	8.910234e-01	3.504092e-01	6.524470e+00	9.902745e-01	3.775837e+00	3.972788e-01	6.727861e-01	3.635310e-01	3.820985e+00	3.381351e+00	3.071441e+00	3.759861e-01	7.568867e-01	5.442471e+00	2.085656e+00	2.808766e-01	8.762543e+00	9.649454e-01	3.011858e+00	1.531829e+00	6.980537e+00	3.225103e+00	7.175949e-01	3.978260e+00	5.484302e+00	4.135511e+00	1.103312e+00	3.968547e+00	3.139764e+00	3.211677e+00	3.053435e+00	4.682084e+00	1.876994e+00	1.766001e+00	2.633678e+00	8.716652e+00	-9.824454e-01	2.463788e+00	-6.055842e-01	3.936829e+00	2.035585e+00	1.805252e+00	3.688614e+00	1.114519e+01	1.827280e+00	1.453388e+00	1.019915e+00	7.837415e-01	5.302744e+00	9.561055e-01	4.765900e+00	9.424275e-01	1.298604e+00	1.829366e+00	2.544618e+00	1.305908e+00	2.020818e+00	1.374435e+00	1.364643e+00	3.909950e+00	2.733484e+00	4.469963e-01	1.516823e+00	2.062164e+00	2.896460e+00	2.752617e+00	1.717732e+00	1.290085e+00	3.672939e+00	1.559665e+00	3.393875e+00	1.083675e+00	1.118180e+00	6.815812e+00	2.363160e+00	3.607286e+00	1.381912e+00	-5.067034e-01	-5.178568e-01	1.130944e-01	8.778926e+00	1.019555e+01	8.013178e+00	2.968070e+00	6.791322e+00	3.287645e+00	1.509742e+00	1.643753e+00	1.100089e+01	3.234867e+00	1.071422e+00	2.629825e+00	4.922838e+00	1.124827e-01	6.167504e-01	5.077698e+00	4.784654e-01	2.590547e+00	-2.732502e-02	-8.233359e-01	4.627413e-01	1.352325e+00	7.020998e-01	6.923874e+00	2.000797e+00	8.653252e+00	6.345258e-01	3.465507e+00	3.835823e+00	6.682648e-01	9.521475e-01	6.195393e+00	4.109308e+00	7.693598e+00	4.154422e+00	4.403131e+00	1.383611e+00	3.923293e+00	7.901074e-01	2.074838e+00	-5.991883e-01	3.841637e+00	-1.128020e-01	3.168158e+00	8.686198e+00	6.164162e+00	2.080983e+00	
SCALARS Energy float 1
LOOKUP_TABLE default