# vtk DataFile Version 3.0
vtk output
ASCII
DATASET UNSTRUCTURED_GRID
POINTS 394 float
-3.000000e+00	0.000000e+00	0.0	-5.000000e-02	5.617956e-17	0.0	4.491943e-01	1.033501e+00	0.0	5.492455e-01	9.669904e-01	0.0	5.000000e-02	-1.094533e-17	0.0	3.000000e+00	0.000000e+00	0.0	3.000000e+00	4.000000e+00	0.0	-3.000000e+00	4.000000e+00	0.0	-3.000000e+00	3.428571e+00	0.0	-3.000000e+00	2.857143e+00	0.0	-3.000000e+00	2.285714e+00	0.0	-3.000000e+00	1.714286e+00	0.0	-3.000000e+00	1.142857e+00	0.0	-3.000000e+00	5.714286e-01	0.0	-2.473871e+00	0.000000e+00	0.0	-2.029066e+00	0.000000e+00	0.0	-1.653013e+00	0.000000e+00	0.0	-1.335087e+00	0.000000e+00	0.0	-1.066302e+00	0.000000e+00	0.0	-8.390627e-01	0.000000e+00	0.0	-6.469477e-01	0.000000e+00	0.0	-4.845277e-01	0.000000e+00	0.0	-3.472127e-01	0.000000e+00	0.0	-2.311224e-01	0.000000e+00	0.0	-1.329760e-01	0.000000e+00	0.0	-4.335466e-02	8.378561e-02	0.0	-2.753548e-02	1.667392e-01	0.0	-3.218524e-03	2.486868e-01	0.0	2.806593e-02	3.297122e-01	0.0	6.495486e-02	4.099034e-01	0.0	1.062213e-01	4.893569e-01	0.0	1.507973e-01	5.681849e-01	0.0	1.978024e-01	6.465028e-01	0.0	2.465307e-01	7.244147e-01	0.0	2.964283e-01	8.020013e-01	0.0	3.470398e-01	8.793461e-01	0.0	3.980938e-01	9.564648e-01	0.0	4.992217e-01	1.000293e+00	0.0	4.980318e-01	8.901301e-01	0.0	4.470319e-01	8.133445e-01	0.0	3.964070e-01	7.367607e-01	0.0	3.465153e-01	6.604297e-01	0.0	2.977916e-01	5.844274e-01	0.0	2.507936e-01	5.088420e-01	0.0	2.062246e-01	4.337789e-01	0.0	1.649658e-01	3.593549e-01	0.0	1.280828e-01	2.856815e-01	0.0	9.680362e-02	2.128546e-01	0.0	7.249656e-02	1.409534e-01	0.0	5.659371e-02	7.002545e-02	0.0	1.329760e-01	0.000000e+00	0.0	2.311224e-01	0.000000e+00	0.0	3.472127e-01	0.000000e+00	0.0	4.845277e-01	0.000000e+00	0.0	6.469477e-01	0.000000e+00	0.0	8.390627e-01	0.000000e+00	0.0	1.066302e+00	0.000000e+00	0.0	1.335087e+00	0.000000e+00	0.0	1.653013e+00	0.000000e+00	0.0	2.029066e+00	0.000000e+00	0.0	2.473871e+00	0.000000e+00	0.0	3.000000e+00	5.714286e-01	0.0	3.000000e+00	1.142857e+00	0.0	3.000000e+00	1.714286e+00	0.0	3.000000e+00	2.285714e+00	0.0	3.000000e+00	2.857143e+00	0.0	3.000000e+00	3.428571e+00	0.0	2.400000e+00	4.000000e+00	0.0	1.800000e+00	4.000000e+00	0.0	1.200000e+00	4.000000e+00	0.0	6.000000e-01	4.000000e+00	0.0	0.000000e+00	4.000000e+00	0.0	-6.000000e-01	4.000000e+00	0.0	-1.200000e+00	4.000000e+00	0.0	-1.800000e+00	4.000000e+00	0.0	-2.400000e+00	4.000000e+00	0.0	2.705884e-01	9.412761e-01	0.0	5.198876e-01	8.353387e-01	0.0	-1.459880e+00	2.942996e-01	0.0	1.545438e+00	1.810833e-01	0.0	3.180861e-01	5.272195e-01	0.0	8.324002e-02	6.312997e-01	0.0	-7.226978e-01	2.071133e-01	0.0	7.872058e-01	1.140949e-01	0.0	-2.535665e+00	2.108477e+00	0.0	2.617925e+00	1.901759e+00	0.0	-8.171789e-01	3.527517e+00	0.0	1.059063e+00	3.444312e+00	0.0	2.051305e-01	3.109839e-01	0.0	-3.453446e-02	3.839524e-01	0.0	-3.989452e-01	1.421720e-01	0.0	4.399194e-01	8.279599e-02	0.0	4.176518e-01	6.771388e-01	0.0	1.720228e-01	7.889301e-01	0.0	1.584013e-01	1.718676e-01	0.0	-8.862667e-02	2.199606e-01	0.0	2.576667e+00	7.516566e-01	0.0	-2.475472e+00	8.268293e-01	0.0	-2.009192e+00	3.475299e+00	0.0	2.138927e+00	3.414576e+00	0.0	-1.766259e-01	8.822532e-02	0.0	1.939900e-01	6.236524e-02	0.0	2.268341e+00	3.431326e-01	0.0	-2.236411e+00	3.842767e-01	0.0	2.573305e+00	1.339436e+00	0.0	2.256937e+00	1.627806e+00	0.0	2.242584e+00	2.056665e+00	0.0	1.950204e+00	1.780151e+00	0.0	1.918921e+00	1.361758e+00	0.0	1.685469e+00	1.566648e+00	0.0	1.662115e+00	1.928438e+00	0.0	1.452594e+00	1.712257e+00	0.0	1.452213e+00	1.400727e+00	0.0	1.262256e+00	1.529310e+00	0.0	1.258915e+00	1.270383e+00	0.0	1.087831e+00	1.357180e+00	0.0	1.068913e+00	1.634689e+00	0.0	9.197128e-01	1.495091e+00	0.0	8.768486e-01	1.742212e+00	0.0	7.322430e-01	1.631710e+00	0.0	6.754861e-01	1.853602e+00	0.0	5.366960e-01	1.741196e+00	0.0	4.541016e-01	1.966320e+00	0.0	3.040209e-01	1.810507e+00	0.0	1.104233e+00	1.136051e+00	0.0	1.396244e+00	2.064138e+00	0.0	6.513472e-01	2.121548e+00	0.0	1.219117e+00	1.014829e+00	0.0	1.060369e+00	9.444576e-01	0.0	1.883216e-01	2.092805e+00	0.0	-2.504687e-02	1.952505e+00	0.0	9.401597e-02	1.679496e+00	0.0	-2.623960e-01	1.815696e+00	0.0	-1.845656e-01	1.582215e+00	0.0	-4.994417e-01	1.664190e+00	0.0	-5.288226e-01	1.897152e+00	0.0	-4.409999e-01	1.428297e+00	0.0	-7.703119e-01	1.500521e+00	0.0	9.630485e-01	1.035814e+00	0.0	9.197405e-01	8.629785e-01	0.0	1.007773e+00	7.658293e-01	0.0	-1.250374e-01	2.238682e+00	0.0	8.530010e-01	6.889791e-01	0.0	5.941764e-01	1.510012e+00	0.0	5.048144e-01	1.053472e+00	0.0	5.653602e-01	1.014195e+00	0.0	5.340612e-01	1.100040e+00	0.0	5.997819e-01	1.080761e+00	0.0	1.231093e-01	2.405825e+00	0.0	-7.333828e-01	1.239167e+00	0.0	-1.061431e+00	1.313597e+00	0.0	-4.171326e-01	1.168248e+00	0.0	-7.682338e-01	9.600729e-01	0.0	-4.719966e-01	9.399321e-01	0.0	-1.103131e+00	1.610345e+00	0.0	9.406972e-01	5.935069e-01	0.0	1.108457e+00	6.627561e-01	0.0	7.787237e-01	5.354773e-01	0.0	8.276133e-02	1.451576e+00	0.0	1.613440e+00	2.299950e+00	0.0	4.565126e-01	1.118342e+00	0.0	4.958214e-01	1.179485e+00	0.0	6.190449e-01	9.865058e-01	0.0	6.702930e-01	1.059270e+00	0.0	6.383201e-01	1.155256e+00	0.0	6.837170e-01	9.533854e-01	0.0	1.036277e+00	4.905636e-01	0.0	1.240515e+00	5.800318e-01	0.0	3.946788e-01	1.197802e+00	0.0	-2.152207e-01	1.054469e+00	0.0	-2.580336e-01	8.768306e-01	0.0	-4.748720e-01	7.360227e-01	0.0	-2.657593e-01	7.020370e-01	0.0	-1.411387e+00	1.397535e+00	0.0	7.316952e-01	1.143552e+00	0.0	-2.322133e-01	2.556661e+00	0.0	3.549836e-02	2.766554e+00	0.0	7.010456e-01	6.139280e-01	0.0	6.236587e-01	4.770563e-01	0.0	4.466621e-01	1.277283e+00	0.0	7.014243e-01	4.000570e-01	0.0	5.449563e-01	3.516622e-01	0.0	1.313170e+00	2.451646e+00	0.0	-1.464730e+00	1.728804e+00	0.0	1.542875e+00	2.694714e+00	0.0	6.197087e-01	2.773154e-01	0.0	1.142490e+00	3.332644e-01	0.0	-1.356661e+00	1.102239e+00	0.0	-4.636219e-01	5.525676e-01	0.0	-6.321056e-01	5.825337e-01	0.0	-3.122353e-01	5.117589e-01	0.0	-2.363137e-02	9.941442e-01	0.0	-1.599466e-02	1.142544e+00	0.0	-1.885511e+00	1.493215e+00	0.0	5.541131e-01	5.533192e-01	0.0	6.408071e-01	6.888694e-01	0.0	7.878928e-01	3.201671e-01	0.0	-1.554206e-01	6.079368e-01	0.0	1.005923e+00	1.920129e+00	0.0	1.374666e+00	4.956316e-01	0.0	1.444575e+00	7.016943e-01	0.0	1.598989e+00	5.676132e-01	0.0	1.684435e+00	8.372691e-01	0.0	1.903933e+00	7.095534e-01	0.0	6.774639e-01	1.254224e+00	0.0	7.873100e-01	1.239481e+00	0.0	-4.590808e-01	3.776193e-01	0.0	-1.708294e-01	1.390596e+00	0.0	-5.002943e-01	2.356297e+00	0.0	-6.335087e-01	2.703894e+00	0.0	-9.313390e-01	2.492273e+00	0.0	-1.057415e+00	2.842682e+00	0.0	-1.439850e+00	2.527773e+00	0.0	-1.828449e-01	4.528846e-01	0.0	3.211921e-01	1.292961e+00	0.0	3.688225e-01	1.393923e+00	0.0	2.742608e-01	1.203790e+00	0.0	4.350872e-01	2.564798e+00	0.0	3.467856e-01	3.028623e+00	0.0	7.257673e-01	2.763816e+00	0.0	-1.145790e+00	1.939016e+00	0.0	8.418056e-01	9.532524e-01	0.0	-1.179982e-01	3.181409e+00	0.0	-9.152366e-02	8.365281e-01	0.0	4.672316e-01	2.386676e-01	0.0	3.784139e-01	3.039443e-01	0.0	3.308196e-01	2.101949e-01	0.0	3.477736e-01	1.130379e+00	0.0	2.344520e-01	1.113262e+00	0.0	1.877343e+00	2.545135e+00	0.0	1.617196e+00	1.244224e+00	0.0	2.553370e+00	2.476500e+00	0.0	1.141219e+00	2.880070e+00	0.0	-1.528211e+00	2.090766e+00	0.0	4.597630e-01	4.204304e-01	0.0	3.313948e-01	3.829100e-01	0.0	1.251213e+00	1.613969e-01	0.0	6.262549e-02	9.026675e-01	0.0	-7.329496e-02	5.334513e-01	0.0	4.994879e-01	3.523660e+00	0.0	-3.151935e-01	3.528442e-01	0.0	-2.024140e-01	3.160685e-01	0.0	7.820461e-01	7.918263e-01	0.0	2.242191e+00	9.799942e-01	0.0	-1.561591e+00	3.052359e+00	0.0	-1.921843e+00	2.706030e+00	0.0	7.244055e-01	1.371389e+00	0.0	-2.440154e+00	1.350910e+00	0.0	9.364060e-01	1.287804e+00	0.0	-1.171348e+00	2.667520e-01	0.0	-1.253685e+00	5.527499e-01	0.0	-1.544332e+00	6.011256e-01	0.0	-9.778748e-01	5.316857e-01	0.0	-1.053268e+00	7.969276e-01	0.0	1.803852e+00	3.008607e+00	0.0	3.138136e-01	1.626518e+00	0.0	6.898161e-01	8.288250e-01	0.0	1.842545e-01	1.301285e+00	0.0	1.093094e-01	9.906693e-01	0.0	5.683390e-01	7.579049e-01	0.0	3.134424e-02	7.758125e-01	0.0	-5.396377e-01	2.105365e-01	0.0	5.958776e-01	9.189958e-02	0.0	1.013577e+00	1.481086e-01	0.0	-9.305998e-01	2.392580e-01	0.0	1.871382e+00	2.277154e-01	0.0	3.094485e-01	7.228148e-02	0.0	-2.727551e-01	1.140755e-01	0.0	-1.411239e+00	3.543941e+00	0.0	5.079817e-01	1.376946e+00	0.0	2.578377e+00	3.090477e+00	0.0	4.358278e-01	5.005941e-01	0.0	-1.812726e+00	3.366762e-01	0.0	-1.922437e+00	7.539064e-01	0.0	1.533279e+00	9.672521e-01	0.0	4.703557e-01	6.031280e-01	0.0	6.141765e-01	8.783698e-01	0.0	1.100817e+00	2.205691e+00	0.0	-2.480679e+00	2.553965e+00	0.0	1.553650e+00	3.496934e+00	0.0	-2.644018e-02	6.618648e-01	0.0	5.659901e-01	9.260041e-01	0.0	-2.411303e+00	3.089944e+00	0.0	2.198564e-01	8.642218e-01	0.0	9.097827e-01	2.397417e-01	0.0	7.769295e-01	2.406759e+00	0.0	-7.749241e-01	4.015780e-01	0.0	1.242471e-01	7.110959e-01	0.0	4.677686e-01	7.534832e-01	0.0	-2.083210e+00	1.121571e+00	0.0	3.662779e-01	6.054509e-01	0.0	3.402982e-02	5.605952e-01	0.0	2.782406e-01	4.532214e-01	0.0	1.302846e+00	8.127813e-01	0.0	2.383541e-01	3.792057e-01	0.0	-6.151731e-02	2.996493e-01	0.0	1.754813e-01	2.411079e-01	0.0	2.661547e-01	2.619523e-01	0.0	-5.894441e-03	4.700672e-01	0.0	2.496382e-01	1.352458e-01	0.0	-1.865775e-01	2.013456e-01	0.0	-6.848488e-01	7.518677e-01	0.0	1.373116e-01	1.194520e+00	0.0	2.200418e+00	6.517484e-01	0.0	8.555919e-01	1.116907e+00	0.0	1.955270e+00	1.037904e+00	0.0	4.527713e-01	1.071917e+00	0.0	8.661199e-01	4.509228e-01	0.0	-6.011943e-01	3.920425e-01	0.0	5.050048e-01	6.985680e-01	0.0	3.133238e-01	1.060882e+00	0.0	1.306482e-01	1.025394e-01	0.0	-1.034496e-01	1.309877e-01	0.0	-1.813388e+00	1.862252e+00	0.0	-1.970991e+00	2.235539e+00	0.0	-1.693785e-01	1.219113e+00	0.0	-7.369038e-01	3.092927e+00	0.0	5.525680e-01	1.249710e+00	0.0	1.402326e+00	1.117397e+00	0.0	-3.611365e-01	2.932161e+00	0.0	1.142492e+00	8.366883e-01	0.0	1.016437e+00	2.541182e+00	0.0	7.633976e-01	3.128319e+00	0.0	-1.055397e+00	1.038998e+00	0.0	2.199041e+00	2.820608e+00	0.0	1.435145e+00	3.105107e+00	0.0	-9.490697e-02	4.442
[...]
POINT_DATA 394

SCALARS Density float 1
LOOKUP_TABLE default
1.223707e+00	1.223908e+00	1.221513e+00	1.221970e+00	1.223431e+00	1.223615e+00	1.223277e+00	1.223585e+00	1.223570e+00	1.223581e+00	1.223621e+00	1.223646e+00	1.223709e+00	1.223715e+00	1.223723e+00	1.223711e+00	1.223739e+00	1.223755e+00	1.223795e+00	1.223819e+00	1.223835e+00	1.223903e+00	1.223866e+00	1.223981e+00	1.223854e+00	1.224032e+00	1.223859e+00	1.223863e+00	1.223843e+00	1.223794e+00	1.223763e+00	1.223704e+00	1.223691e+00	1.223600e+00	1.223683e+00	1.222912e+00	1.224770e+00	1.219725e+00	1.223809e+00	1.223344e+00	1.223404e+00	1.223399e+00	1.223355e+00	1.223330e+00	1.223322e+00	1.223319e+00	1.223335e+00	1.223363e+00	1.223294e+00	1.223481e+00	1.223296e+00	1.223386e+00	1.223324e+00	1.223269e+00	1.223227e+00	1.223192e+00	1.223110e+00	1.223098e+00	1.223100e+00	1.223237e+00	1.222767e+00	1.223350e+00	1.223086e+00	1.222904e+00	1.222832e+00	1.222950e+00	1.223091e+00	1.223110e+00	1.223252e+00	1.223289e+00	1.223370e+00	1.223416e+00	1.223490e+00	1.223540e+00	1.223571e+00	1.223573e+00	1.222913e+00	1.223737e+00	1.223746e+00	1.223049e+00	1.223370e+00	1.223678e+00	1.223821e+00	1.223161e+00	1.223616e+00	1.223313e+00	1.223509e+00	1.223305e+00	1.223336e+00	1.223815e+00	1.223892e+00	1.223268e+00	1.223489e+00	1.223477e+00	1.223406e+00	1.223882e+00	1.223026e+00	1.223704e+00	1.223591e+00	1.223126e+00	1.223940e+00	1.223364e+00	1.223169e+00	1.223696e+00	1.222998e+00	1.222887e+00	1.223103e+00	1.223106e+00	1.223028e+00	1.223014e+00	1.223016e+00	1.223274e+00	1.222805e+00	1.222863e+00	1.222957e+00	1.223062e+00	1.222844e+00	1.223140e+00	1.223127e+00	1.223247e+00	1.223160e+00	1.223222e+00	1.223429e+00	1.223311e+00	1.222889e+00	1.223022e+00	1.223245e+00	1.222791e+00	1.222967e+00	1.223398e+00	1.223489e+00	1.223491e+00	1.223426e+00	1.223564e+00	1.223632e+00	1.223528e+00	1.223604e+00	1.223613e+00	1.223096e+00	1.223024e+00	1.223144e+00	1.223495e+00	1.223186e+00	1.223174e+00	1.221147e+00	1.221618e+00	1.222766e+00	1.222746e+00	1.223409e+00	1.223681e+00	1.223667e+00	1.223714e+00	1.223729e+00	1.223740e+00	1.223631e+00	1.223095e+00	1.222911e+00	1.223203e+00	1.223499e+00	1.223189e+00	1.221678e+00	1.223130e+00	1.222627e+00	1.222720e+00	1.222518e+00	1.222990e+00	1.223131e+00	1.223032e+00	1.223132e+00	1.223675e+00	1.223725e+00	1.223752e+00	1.223724e+00	1.223663e+00	1.222604e+00	1.223461e+00	1.223453e+00	1.223334e+00	1.223260e+00	1.223053e+00	1.223226e+00	1.223290e+00	1.223284e+00	1.223632e+00	1.223168e+00	1.223269e+00	1.223032e+00	1.223705e+00	1.223794e+00	1.223816e+00	1.223892e+00	1.223589e+00	1.223541e+00	1.223672e+00	1.223315e+00	1.223391e+00	1.223173e+00	1.223774e+00	1.223360e+00	1.222887e+00	1.223074e+00	1.222845e+00	1.222819e+00	1.222970e+00	1.222798e+00	1.222802e+00	1.223850e+00	1.223495e+00	1.223523e+00	1.223505e+00	1.223563e+00	1.223551e+00	1.223603e+00	1.223806e+00	1.223106e+00	1.223466e+00	1.223419e+00	1.223334e+00	1.223369e+00	1.223388e+00	1.223606e+00	1.222867e+00	1.223409e+00	1.223738e+00	1.223271e+00	1.223290e+00	1.223327e+00	1.223586e+00	1.223087e+00	1.223100e+00	1.222809e+00	1.223287e+00	1.223303e+00	1.223626e+00	1.223362e+00	1.223240e+00	1.222920e+00	1.223559e+00	1.223890e+00	1.223408e+00	1.223865e+00	1.223890e+00	1.223088e+00	1.222811e+00	1.223546e+00	1.223584e+00	1.222620e+00	1.223653e+00	1.222867e+00	1.223783e+00	1.223801e+00	1.223679e+00	1.223775e+00	1.223701e+00	1.223267e+00	1.223446e+00	1.223153e+00	1.223387e+00	1.223643e+00	1.223419e+00	1.223744e+00	1.223920e+00	1.223246e+00	1.223138e+00	1.223816e+00	1.222906e+00	1.223396e+00	1.223950e+00	1.223550e+00	1.223036e+00	1.223165e+00	1.223396e+00	1.223747e+00	1.223697e+00	1.222957e+00	1.223343e+00	1.223005e+00	1.223214e+00	1.223620e+00	1.223244e+00	1.223695e+00	1.223086e+00	1.223605e+00	1.223963e+00	1.223136e+00	1.223347e+00	1.223777e+00	1.223733e+00	1.223368e+00	1.223669e+00	1.223422e+00	1.223722e+00	1.223353e+00	1.222955e+00	1.223350e+00	1.223866e+00	1.223345e+00	1.223274e+00	1.223749e+00	1.223252e+00	1.223917e+00	1.223727e+00	1.223529e+00	1.222829e+00	1.222914e+00	1.223216e+00	1.225502e+00	1.223181e+00	1.223854e+00	1.223294e+00	1.223386e+00	1.223318e+00	1.223898e+00	1.223619e+00	1.223626e+00	1.223592e+00	1.223505e+00	1.222694e+00	1.223009e+00	1.223468e+00	1.222900e+00	1.223236e+00	1.223292e+00	1.223735e+00	1.223298e+00	1.223246e+00	1.223846e+00	1.223542e+00	1.223506e+00	1.223082e+00	1.223544e+00	1.222826e+00	1.223154e+00	1.223836e+00	1.223227e+00	1.223360e+00	1.223281e+00	1.223357e+00	1.223711e+00	1.223189e+00	1.223266e+00	1.223613e+00	1.222936e+00	1.223714e+00	1.223196e+00	1.222334e+00	1.223730e+00	1.223667e+00	1.223140e+00	1.223357e+00	1.222362e+00	1.223581e+00	1.223107e+00	1.223581e+00	1.223760e+00	1.225469e+00	1.223849e+00	1.223706e+00	1.223274e+00	1.223181e+00	1.223564e+00	1.223417e+00	1.223718e+00	1.223039e+00	1.223875e+00	1.223040e+00	1.222945e+00	1.223566e+00	1.223013e+00	1.223561e+00	1.223284e+00	1.223770e+00	1.223704e+00	1.223678e+00	1.223275e+00	1.223283e+00	1.223923e+00	1.223471e+00	1.223489e+00	1.223130e+00	1.223462e+00	1.222701e+00	1.223369e+00	1.223153e+00	1.223305e+00	1.223459e+00	1.223719e+00	1.222937e+00	1.223402e+00	1.222698e+00	1.223275e+00	1.222888e+00	1.223575e+00	1.222791e+00	
SCALARS X-Momentum float 1
LOOKUP_TABLE default
8.844173e+00	4.379915e-01	6.963967e+00	2.040271e-02	-5.561314e-01	-4.109001e+00	1.616078e+01	1.033757e+01	1.021325e+01	1.002075e+01	9.783158e+00	9.508785e+00	9.252907e+00	9.009240e+00	8.700991e+00	8.412864e+00	7.980032e+00	7.415818e+00	6.770777e+00	6.024979e+00	5.170320e+00	4.323880e+00	3.319311e+00	2.310249e+00	1.297790e+00	1.229452e-01	5.873062e-01	1.224182e+00	1.927253e+00	2.657786e+00	3.351062e+00	3.991772e+00	4.602382e+00	5.166563e+00	5.557435e+00	5.507877e+00	5.137582e+00	3.890603e+00	1.091889e+00	1.299103e+00	1.776323e+00	2.063981e+00	2.223024e+00	2.259933e+00	2.128985e+00	1.855259e+00	1.491178e+00	1.054037e+00	6.353594e-01	2.884922e-01	-1.854866e+00	-3.377553e+00	-4.659498e+00	-5.787060e+00	-6.686109e+00	-7.361434e+00	-7.827570e+00	-8.046348e+00	-7.589443e+00	-6.696487e+00	-5.743692e+00	-2.955529e-01	5.099954e+00	1.032605e+01	1.406756e+01	1.589539e+01	1.633763e+01	1.547481e+01	1.460837e+01	1.365765e+01	1.286147e+01	1.219945e+01	1.163035e+01	1.113414e+01	1.072866e+01	1.046060e+01	5.775207e+00	2.089847e+00	7.881297e+00	-5.399518e+00	2.171549e+00	4.868655e+00	5.892687e+00	-5.163584e+00	9.724522e+00	1.241574e+01	1.129662e+01	1.374319e+01	1.191422e+00	2.978765e+00	3.987216e+00	-3.861449e+00	2.309131e+00	5.796625e+00	1.177178e-01	1.754971e+00	1.376991e+00	9.017341e+00	1.045944e+01	1.540553e+01	1.869580e+00	-1.766563e+00	-2.765171e+00	8.716533e+00	7.447373e+00	1.074481e+01	1.385385e+01	1.266286e+01	8.754381e+00	1.138260e+01	1.411096e+01	1.316419e+01	1.003591e+01	1.188496e+01	8.449884e+00	1.015337e+01	1.343908e+01	1.253251e+01	1.435919e+01	1.404896e+01	1.442433e+01	1.405198e+01	1.367068e+01	1.296089e+01	6.604996e+00	1.488961e+01	1.411793e+01	4.985625e+00	4.049209e+00	1.259517e+01	1.177356e+01	1.176957e+01	1.090760e+01	1.054034e+01	1.019100e+01	1.051376e+01	9.647735e+00	9.566674e+00	4.841137e+00	3.033009e+00	2.306989e+00	1.171256e+01	2.001749e+00	1.371551e+01	5.557762e+00	2.332232e+00	6.516815e+00	4.533503e+00	1.238730e+01	8.959465e+00	9.102525e+00	8.834146e+00	8.143993e+00	7.854500e+00	9.584119e+00	9.015329e-01	1.173758e+00	9.703763e-01	1.111751e+01	1.525288e+01	9.678251e+00	1.051860e+01	2.155184e+00	3.989789e+00	7.289852e+00	2.683223e+00	-6.458413e-01	-2.077536e-01	1.167264e+01	8.396013e+00	7.406382e+00	6.950077e+00	6.311831e+00	9.238446e+00	6.306982e+00	1.165849e+01	1.221671e+01	2.047519e+00	1.070991e+00	1.254220e+01	-2.650586e-01	-9.659935e-02	1.511340e+01	9.630833e+00	1.517028e+01	-1.579587e+00	-2.817125e+00	8.796902e+00	6.068943e+00	6.643792e+00	5.323582e+00	7.852446e+00	8.948722e+00	9.350844e+00	2.072190e+00	2.672476e+00	-1.776189e+00	5.378285e+00	1.471914e+01	-1.425657e+00	1.028349e+00	-7.235742e-01	2.455601e+00	8.666681e-01	9.968340e+00	8.995554e+00	5.244349e+00	9.902861e+00	1.108761e+01	1.116895e+01	1.068474e+01	1.079327e+01	1.031887e+01	4.357384e+00	1.215724e+01	1.295998e+01	1.091068e+01	1.310117e+01	1.275483e+01	1.370870e+01	9.994757e+00	3.507449e+00	1.202301e+01	6.860959e+00	-1.250600e+00	1.970544e-01	-7.656027e-01	1.040738e+01	9.199955e+00	1.541405e+01	7.778300e+00	1.516599e+01	1.438481e+01	9.962391e+00	1.192086e+00	1.291349e+00	-5.581451e+00	7.014078e+00	4.569653e+00	1.284862e+01	4.430973e+00	3.473743e+00	2.705561e+00	3.776622e+00	1.051979e+01	1.018889e+01	1.196265e+01	9.301678e+00	9.393121e+00	7.337585e+00	7.857243e+00	8.299378e+00	7.327470e+00	7.977423e+00	1.519056e+01	1.293698e+01	2.778694e+00	1.113309e+01	7.581493e+00	2.685649e+00	6.133634e+00	5.031416e+00	-4.637465e+00	-5.382792e+00	6.682057e+00	-4.521001e+00	-2.882666e+00	2.912996e+00	1.082047e+01	1.331283e+01	1.599683e+01	1.956464e+00	8.362103e+00	8.740810e+00	4.259902e+00	2.368077e+00	2.415040e+00	1.493261e+01	9.956212e+00	1.453554e+01	5.352429e+00	1.450725e+00	1.019862e+01	6.089416e+00	-3.417375e+00	1.413746e+01	6.585252e+00	5.374276e+00	2.180794e+00	9.076243e+00	2.278502e+00	4.364211e+00	1.932467e+00	2.664749e+00	1.606274e+00	2.311885e+00	7.017419e-01	3.475827e-01	3.683375e+00	-1.183299e+00	2.498224e+00	7.356347e+00	9.848404e+00	2.350988e-01	5.985175e+00	4.798984e+00	8.420610e+00	-4.312967e-01	5.900485e+00	2.571941e+00	8.375189e+00	-4.118017e-01	1.243054e+00	9.683374e+00	9.899924e+00	9.205457e+00	1.123249e+01	1.113688e+01	6.313907e+00	1.162434e+01	2.887657e+00	1.459278e+01	1.344136e+01	8.543611e+00	1.561323e+01	1.463402e+01	3.842435e+00	1.102325e+01	1.183042e+01	1.477174e+01	1.050101e+01	3.806734e+00	1.425898e+01	3.607762e+00	-2.834035e+00	1.467265e+01	-2.180216e+00	1.325512e+01	8.968071e+00	-3.254341e+00	1.347378e+01	1.004034e+01	2.906081e+00	8.340338e+00	-2.585154e+00	-2.742271e+00	8.875736e+00	6.754166e+00	7.239802e+00	1.207901e+01	8.339813e+00	9.990117e+00	1.121997e+01	1.029083e+01	4.518045e+00	6.464529e+00	3.296882e+00	8.632541e+00	-1.542728e-01	1.272465e+01	1.031297e+01	1.229457e+01	6.072531e+00	1.593627e+01	2.680167e+00	-3.336114e+00	-1.741851e+00	1.032477e+01	-1.865889e+00	1.091022e+01	1.244442e+01	7.085383e+00	8.539049e+00	9.568586e+00	9.581482e-01	1.806843e+00	8.901955e-01	-7.675304e-01	1.374588e+01	1.462988e+01	6.367978e+00	1.300811e+01	9.409037e+00	1.528652e+01	2.180666e+00	1.158981e+01	7.573903e+00	7.422929e+00	2.597606e+00	5.456614e+00	1.363046e+01	9.282965e+00	5.496642e+00	7.276750e+00	
SCALARS Y-Momentum float 1
LOOKUP_TABLE default
-1.802340e-02	4.321802e-01	5.059169e+00	-8.567920e-01	5.254503e-01	2.325507e-01	6.319155e-02	-1.212430e-02	1.390922e-02	4.008692e-02	5.577042e-02	7.291906e-02	6.126434e-02	1.125543e-02	-3.367040e-03	-5.758778e-05	6.987617e-03	6.029300e-03	1.207690e-02	1.458837e-02	1.398538e-03	2.930298e-02	1.315974e-02	8.707565e-03	-3.429233e-02	1.405614e+00	2.501585e+00	3.498815e+00	4.469286e+00	5.335500e+00	6.087730e+00	6.749508e+00	7.364410e+00	7.997243e+00	8.418370e+00	8.444351e+00	8.435773e+00	-2.615493e+00	9.904196e-01	1.741180e+00	2.451686e+00	3.011016e+00	3.372824e+00	3.577798e+00	3.601350e+00	3.450478e+00	3.154569e+00	2.714055e+00	2.165874e+00	1.416652e+00	-2.368152e-04	3.649171e-02	2.495470e-02	8.635803e-03	2.248392e-03	6.626922e-03	1.004482e-02	3.585914e-03	-4.019712e-02	-6.469697e-02	-1.012676e-01	-5.162046e-01	-4.647709e-01	3.939631e-02	7.127097e-01	8.968216e-01	5.144671e-01	1.019090e-02	-1.938716e-04	-8.354135e-03	-3.863175e-02	-2.581126e-02	-5.317457e-03	-5.753676e-03	1.526636e-03	-3.344570e-03	8.717961e+00	2.192406e+00	4.926806e-01	-2.077454e-01	3.215967e+00	6.483283e+00	8.954395e-01	4.232453e-01	3.694545e-01	3.746663e-01	4.209443e-01	8.396208e-01	2.947275e+00	4.438310e+00	1.029459e+00	6.078807e-01	2.810716e+00	7.610072e+00	2.122109e+00	2.748205e+00	-8.352664e-01	3.147805e-01	2.398947e-01	8.339286e-01	9.162956e-01	8.173000e-01	-6.220051e-01	2.412827e-01	-4.450111e-01	8.913146e-02	9.254959e-01	8.572134e-01	6.100810e-02	8.288815e-01	1.657504e+00	1.670853e+00	9.727896e-01	1.749358e+00	1.270063e+00	1.894352e+00	2.701322e+00	2.959410e+00	3.721894e+00	4.209339e+00	4.341294e+00	5.015919e+00	4.248552e+00	4.871817e+00	1.527353e+00	2.347726e+00	3.676499e+00	1.309650e+00	1.894009e+00	3.554075e+00	3.640057e+00	4.981593e+00	3.448772e+00	4.236071e+00	3.032765e+00	2.577533e+00	3.520393e+00	2.498394e+00	2.036660e+00	2.614068e+00	2.209495e+00	2.653378e+00	2.745266e+00	4.877008e+00	5.842105e-02	3.324614e-01	1.197389e+00	1.062036e+00	2.534840e+00	2.694680e+00	1.973055e+00	3.780678e+00	2.552824e+00	3.524271e+00	1.826883e+00	2.096441e+00	1.649586e+00	2.367585e+00	6.067172e+00	2.021426e+00	4.985598e+00	4.308705e+00	1.901574e+00	1.958065e+00	1.958095e+00	2.878999e+00	1.390165e+00	8.825281e-01	7.586797e+00	4.882130e+00	4.538383e+00	3.308422e+00	4.178659e+00	1.424263e+00	1.973819e+00	1.867938e+00	1.670856e+00	2.952637e+00	2.498354e+00	6.588460e+00	1.916774e+00	2.075916e+00	2.355309e+00	1.311839e+00	1.880494e+00	1.449540e+00	5.933723e-01	1.435418e+00	2.918030e+00	2.380384e+00	3.381129e+00	6.303398e+00	6.493621e+00	9.157654e-01	2.934892e+00	3.268365e+00	1.320554e+00	4.512695e+00	3.282050e+00	2.870842e-01	3.164154e-01	-9.324593e-02	-1.828882e-01	-6.564890e-01	2.653703e+00	2.182596e+00	2.269797e+00	4.814695e+00	1.936692e+00	1.371435e+00	1.409114e+00	9.810377e-01	9.828380e-01	3.723821e+00	8.136830e+00	7.181272e+00	9.056503e+00	2.372721e+00	1.327693e+00	2.055421e+00	1.622363e+00	2.689578e+00	9.518458e-01	5.540660e+00	1.654591e+00	2.350857e+00	1.909532e+00	8.998606e+00	9.561385e+00	1.711330e+00	3.761012e-01	1.098092e+00	1.809944e+00	1.147795e+00	2.671900e+00	2.868761e+00	9.150308e-02	6.970906e+00	4.861075e+00	6.314912e-01	2.614520e+00	2.835789e+00	3.247620e+00	-8.851750e-01	5.976191e-01	5.745572e-01	3.319267e+00	4.392882e-01	1.963607e+00	6.184034e-01	1.075092e+00	8.257993e-01	1.399365e+00	1.698677e+00	1.440548e+00	5.892634e+00	3.420710e+00	7.868300e+00	7.956485e+00	2.962539e+00	6.437563e+00	1.134793e+00	4.939488e-01	3.098155e-01	7.558049e-01	-4.000899e-01	7.671338e-01	1.024844e+00	3.162871e-01	5.764763e+00	1.040751e+00	2.960875e+00	3.790142e-01	6.331601e-01	3.632259e-01	2.968971e+00	2.869631e+00	2.934839e+00	3.424989e-01	7.868165e-01	5.648535e+00	1.721991e+00	2.542266e-01	8.357231e+00	8.153599e-01	2.931349e+00	1.556328e+00	7.036066e+00	2.438169e+00	6.674017e-01	3.056256e+00	5.836493e+00	3.243045e+00	1.043251e+00	3.156024e+00	3.645966e+00	2.613958e+00	2.470429e+00	5.135843e+00	1.551772e+00	2.055109e+00	2.592918e+00	8.162636e+00	-8.761850e-01	2.022385e+00	-5.224841e-01	2.737552e+00	1.715918e+00	1.875445e+00	2.857784e+00	9.985905e+00	1.533229e+00	1.751039e+00	9.389975e-01	7.175868e-01	5.102159e+00	8.831946e-01	3.867253e+00	8.478084e-01	1.225326e+00	1.684074e+00	2.509349e+00	1.317461e+00	1.919453e+00	1.429784e+00	1.405569e+00	4.318521e+00	2.598952e+00	4.205292e-01	1.543586e+00	1.926931e+00	2.490393e+00	2.510403e+00	1.930243e+00	1.037452e+00	3.488836e+00	1.271555e+00	3.291091e+00	1.008879e+00	9.032883e-01	6.274620e+00	2.219246e+00	3.234317e+00	1.313026e+00	-4.168290e-01	-4.835201e-01	1.063417e-01	8.364500e+00	9.474122e+00	7.472083e+00	2.107445e+00	6.443047e+00	2.654240e+00	1.389221e+00	1.800220e+00	9.915337e+00	3.657153e+00	1.008150e+00	2.148454e+00	4.131685e+00	1.005798e-01	6.016989e-01	5.186402e+00	4.956093e-01	3.000600e+00	2.675054e-02	-7.197070e-01	4.191619e-01	1.156102e+00	6.382423e-01	6.506753e+00	1.992334e+00	8.156319e+00	5.846044e-01	2.770201e+00	2.994818e+00	8.069603e-01	8.129532e-01	5.765091e+00	3.842990e+00	7.515988e+00	3.525265e+00	4.237166e+00	1.448961e+00	3.035546e+00	7.356328e-01	2.024697e+00	-5.078456e-01	3.057765e+00	-7.001920e-02	3.086308e+00	7.250046e+00	6.306675e+00	1.694353e+00	
SCALARS Energy float 1
LOOKUP_TABLE default