# vtk DataFile Version 3.0
vtk output
ASCII
DATASET UNSTRUCTURED_GRID
POINTS 394 float
-3.000000e+00	0.000000e+00	0.0	-5.000000e-02	3.087600e-17	0.0	3.053178e-01	1.023725e+00	0.0	4.053740e-01	9.764772e-01	0.0	5.000000e-02	-9.816186e-18	0.0	3.000000e+00	0.000000e+00	0.0	3.000000e+00	4.000000e+00	0.0	-3.000000e+00	4.000000e+00	0.0	-3.000000e+00	3.428571e+00	0.0	-3.000000e+00	2.857143e+00	0.0	-3.000000e+00	2.285714e+00	0.0	-3.000000e+00	1.714286e+00	0.0	-3.000000e+00	1.142857e+00	0.0	-3.000000e+00	5.714286e-01	0.0	-2.473871e+00	0.000000e+00	0.0	-2.029066e+00	0.000000e+00	0.0	-1.653013e+00	0.000000e+00	0.0	-1.335087e+00	0.000000e+00	0.0	-1.066302e+00	0.000000e+00	0.0	-8.390627e-01	0.000000e+00	0.0	-6.469477e-01	0.000000e+00	0.0	-4.845277e-01	0.000000e+00	0.0	-3.472127e-01	0.000000e+00	0.0	-2.311224e-01	0.000000e+00	0.0	-1.329760e-01	0.000000e+00	0.0	-4.508499e-02	8.193416e-02	0.0	-3.355298e-02	1.631775e-01	0.0	-1.600057e-02	2.436326e-01	0.0	6.394407e-03	3.233931e-01	0.0	3.263403e-02	4.025592e-01	0.0	6.187995e-02	4.812302e-01	0.0	9.344371e-02	5.594935e-01	0.0	1.267583e-01	6.374160e-01	0.0	1.613413e-01	7.150518e-01	0.0	1.967885e-01	7.924478e-01	0.0	2.327474e-01	8.696667e-01	0.0	2.690391e-01	9.467236e-01	0.0	3.553470e-01	1.000150e+00	0.0	3.689769e-01	8.995970e-01	0.0	3.327458e-01	8.227699e-01	0.0	2.967746e-01	7.460984e-01	0.0	2.613335e-01	6.696202e-01	0.0	2.267525e-01	5.933869e-01	0.0	1.934407e-01	5.174461e-01	0.0	1.618795e-01	4.418503e-01	0.0	1.326376e-01	3.666667e-01	0.0	1.064023e-01	2.919826e-01	0.0	8.401189e-02	2.178985e-01	0.0	6.646855e-02	1.445097e-01	0.0	5.487454e-02	7.188416e-02	0.0	1.329760e-01	0.000000e+00	0.0	2.311224e-01	0.000000e+00	0.0	3.472127e-01	0.000000e+00	0.0	4.845277e-01	0.000000e+00	0.0	6.469477e-01	0.000000e+00	0.0	8.390627e-01	0.000000e+00	0.0	1.066302e+00	0.000000e+00	0.0	1.335087e+00	0.000000e+00	0.0	1.653013e+00	0.000000e+00	0.0	2.029066e+00	0.000000e+00	0.0	2.473871e+00	0.000000e+00	0.0	3.000000e+00	5.714286e-01	0.0	3.000000e+00	1.142857e+00	0.0	3.000000e+00	1.714286e+00	0.0	3.000000e+00	2.285714e+00	0.0	3.000000e+00	2.857143e+00	0.0	3.000000e+00	3.428571e+00	0.0	2.400000e+00	4.000000e+00	0.0	1.800000e+00	4.000000e+00	0.0	1.200000e+00	4.000000e+00	0.0	6.000000e-01	4.000000e+00	0.0	0.000000e+00	4.000000e+00	0.0	-6.000000e-01	4.000000e+00	0.0	-1.200000e+00	4.000000e+00	0.0	-1.800000e+00	4.000000e+00	0.0	-2.400000e+00	4.000000e+00	0.0	1.561675e-01	9.258643e-01	0.0	3.981045e-01	8.503033e-01	0.0	-1.465707e+00	2.816610e-01	0.0	1.529739e+00	1.947009e-01	0.0	2.540654e-01	5.407778e-01	0.0	2.133691e-02	6.149368e-01	0.0	-7.288597e-01	1.935906e-01	0.0	7.735731e-01	1.263480e-01	0.0	-2.549530e+00	2.098835e+00	0.0	2.585994e+00	1.913158e+00	0.0	-8.485847e-01	3.520492e+00	0.0	1.013129e+00	3.446626e+00	0.0	1.767355e-01	3.212025e-01	0.0	-6.039863e-02	3.720995e-01	0.0	-4.031379e-01	1.324672e-01	0.0	4.319364e-01	9.020369e-02	0.0	3.257034e-01	6.918076e-01	0.0	8.379932e-02	7.718799e-01	0.0	1.463250e-01	1.787557e-01	0.0	-9.885750e-02	2.120872e-01	0.0	2.557525e+00	7.712270e-01	0.0	-2.482659e+00	8.155445e-01	0.0	-2.022449e+00	3.468038e+00	0.0	2.114688e+00	3.421096e+00	0.0	-1.787060e-01	8.397492e-02	0.0	1.905494e-01	6.597633e-02	0.0	2.252242e+00	3.600303e-01	0.0	-2.239861e+00	3.764866e-01	0.0	2.537774e+00	1.357977e+00	0.0	2.201338e+00	1.651109e+00	0.0	2.185833e+00	2.071901e+00	0.0	1.875980e+00	1.802604e+00	0.0	1.848685e+00	1.393797e+00	0.0	1.596004e+00	1.594553e+00	0.0	1.573174e+00	1.948611e+00	0.0	1.349169e+00	1.735112e+00	0.0	1.351377e+00	1.430292e+00	0.0	1.148613e+00	1.552517e+00	0.0	1.147975e+00	1.299658e+00	0.0	9.629377e-01	1.380791e+00	0.0	9.448771e-01	1.649814e+00	0.0	7.847602e-01	1.508077e+00	0.0	7.486615e-01	1.749013e+00	0.0	5.963019e-01	1.636112e+00	0.0	5.467428e-01	1.854389e+00	0.0	4.020534e-01	1.735899e+00	0.0	3.284977e-01	1.960644e+00	0.0	1.722161e-01	1.798354e+00	0.0	9.869390e-01	1.164444e+00	0.0	1.297546e+00	2.080482e+00	0.0	5.326499e-01	2.121302e+00	0.0	1.116472e+00	1.048872e+00	0.0	9.537619e-01	9.750769e-01	0.0	7.348838e-02	2.080856e+00	0.0	-1.360676e-01	1.931473e+00	0.0	-3.428665e-02	1.656931e+00	0.0	-3.625038e-01	1.784812e+00	0.0	-2.922872e-01	1.546436e+00	0.0	-5.882064e-01	1.629084e+00	0.0	-6.163175e-01	1.864724e+00	0.0	-5.319382e-01	1.386567e+00	0.0	-8.405883e-01	1.463531e+00	0.0	8.432097e-01	1.060968e+00	0.0	8.105372e-01	8.907430e-01	0.0	9.148371e-01	7.970071e-01	0.0	-2.241368e-01	2.218053e+00	0.0	7.621876e-01	7.185763e-01	0.0	4.529165e-01	1.508247e+00	0.0	3.594389e-01	1.050751e+00	0.0	4.196709e-01	1.021384e+00	0.0	3.883649e-01	1.098930e+00	0.0	4.552152e-01	1.085991e+00	0.0	2.118702e-02	2.391860e+00	0.0	-7.956420e-01	1.200886e+00	0.0	-1.110266e+00	1.277774e+00	0.0	-4.997239e-01	1.126214e+00	0.0	-8.093212e-01	9.214574e-01	0.0	-5.299941e-01	8.981199e-01	0.0	-1.159127e+00	1.575981e+00	0.0	8.662569e-01	6.254850e-01	0.0	1.030729e+00	6.969242e-01	0.0	7.080941e-01	5.649591e-01	0.0	-4.567822e-02	1.423316e+00	0.0	1.530933e+00	2.314625e+00	0.0	3.114141e-01	1.109034e+00	0.0	3.502971e-01	1.174058e+00	0.0	4.782920e-01	9.979191e-01	0.0	5.292608e-01	1.070185e+00	0.0	4.935587e-01	1.160745e+00	0.0	5.503042e-01	9.694870e-01	0.0	9.768772e-01	5.241534e-01	0.0	1.177074e+00	6.130722e-01	0.0	2.535640e-01	1.184774e+00	0.0	-3.026830e-01	1.014696e+00	0.0	-3.244834e-01	8.365119e-01	0.0	-5.156307e-01	7.006446e-01	0.0	-3.141491e-01	6.654873e-01	0.0	-1.450617e+00	1.364556e+00	0.0	5.916037e-01	1.154907e+00	0.0	-3.160978e-01	2.537882e+00	0.0	-4.589942e-02	2.751574e+00	0.0	6.164076e-01	6.431859e-01	0.0	5.597054e-01	5.034587e-01	0.0	3.034934e-01	1.267562e+00	0.0	6.498150e-01	4.258000e-01	0.0	5.016585e-01	3.737194e-01	0.0	1.222470e+00	2.461116e+00	0.0	-1.509223e+00	1.699071e+00	0.0	1.470216e+00	2.705762e+00	0.0	5.863306e-01	2.978103e-01	0.0	1.104939e+00	3.614310e-01	0.0	-1.387835e+00	1.069910e+00	0.0	-4.903725e-01	5.239834e-01	0.0	-6.575898e-01	5.531471e-01	0.0	-3.401776e-01	4.844346e-01	0.0	-1.210145e-01	9.579018e-01	0.0	-1.252296e-01	1.107964e+00	0.0	-1.913676e+00	1.468053e+00	0.0	4.764263e-01	5.807007e-01	0.0	5.426284e-01	7.164768e-01	0.0	7.472870e-01	3.444471e-01	0.0	-2.003962e-01	5.781242e-01	0.0	8.849870e-01	1.927203e+00	0.0	1.324624e+00	5.250854e-01	0.0	1.380467e+00	7.363511e-01	0.0	1.551595e+00	5.989673e-01	0.0	1.620857e+00	8.706376e-01	0.0	1.859904e+00	7.394647e-01	0.0	5.351012e-01	1.260429e+00	0.0	6.487969e-01	1.251180e+00	0.0	-4.737131e-01	3.564653e-01	0.0	-2.763151e-01	1.351151e+00	0.0	-5.820654e-01	2.332209e+00	0.0	-6.988517e-01	2.685462e+00	0.0	-9.932331e-01	2.469547e+00	0.0	-1.107815e+00	2.827634e+00	0.0	-1.485790e+00	2.505924e+00	0.0	-2.092689e-01	4.296065e-01	0.0	1.837900e-01	1.275662e+00	0.0	2.295438e-01	1.379312e+00	0.0	1.407979e-01	1.183536e+00	0.0	3.323211e-01	2.560152e+00	0.0	2.755883e-01	3.021749e+00	0.0	6.361004e-01	2.764539e+00	0.0	-1.203855e+00	1.908428e+00	0.0	7.178694e-01	9.770059e-01	0.0	-1.719933e-01	3.168156e+00	0.0	-1.651034e-01	8.000722e-01	0.0	4.422966e-01	2.551950e-01	0.0	3.461670e-01	3.236787e-01	0.0	3.112849e-01	2.242324e-01	0.0	2.108058e-01	1.114461e+00	0.0	1.080028e-01	1.091133e+00	0.0	1.813021e+00	2.559089e+00	0.0	1.531553e+00	1.277972e+00	0.0	2.519192e+00	2.484274e+00	0.0	1.063971e+00	2.885805e+00	0.0	-1.572930e+00	2.063491e+00	0.0	4.058187e-01	4.455601e-01	0.0	2.886635e-01	4.011986e-01	0.0	1.235221e+00	1.751270e-01	0.0	-3.159543e-02	8.727564e-01	0.0	-1.131396e-01	5.113931e-01	0.0	4.585599e-01	3.518747e+00	0.0	-3.303885e-01	3.338091e-01	0.0	-2.169970e-01	2.998752e-01	0.0	6.711487e-01	8.177330e-01	0.0	2.197582e+00	1.008871e+00	0.0	-1.592228e+00	3.041025e+00	0.0	-1.949603e+00	2.693647e+00	0.0	5.840350e-01	1.378152e+00	0.0	-2.453533e+00	1.335091e+00	0.0	8.050736e-01	1.306010e+00	0.0	-1.177317e+00	2.534572e-01	0.0	-1.269170e+00	5.290412e-01	0.0	-1.558158e+00	5.788546e-01	0.0	-9.953735e-01	5.034144e-01	0.0	-1.079493e+00	7.636814e-01	0.0	1.750070e+00	3.017465e+00	0.0	1.774475e-01	1.611966e+00	0.0	5.707477e-01	8.499701e-01	0.0	5.356101e-02	1.276647e+00	0.0	3.150849e-03	9.620339e-01	0.0	4.593787e-01	7.802346e-01	0.0	-4.405129e-02	7.481176e-01	0.0	-5.454174e-01	1.955798e-01	0.0	5.861158e-01	1.010301e-01	0.0	9.966287e-01	1.639664e-01	0.0	-9.362784e-01	2.248848e-01	0.0	1.855793e+00	2.428519e-01	0.0	3.036352e-01	7.749676e-02	0.0	-2.758736e-01	1.073739e-01	0.0	-1.432173e+00	3.537666e+00	0.0	3.650905e-01	1.370985e+00	0.0	2.559782e+00	3.094205e+00	0.0	3.703637e-01	5.237800e-01	0.0	-1.817377e+00	3.252595e-01	0.0	-1.936030e+00	7.322986e-01	0.0	1.455886e+00	1.001068e+00	0.0	3.879042e-01	6.245017e-01	0.0	4.843223e-01	8.950782e-01	0.0	9.918445e-01	2.212025e+00	0.0	-2.494234e+00	2.545124e+00	0.0	1.517054e+00	3.500875e+00	0.0	-8.529566e-02	6.357929e-01	0.0	4.268756e-01	9.384706e-01	0.0	-2.424583e+00	3.085501e+00	0.0	1.189627e-01	8.479193e-01	0.0	8.800376e-01	2.621677e-01	0.0	6.688494e-01	2.406909e+00	0.0	-7.886849e-01	3.783869e-01	0.0	5.012830e-02	6.939610e-01	0.0	3.621038e-01	7.684209e-01	0.0	-2.101061e+00	1.099579e+00	0.0	2.882560e-01	6.194376e-01	0.0	-1.573656e-02	5.439147e-01	0.0	2.271890e-01	4.663647e-01	0.0	1.220654e+00	8.492751e-01	0.0	2.000493e-01	3.909878e-01	0.0	-7.858009e-02	2.900780e-01	0.0	1.563063e-01	2.494813e-01	0.0	2.417958e-01	2.752198e-01	0.0	-4.233386e-02	4.557639e-01	0.0	2.386943e-01	1.438115e-01	0.0	-1.944089e-01	1.911872e-01	0.0	-7.171860e-01	7.174297e-01	0.0	1.401307e-02	1.166552e+00	0.0	2.170587e+00	6.779242e-01	0.0	7.240570e-01	1.135806e+00	0.0	1.894809e+00	1.070560e+00	0.0	3.086215e-01	1.062714e+00	0.0	8.092641e-01	4.800516e-01	0.0	-6.157830e-01	3.692666e-01	0.0	4.067538e-01	7.183571e-01	0.0	1.835983e-01	1.045081e+00	0.0	1.256526e-01	1.063530e-01	0.0	-1.075364e-01	1.264592e-01	0.0	-1.848404e+00	1.837399e+00	0.0	-2.001042e+00	2.215069e+00	0.0	-2.701462e-01	1.181213e+00	0.0	-7.857874e-01	3.081017e+00	0.0	4.068175e-01	1.247228e+00	0.0	1.307401e+00	1.150416e+00	0.0	-4.232032e-01	2.917266e+00	0.0	1.049189e+00	8.709374e-01	0.0	9.200319e-01	2.545685e+00	0.0	6.956533e-01	3.127556e+00	0.0	-1.091764e+00	1.003764e+00	0.0	2.154646e+00	2.831980e+00	0.0	1.377272e+00	3.112855e+00	0.0	-1.244844e-01
[...]
POINT_DATA 394

SCALARS Density float 1
LOOKUP_TABLE default
1.223717e+00	1.223962e+00	1.221531e+00	1.221697e+00	1.223228e+00	1.223553e+00	1.223277e+00	1.223585e+00	1.223569e+00	1.223581e+00	1.223625e+00	1.223653e+00	1.223720e+00	1.223726e+00	1.223738e+00	1.223729e+00	1.223761e+00	1.223783e+00	1.223826e+00	1.223853e+00	1.223874e+00	1.223938e+00	1.223912e+00	1.224014e+00	1.223908e+00	1.224051e+00	1.223918e+00	1.223931e+00	1.223921e+00	1.223884e+00	1.223861e+00	1.223810e+00	1.223795e+00	1.223699e+00	1.223782e+00	1.222932e+00	1.224915e+00	1.219592e+00	1.223678e+00	1.223201e+00	1.223215e+00	1.223190e+00	1.223131e+00	1.223097e+00	1.223086e+00	1.223086e+00	1.223106e+00	1.223143e+00	1.223072e+00	1.223295e+00	1.223084e+00	1.223193e+00	1.223120e+00	1.223062e+00	1.223021e+00	1.222993e+00	1.222909e+00	1.222927e+00	1.222945e+00	1.223099e+00	1.222637e+00	1.223287e+00	1.223019e+00	1.222862e+00	1.222810e+00	1.222949e+00	1.223101e+00	1.223104e+00	1.223238e+00	1.223271e+00	1.223353e+00	1.223407e+00	1.223489e+00	1.223542e+00	1.223574e+00	1.223574e+00	1.222993e+00	1.223550e+00	1.223771e+00	1.222883e+00	1.223137e+00	1.223762e+00	1.223849e+00	1.222958e+00	1.223622e+00	1.223284e+00	1.223510e+00	1.223306e+00	1.223108e+00	1.223883e+00	1.223925e+00	1.223064e+00	1.223280e+00	1.223544e+00	1.223195e+00	1.223940e+00	1.222900e+00	1.223719e+00	1.223594e+00	1.223132e+00	1.223972e+00	1.223165e+00	1.223046e+00	1.223712e+00	1.222916e+00	1.222838e+00	1.223090e+00	1.223064e+00	1.222934e+00	1.222957e+00	1.222998e+00	1.223228e+00	1.222742e+00	1.222818e+00	1.222841e+00	1.222984e+00	1.222828e+00	1.223142e+00	1.223108e+00	1.223257e+00	1.223170e+00	1.223232e+00	1.223447e+00	1.223324e+00	1.222801e+00	1.223008e+00	1.223255e+00	1.222637e+00	1.222809e+00	1.223411e+00	1.223499e+00	1.223508e+00	1.223443e+00	1.223589e+00	1.223659e+00	1.223547e+00	1.223636e+00	1.223634e+00	1.222966e+00	1.222864e+00	1.222954e+00	1.223506e+00	1.222979e+00	1.223186e+00	1.221301e+00	1.221553e+00	1.222633e+00	1.222701e+00	1.223408e+00	1.223704e+00	1.223693e+00	1.223746e+00	1.223758e+00	1.223775e+00	1.223653e+00	1.222880e+00	1.222705e+00	1.222982e+00	1.223523e+00	1.223197e+00	1.221591e+00	1.223121e+00	1.222614e+00	1.222630e+00	1.222483e+00	1.222880e+00	1.222918e+00	1.222839e+00	1.223111e+00	1.223725e+00	1.223761e+00	1.223802e+00	1.223776e+00	1.223677e+00	1.222558e+00	1.223471e+00	1.223455e+00	1.223122e+00	1.223036e+00	1.223078e+00	1.222998e+00	1.223057e+00	1.223284e+00	1.223648e+00	1.223175e+00	1.223064e+00	1.222805e+00	1.223726e+00	1.223837e+00	1.223856e+00	1.223928e+00	1.223670e+00	1.223596e+00	1.223686e+00	1.223093e+00	1.223164e+00	1.222939e+00	1.223857e+00	1.223358e+00	1.222703e+00	1.222895e+00	1.222666e+00	1.222672e+00	1.222814e+00	1.222764e+00	1.222737e+00	1.223906e+00	1.223525e+00	1.223527e+00	1.223510e+00	1.223574e+00	1.223554e+00	1.223614e+00	1.223866e+00	1.223134e+00	1.223475e+00	1.223447e+00	1.223331e+00	1.223369e+00	1.223402e+00	1.223621e+00	1.222727e+00	1.223405e+00	1.223821e+00	1.223045e+00	1.223068e+00	1.223106e+00	1.223689e+00	1.223058e+00	1.223094e+00	1.222710e+00	1.223292e+00	1.223292e+00	1.223637e+00	1.223132e+00	1.223018e+00	1.222715e+00	1.223625e+00	1.223964e+00	1.223401e+00	1.223901e+00	1.223935e+00	1.222903e+00	1.222716e+00	1.223549e+00	1.223586e+00	1.222605e+00	1.223664e+00	1.222847e+00	1.223810e+00	1.223831e+00	1.223701e+00	1.223805e+00	1.223735e+00	1.223259e+00	1.223497e+00	1.222975e+00	1.223424e+00	1.223667e+00	1.223239e+00	1.223824e+00	1.223950e+00	1.223035e+00	1.222938e+00	1.223847e+00	1.222735e+00	1.223192e+00	1.223986e+00	1.223551e+00	1.223028e+00	1.223165e+00	1.223178e+00	1.223766e+00	1.223713e+00	1.222792e+00	1.223124e+00	1.222841e+00	1.223220e+00	1.223624e+00	1.223238e+00	1.223771e+00	1.222924e+00	1.223609e+00	1.224003e+00	1.222931e+00	1.223342e+00	1.223818e+00	1.223798e+00	1.223205e+00	1.223683e+00	1.223208e+00	1.223807e+00	1.223125e+00	1.222788e+00	1.223116e+00	1.223923e+00	1.223120e+00	1.223057e+00	1.223824e+00	1.223041e+00	1.223965e+00	1.223779e+00	1.223588e+00	1.222718e+00	1.222813e+00	1.223110e+00	1.225240e+00	1.222965e+00	1.223901e+00	1.223105e+00	1.223409e+00	1.223106e+00	1.223944e+00	1.223632e+00	1.223636e+00	1.223659e+00	1.223509e+00	1.222652e+00	1.222881e+00	1.223468e+00	1.222724e+00	1.223238e+00	1.223279e+00	1.223767e+00	1.223305e+00	1.223245e+00	1.223926e+00	1.223555e+00	1.223504e+00	1.223063e+00	1.223557e+00	1.222730e+00	1.223152e+00	1.223886e+00	1.223009e+00	1.223362e+00	1.223063e+00	1.223368e+00	1.223735e+00	1.222961e+00	1.223314e+00	1.223625e+00	1.222796e+00	1.223737e+00	1.223042e+00	1.222220e+00	1.223745e+00	1.223780e+00	1.223229e+00	1.223396e+00	1.222430e+00	1.223606e+00	1.223068e+00	1.223594e+00	1.223826e+00	1.225443e+00	1.223930e+00	1.223729e+00	1.223050e+00	1.223203e+00	1.223561e+00	1.223415e+00	1.223789e+00	1.223031e+00	1.223940e+00	1.222868e+00	1.222809e+00	1.223574e+00	1.222816e+00	1.223569e+00	1.223298e+00	1.223805e+00	1.223773e+00	1.223688e+00	1.223042e+00	1.223052e+00	1.223972e+00	1.223270e+00	1.223467e+00	1.223144e+00	1.223575e+00	1.222716e+00	1.223413e+00	1.223157e+00	1.223073e+00	1.223465e+00	1.223759e+00	1.222839e+00	1.223206e+00	1.222579e+00	1.223278e+00	1.222906e+00	1.223692e+00	1.222706e+00	
SCALARS X-Momentum float 1
LOOKUP_TABLE default
8.682137e+00	3.676436e-01	6.406834e+00	-3.032310e-01	-6.312057e-01	-4.582780e+00	1.619878e+01	1.033934e+01	1.020162e+01	9.990412e+00	9.729434e+00	9.426526e+00	9.138116e+00	8.865356e+00	8.529610e+00	8.222999e+00	7.758424e+00	7.158899e+00	6.474854e+00	5.694418e+00	4.818380e+00	3.971320e+00	3.003717e+00	2.058020e+00	1.132661e+00	5.941708e-02	3.571176e-01	7.702604e-01	1.221740e+00	1.699939e+00	2.168294e+00	2.623638e+00	3.079748e+00	3.523225e+00	3.867255e+00	3.861914e+00	3.589821e+00	4.148531e+00	5.485060e-01	7.889487e-01	1.252185e+00	1.545025e+00	1.730901e+00	1.809173e+00	1.728760e+00	1.523392e+00	1.236468e+00	8.761165e-01	5.317282e-01	2.552542e-01	-2.045717e+00	-3.691205e+00	-5.067714e+00	-6.284373e+00	-7.261323e+00	-7.979926e+00	-8.479246e+00	-8.704293e+00	-8.178780e+00	-7.234744e+00	-6.251848e+00	-6.853133e-01	4.871678e+00	1.028480e+01	1.415081e+01	1.600703e+01	1.641077e+01	1.551515e+01	1.465962e+01	1.373779e+01	1.297167e+01	1.232727e+01	1.174270e+01	1.121113e+01	1.077100e+01	1.047654e+01	4.350996e+00	1.528723e+00	7.633544e+00	-5.900683e+00	1.742414e+00	3.592101e+00	5.508072e+00	-5.695519e+00	9.657671e+00	1.257084e+01	1.135875e+01	1.384068e+01	8.907815e-01	2.196135e+00	3.588559e+00	-4.279715e+00	1.822628e+00	4.370226e+00	-8.219665e-02	1.355711e+00	1.164285e+00	8.871139e+00	1.046547e+01	1.550693e+01	1.606708e+00	-2.002606e+00	-3.123651e+00	8.543490e+00	7.476941e+00	1.097749e+01	1.411791e+01	1.298997e+01	9.017724e+00	1.175699e+01	1.446296e+01	1.356071e+01	1.040732e+01	1.229138e+01	8.785370e+00	1.053250e+01	1.378865e+01	1.285451e+01	1.458652e+01	1.421663e+01	1.451217e+01	1.405140e+01	1.364457e+01	1.285477e+01	6.853730e+00	1.519317e+01	1.416517e+01	5.143571e+00	4.065381e+00	1.251996e+01	1.164791e+01	1.155707e+01	1.074084e+01	1.028169e+01	9.991097e+00	1.037868e+01	9.344716e+00	9.352101e+00	4.904422e+00	2.845897e+00	2.113817e+00	1.164512e+01	1.644347e+00	1.378827e+01	5.623988e+00	2.198048e+00	6.618636e+00	4.554978e+00	1.235916e+01	8.667416e+00	8.887244e+00	8.408926e+00	7.775927e+00	7.345369e+00	9.426416e+00	5.706413e-01	9.712600e-01	5.584408e-01	1.076876e+01	1.551749e+01	9.564642e+00	1.050837e+01	1.860570e+00	3.945455e+00	7.436595e+00	2.350204e+00	-9.822584e-01	-4.456232e-01	1.141919e+01	7.784096e+00	6.700771e+00	6.395932e+00	5.563150e+00	9.071812e+00	6.455355e+00	1.164380e+01	1.223775e+01	1.599997e+00	6.532027e-01	1.242960e+01	-6.828035e-01	-4.885485e-01	1.529805e+01	9.509912e+00	1.534007e+01	-1.996493e+00	-3.228013e+00	8.583701e+00	5.516877e+00	6.185130e+00	4.661869e+00	7.004382e+00	8.288624e+00	9.221927e+00	1.642606e+00	2.185891e+00	-2.213799e+00	4.514366e+00	1.495224e+01	-1.722757e+00	9.127425e-01	-9.514277e-01	2.434006e+00	7.278158e-01	1.018318e+01	9.263518e+00	4.734613e+00	9.529483e+00	1.103813e+01	1.116509e+01	1.064917e+01	1.079057e+01	1.027903e+01	3.617011e+00	1.182598e+01	1.275416e+01	1.037183e+01	1.311464e+01	1.281537e+01	1.377603e+01	9.889257e+00	3.357857e+00	1.208476e+01	5.934403e+00	-1.627162e+00	-1.466065e-01	-1.080703e+00	9.880169e+00	8.385815e+00	1.563462e+01	8.061581e+00	1.535155e+01	1.449595e+01	9.881966e+00	8.115204e-01	9.324529e-01	-6.125377e+00	5.915601e+00	3.632875e+00	1.294731e+01	3.872756e+00	2.903571e+00	2.306372e+00	3.765068e+00	1.051600e+01	1.015755e+01	1.220224e+01	9.184922e+00	9.721832e+00	7.043632e+00	7.577555e+00	8.070153e+00	6.983955e+00	7.664250e+00	1.533309e+01	1.277586e+01	2.276270e+00	1.066389e+01	6.511065e+00	2.164835e+00	4.971956e+00	4.609649e+00	-5.126554e+00	-5.917003e+00	6.338956e+00	-4.955073e+00	-3.218406e+00	2.565328e+00	1.085381e+01	1.329598e+01	1.612634e+01	1.552863e+00	8.155666e+00	8.558255e+00	4.357798e+00	1.926026e+00	1.858725e+00	1.512296e+01	9.912111e+00	1.463140e+01	4.275175e+00	9.042312e-01	1.017963e+01	4.641751e+00	-3.887598e+00	1.420465e+01	6.186482e+00	4.007869e+00	1.679395e+00	8.927408e+00	1.819018e+00	3.223839e+00	1.538427e+00	2.656422e+00	1.254493e+00	1.728323e+00	4.542954e-01	4.861219e-02	2.712147e+00	-1.450632e+00	2.096962e+00	6.919755e+00	9.205655e+00	5.620190e-02	6.128879e+00	4.888863e+00	8.355063e+00	-8.338672e-01	5.448508e+00	2.098806e+00	7.468342e+00	-5.668657e-01	1.004074e+00	9.587643e+00	9.835235e+00	8.714045e+00	1.126320e+01	1.122757e+01	6.541107e+00	1.165382e+01	2.843982e+00	1.470577e+01	1.352545e+01	8.272197e+00	1.578646e+01	1.475174e+01	3.021905e+00	1.092167e+01	1.192142e+01	1.506886e+01	1.041403e+01	3.710989e+00	1.460326e+01	3.156175e+00	-3.255814e+00	1.479954e+01	-2.536685e+00	1.323149e+01	8.794783e+00	-3.718989e+00	1.336466e+01	9.893546e+00	2.562953e+00	8.087099e+00	-2.922326e+00	-3.145797e+00	8.716916e+00	5.483446e+00	6.103413e+00	1.173925e+01	8.444065e+00	9.493000e+00	1.153547e+01	1.022579e+01	4.053066e+00	5.180031e+00	2.621223e+00	8.424459e+00	-4.176276e-01	1.286137e+01	1.031030e+01	1.238671e+01	5.115897e+00	1.601230e+01	2.152494e+00	-3.745310e+00	-2.030436e+00	1.031222e+01	-2.280497e+00	1.093389e+01	1.218859e+01	6.684816e+00	7.679626e+00	9.477115e+00	6.294952e-01	1.416255e+00	7.471171e-01	-8.918086e-01	1.368031e+01	1.477554e+01	5.097017e+00	1.326146e+01	9.013932e+00	1.552637e+01	1.761784e+00	1.165005e+01	7.202285e+00	7.581975e+00	2.139841e+00	5.618900e+00	1.363860e+01	8.883292e+00	4.296126e+00	7.556794e+00	
SCALARS Y-Momentum float 1
LOOKUP_TABLE default
-2.059780e-02	3.618723e-01	6.388473e+00	-9.271574e-01	6.000720e-01	2.343813e-01	5.894404e-02	-1.266153e-02	1.687704e-02	4.482005e-02	6.165080e-02	7.899892e-02	6.624164e-02	1.227538e-02	-3.961326e-03	-2.425643e-04	6.188508e-03	5.221765e-03	1.097149e-02	1.354650e-02	-2.405309e-03	1.902635e-02	6.145776e-03	7.430436e-03	-2.958115e-02	1.168497e+00	2.100284e+00	3.005176e+00	3.945363e+00	4.842795e+00	5.682861e+00	6.484489e+00	7.287448e+00	8.141532e+00	8.838042e+00	9.122139e+00	9.452113e+00	-2.228527e+00	1.369917e+00	2.295975e+00	3.143228e+00	3.799005e+00	4.218087e+00	4.440279e+00	4.426879e+00	4.204345e+00	3.812555e+00	3.248103e+00	2.555941e+00	1.643500e+00	-2.492015e-03	3.515269e-02	2.628458e-02	7.912379e-03	1.963109e-03	8.244756e-03	1.241576e-02	2.001170e-03	-4.776641e-02	-7.249367e-02	-1.030414e-01	-5.591838e-01	-5.720637e-01	-1.077239e-01	5.816235e-01	8.129519e-01	4.827092e-01	1.255531e-02	-2.370880e-04	-1.116733e-02	-4.095836e-02	-2.605328e-02	-4.791789e-03	-5.022612e-03	2.780725e-03	-2.865286e-03	9.379707e+00	2.755270e+00	5.064070e-01	-2.504732e-01	4.025443e+00	6.321706e+00	8.637680e-01	5.040169e-01	3.991005e-01	2.531307e-01	4.547262e-01	8.180284e-01	3.586951e+00	4.002595e+00	9.331264e-01	7.293398e-01	3.559664e+00	7.780869e+00	2.535226e+00	2.367096e+00	-9.185991e-01	3.346126e-01	2.639518e-01	8.084898e-01	7.929091e-01	9.496193e-01	-6.778273e-01	2.541866e-01	-5.635229e-01	-2.137392e-03	8.518570e-01	8.364185e-01	2.712019e-02	8.827348e-01	1.705221e+00	1.816125e+00	1.104701e+00	1.990613e+00	1.471601e+00	2.236936e+00	3.039452e+00	3.429043e+00	4.082948e+00	4.661134e+00	4.618343e+00	5.347635e+00	4.422361e+00	5.092096e+00	1.769969e+00	2.446718e+00	3.824162e+00	1.447601e+00	2.086064e+00	3.664623e+00	3.765254e+00	5.192600e+00	3.580422e+00	4.398083e+00	3.162355e+00	2.702033e+00	3.654928e+00	2.621845e+00	2.296172e+00	2.872629e+00	2.422492e+00	2.745526e+00	3.088046e+00	5.425023e+00	5.891851e-01	6.181447e-01	1.886415e+00	1.548959e+00	2.602791e+00	2.804900e+00	2.082485e+00	3.894797e+00	2.636765e+00	3.595797e+00	1.942961e+00	2.362563e+00	1.786661e+00	2.774426e+00	6.364549e+00	2.034269e+00	5.989852e+00	5.193844e+00	2.213290e+00	2.375724e+00	2.594637e+00	3.213972e+00	1.548940e+00	9.276903e-01	8.544401e+00	5.008362e+00	4.594351e+00	3.316630e+00	4.122838e+00	1.518545e+00	2.475787e+00	1.944427e+00	1.714911e+00	3.464606e+00	3.020742e+00	7.416908e+00	2.306791e+00	2.538672e+00	2.388814e+00	1.405767e+00	1.861705e+00	1.767428e+00	6.483700e-01	1.520234e+00	2.852376e+00	2.363984e+00	3.231600e+00	6.501987e+00	6.772227e+00	9.809813e-01	3.575085e+00	3.851771e+00	1.575794e+00	4.338463e+00	3.531335e+00	2.671422e-01	3.026713e-01	-1.574025e-01	-2.453816e-01	-7.485743e-01	3.320922e+00	2.725201e+00	2.159641e+00	5.006110e+00	2.038286e+00	1.457488e+00	1.511503e+00	1.059782e+00	1.064202e+00	3.459996e+00	8.849405e+00	7.793414e+00	9.833799e+00	2.412331e+00	1.340395e+00	2.066314e+00	1.735184e+00	2.979582e+00	9.852524e-01	5.585185e+00	2.011868e+00	2.861600e+00	2.295488e+00	1.006804e+01	1.033552e+01	1.678354e+00	4.034003e-01	1.016457e+00	1.798782e+00	1.237382e+00	3.282239e+00	3.532986e+00	9.158394e-02	7.168657e+00	4.587539e+00	6.254525e-01	2.428810e+00	2.560394e+00	3.641265e+00	-9.817719e-01	6.512441e-01	6.236623e-01	3.933252e+00	4.706495e-01	2.407207e+00	6.259378e-01	1.106630e+00	8.609157e-01	1.416784e+00	1.758275e+00	1.400661e+00	6.224034e+00	3.871571e+00	8.374091e+00	8.327778e+00	3.594478e+00	6.463971e+00	1.064973e+00	5.982040e-01	3.590182e-01	7.495089e-01	-4.591423e-01	9.029396e-01	9.068238e-01	3.462378e-01	6.450891e+00	9.973196e-01	3.666607e+00	3.952669e-01	6.682270e-01	3.668090e-01	3.704175e+00	3.311459e+00	3.057809e+00	3.721320e-01	7.597763e-01	5.493172e+00	2.027222e+00	2.778057e-01	8.760412e+00	9.498991e-01	3.003359e+00	1.537290e+00	7.030440e+00	3.110636e+00	7.116846e-01	3.850563e+00	5.557675e+00	4.024884e+00	1.102869e+00	3.874487e+00	3.206156e+00	3.150298e+00	2.988406e+00	4.757434e+00	1.843198e+00	1.801030e+00	2.632449e+00	8.668641e+00	-9.723791e-01	2.393933e+00	-5.963104e-01	3.773545e+00	2.003967e+00	1.816534e+00	3.573603e+00	1.104868e+01	1.800629e+00	1.488453e+00	1.010533e+00	7.760573e-01	5.281384e+00	9.463731e-01	4.657875e+00	9.310250e-01	1.287615e+00	1.819504e+00	2.541275e+00	1.305220e+00	2.010170e+00	1.382052e+00	1.368817e+00	3.970668e+00	2.713534e+00	4.428352e-01	1.521291e+00	2.044013e+00	2.832080e+00	2.723617e+00	1.743937e+00	1.260244e+00	3.655200e+00	1.527040e+00	3.381746e+00	1.075144e+00	1.093267e+00	6.769044e+00	2.344368e+00	3.558761e+00	1.374843e+00	-4.947697e-01	-5.158494e-01	1.121758e-01	8.766608e+00	1.014784e+01	7.967040e+00	2.848088e+00	6.756256e+00	3.200776e+00	1.494899e+00	1.663763e+00	1.091938e+01	3.291783e+00	1.064468e+00	2.578949e+00	4.831036e+00	1.110850e-01	6.132484e-01	5.108722e+00	4.808435e-01	2.642181e+00	-1.711697e-02	-8.119701e-01	4.576802e-01	1.334790e+00	6.941440e-01	6.886982e+00	2.002953e+00	8.614404e+00	6.286875e-01	3.384626e+00	3.726027e+00	6.844888e-01	9.405589e-01	6.158737e+00	4.082806e+00	7.709131e+00	4.077470e+00	4.382967e+00	1.392941e+00	3.802824e+00	7.822254e-01	2.071648e+00	-5.907165e-01	3.737407e+00	-1.068706e-01	3.158741e+00	8.528362e+00	6.215026e+00	2.020450e+00	
SCALARS Energy float 1
LOOKUP_TABLE default