# vtk DataFile Version 3.0
vtk output
ASCII
DATASET UNSTRUCTURED_GRID
POINTS 394 float
-3.000000e+00	0.000000e+00	0.0	-5.000000e-02	5.299937e-17	0.0	4.268179e-01	1.031796e+00	0.0	5.268683e-01	9.681880e-01	0.0	5.000000e-02	-1.105576e-17	0.0	3.000000e+00	0.000000e+00	0.0	3.000000e+00	4.000000e+00	0.0	-3.000000e+00	4.000000e+00	0.0	-3.000000e+00	3.428571e+00	0.0	-3.000000e+00	2.857143e+00	0.0	-3.000000e+00	2.285714e+00	0.0	-3.000000e+00	1.714286e+00	0.0	-3.000000e+00	1.142857e+00	0.0	-3.000000e+00	5.714286e-01	0.0	-2.473871e+00	0.000000e+00	0.0	-2.029066e+00	0.000000e+00	0.0	-1.653013e+00	0.000000e+00	0.0	-1.335087e+00	0.000000e+00	0.0	-1.066302e+00	0.000000e+00	0.0	-8.390627e-01	0.000000e+00	0.0	-6.469477e-01	0.000000e+00	0.0	-4.845277e-01	0.000000e+00	0.0	-3.472127e-01	0.000000e+00	0.0	-2.311224e-01	0.000000e+00	0.0	-1.329760e-01	0.000000e+00	0.0	-4.366764e-02	8.344963e-02	0.0	-2.858935e-02	1.661018e-01	0.0	-5.421909e-03	2.477873e-01	0.0	2.436115e-02	3.285887e-01	0.0	5.946365e-02	4.086068e-01	0.0	9.876040e-02	4.879501e-01	0.0	1.412921e-01	5.667174e-01	0.0	1.862365e-01	6.449915e-01	0.0	2.328860e-01	7.228546e-01	0.0	2.806644e-01	8.003875e-01	0.0	3.291063e-01	8.776841e-01	0.0	3.779485e-01	9.547723e-01	0.0	4.768450e-01	1.000038e+00	0.0	4.778906e-01	8.913243e-01	0.0	4.291062e-01	8.145310e-01	0.0	3.806550e-01	7.379365e-01	0.0	3.328857e-01	6.616001e-01	0.0	2.862419e-01	5.856048e-01	0.0	2.413034e-01	5.100337e-01	0.0	1.987761e-01	4.349655e-01	0.0	1.594842e-01	3.604810e-01	0.0	1.243862e-01	2.866770e-01	0.0	9.460751e-02	2.136622e-01	0.0	7.144916e-02	1.415313e-01	0.0	5.629085e-02	7.033379e-02	0.0	1.329760e-01	0.000000e+00	0.0	2.311224e-01	0.000000e+00	0.0	3.472127e-01	0.000000e+00	0.0	4.845277e-01	0.000000e+00	0.0	6.469477e-01	0.000000e+00	0.0	8.390627e-01	0.000000e+00	0.0	1.066302e+00	0.000000e+00	0.0	1.335087e+00	0.000000e+00	0.0	1.653013e+00	0.000000e+00	0.0	2.029066e+00	0.000000e+00	0.0	2.473871e+00	0.000000e+00	0.0	3.000000e+00	5.714286e-01	0.0	3.000000e+00	1.142857e+00	0.0	3.000000e+00	1.714286e+00	0.0	3.000000e+00	2.285714e+00	0.0	3.000000e+00	2.857143e+00	0.0	3.000000e+00	3.428571e+00	0.0	2.400000e+00	4.000000e+00	0.0	1.800000e+00	4.000000e+00	0.0	1.200000e+00	4.000000e+00	0.0	6.000000e-01	4.000000e+00	0.0	0.000000e+00	4.000000e+00	0.0	-6.000000e-01	4.000000e+00	0.0	-1.200000e+00	4.000000e+00	0.0	-1.800000e+00	4.000000e+00	0.0	-2.400000e+00	4.000000e+00	0.0	2.527136e-01	9.387635e-01	0.0	5.008438e-01	8.373397e-01	0.0	-1.460741e+00	2.923634e-01	0.0	1.542864e+00	1.831382e-01	0.0	3.076354e-01	5.291067e-01	0.0	7.319706e-02	6.286564e-01	0.0	-7.236415e-01	2.049834e-01	0.0	7.849857e-01	1.158898e-01	0.0	-2.537724e+00	2.106986e+00	0.0	2.612919e+00	1.903354e+00	0.0	-8.218783e-01	3.526359e+00	0.0	1.051917e+00	3.444483e+00	0.0	2.003365e-01	3.125321e-01	0.0	-3.884986e-02	3.819632e-01	0.0	-3.996124e-01	1.406060e-01	0.0	4.385951e-01	8.390157e-02	0.0	4.030522e-01	6.791019e-01	0.0	1.580301e-01	7.861937e-01	0.0	1.563339e-01	1.729317e-01	0.0	-9.035234e-02	2.186302e-01	0.0	2.573498e+00	7.546452e-01	0.0	-2.476520e+00	8.251197e-01	0.0	-2.011146e+00	3.474175e+00	0.0	2.135088e+00	3.415501e+00	0.0	-1.769705e-01	8.751108e-02	0.0	1.933959e-01	6.292452e-02	0.0	2.265672e+00	3.457266e-01	0.0	-2.236909e+00	3.831017e-01	0.0	2.567644e+00	1.342127e+00	0.0	2.248121e+00	1.631163e+00	0.0	2.233673e+00	2.058756e+00	0.0	1.938481e+00	1.783306e+00	0.0	1.907723e+00	1.366450e+00	0.0	1.671333e+00	1.570612e+00	0.0	1.648142e+00	1.931191e+00	0.0	1.436354e+00	1.715389e+00	0.0	1.436305e+00	1.404927e+00	0.0	1.244434e+00	1.532488e+00	0.0	1.241452e+00	1.274507e+00	0.0	1.068284e+00	1.360403e+00	0.0	1.049564e+00	1.636609e+00	0.0	8.987063e-01	1.496678e+00	0.0	8.569366e-01	1.742854e+00	0.0	7.111590e-01	1.631989e+00	0.0	6.555503e-01	1.853334e+00	0.0	5.158936e-01	1.740018e+00	0.0	4.347027e-01	1.965097e+00	0.0	2.837051e-01	1.808322e+00	0.0	1.085800e+00	1.140031e+00	0.0	1.380810e+00	2.066279e+00	0.0	6.329836e-01	2.121141e+00	0.0	1.202894e+00	1.019706e+00	0.0	1.043535e+00	9.488117e-01	0.0	1.706638e-01	2.090665e+00	0.0	-4.205025e-02	1.949015e+00	0.0	7.428426e-02	1.675776e+00	0.0	-2.776543e-01	1.810746e+00	0.0	-2.010393e-01	1.576541e+00	0.0	-5.129492e-01	1.658659e+00	0.0	-5.421042e-01	1.892009e+00	0.0	-4.548985e-01	1.421795e+00	0.0	-7.809430e-01	1.494778e+00	0.0	9.442222e-01	1.039311e+00	0.0	9.025074e-01	8.668889e-01	0.0	9.930158e-01	7.702938e-01	0.0	-1.401601e-01	2.235239e+00	0.0	8.385855e-01	6.932060e-01	0.0	5.723023e-01	1.509384e+00	0.0	4.822250e-01	1.052793e+00	0.0	5.427126e-01	1.015032e+00	0.0	5.114344e-01	1.099581e+00	0.0	5.773043e-01	1.081265e+00	0.0	1.074897e-01	2.403373e+00	0.0	-7.428062e-01	1.233248e+00	0.0	-1.068758e+00	1.308070e+00	0.0	-4.298066e-01	1.161708e+00	0.0	-7.744596e-01	9.541094e-01	0.0	-4.809500e-01	9.334306e-01	0.0	-1.111531e+00	1.605024e+00	0.0	9.288152e-01	5.981579e-01	0.0	1.096055e+00	6.677094e-01	0.0	7.674542e-01	5.397507e-01	0.0	6.297312e-02	1.447041e+00	0.0	1.600526e+00	2.301883e+00	0.0	4.339872e-01	1.116665e+00	0.0	4.732433e-01	1.178368e+00	0.0	5.971072e-01	9.879603e-01	0.0	6.483221e-01	1.060620e+00	0.0	6.158211e-01	1.155770e+00	0.0	6.628585e-01	9.555242e-01	0.0	1.026752e+00	4.955046e-01	0.0	1.230337e+00	5.848650e-01	0.0	3.728189e-01	1.195572e+00	0.0	-2.287580e-01	1.048277e+00	0.0	-2.684266e-01	8.705382e-01	0.0	-4.811909e-01	7.304964e-01	0.0	-2.734342e-01	6.962964e-01	0.0	-1.417238e+00	1.392463e+00	0.0	7.098692e-01	1.144938e+00	0.0	-2.449567e-01	2.553522e+00	0.0	2.309940e-02	2.763985e+00	0.0	6.876259e-01	6.181116e-01	0.0	6.134042e-01	4.808521e-01	0.0	4.244986e-01	1.275519e+00	0.0	6.931132e-01	4.038065e-01	0.0	5.379235e-01	3.548865e-01	0.0	1.299034e+00	2.452760e+00	0.0	-1.471369e+00	1.724205e+00	0.0	1.531508e+00	2.696137e+00	0.0	6.142866e-01	2.803271e-01	0.0	1.136421e+00	3.374521e-01	0.0	-1.361309e+00	1.097270e+00	0.0	-4.677963e-01	5.480743e-01	0.0	-6.360194e-01	5.779504e-01	0.0	-3.166916e-01	5.074129e-01	0.0	-3.882486e-02	9.885108e-01	0.0	-3.290303e-02	1.137122e+00	0.0	-1.889684e+00	1.489350e+00	0.0	5.417227e-01	5.571776e-01	0.0	6.253255e-01	6.927607e-01	0.0	7.813378e-01	3.237239e-01	0.0	-1.626593e-01	6.032040e-01	0.0	9.871396e-01	1.920813e+00	0.0	1.366599e+00	4.999759e-01	0.0	1.434282e+00	7.068180e-01	0.0	1.591328e+00	5.723017e-01	0.0	1.674239e+00	8.421964e-01	0.0	1.896799e+00	7.140471e-01	0.0	6.553331e-01	1.254826e+00	0.0	7.657324e-01	1.240906e+00	0.0	-4.613831e-01	3.742621e-01	0.0	-1.870162e-01	1.384402e+00	0.0	-5.126770e-01	2.352389e+00	0.0	-6.433593e-01	2.700890e+00	0.0	-9.406410e-01	2.488658e+00	0.0	-1.064981e+00	2.840254e+00	0.0	-1.446713e+00	2.524350e+00	0.0	-1.871708e-01	4.491122e-01	0.0	2.999548e-01	1.290081e+00	0.0	3.473113e-01	1.391414e+00	0.0	2.536099e-01	1.200501e+00	0.0	4.192556e-01	2.563766e+00	0.0	3.358779e-01	3.027317e+00	0.0	7.118921e-01	2.763630e+00	0.0	-1.154497e+00	1.934251e+00	0.0	8.223694e-01	9.565282e-01	0.0	-1.261526e-01	3.179195e+00	0.0	-1.031519e-01	8.308291e-01	0.0	4.631402e-01	2.411351e-01	0.0	3.730667e-01	3.068856e-01	0.0	3.275378e-01	2.123164e-01	0.0	3.265392e-01	1.127748e+00	0.0	2.148460e-01	1.109720e+00	0.0	1.867258e+00	2.547034e+00	0.0	1.603592e+00	1.249130e+00	0.0	2.548042e+00	2.477553e+00	0.0	1.129200e+00	2.880677e+00	0.0	-1.534883e+00	2.086538e+00	0.0	4.509832e-01	4.240454e-01	0.0	3.243319e-01	3.856079e-01	0.0	1.248603e+00	1.634650e-01	0.0	4.782385e-02	8.979974e-01	0.0	-7.980860e-02	5.298790e-01	0.0	4.932406e-01	3.522745e+00	0.0	-3.176364e-01	3.497774e-01	0.0	-2.048170e-01	3.134132e-01	0.0	7.645814e-01	7.954292e-01	0.0	2.234988e+00	9.843077e-01	0.0	-1.566158e+00	3.050560e+00	0.0	-1.925976e+00	2.704085e+00	0.0	7.025935e-01	1.372058e+00	0.0	-2.442122e+00	1.348493e+00	0.0	9.158926e-01	1.290208e+00	0.0	-1.172240e+00	2.647031e-01	0.0	-1.256009e+00	5.491008e-01	0.0	-1.546389e+00	5.977146e-01	0.0	-9.805318e-01	5.273145e-01	0.0	-1.057219e+00	7.918027e-01	0.0	1.795426e+00	3.009775e+00	0.0	2.927883e-01	1.623987e+00	0.0	6.710988e-01	8.317111e-01	0.0	1.640696e-01	1.297323e+00	0.0	9.274343e-02	9.861808e-01	0.0	5.512161e-01	7.610033e-01	0.0	1.933642e-02	7.714453e-01	0.0	-5.405479e-01	2.081551e-01	0.0	5.942829e-01	9.324601e-02	0.0	1.010812e+00	1.504611e-01	0.0	-9.314592e-01	2.370223e-01	0.0	1.868816e+00	2.300229e-01	0.0	3.084643e-01	7.307104e-02	0.0	-2.732606e-01	1.129755e-01	0.0	-1.414346e+00	3.542938e+00	0.0	4.858619e-01	1.375720e+00	0.0	2.575460e+00	3.090992e+00	0.0	4.252444e-01	5.038960e-01	0.0	-1.813405e+00	3.349401e-01	0.0	-1.924444e+00	7.506114e-01	0.0	1.520926e+00	9.721937e-01	0.0	4.571988e-01	6.061062e-01	0.0	5.938483e-01	8.806052e-01	0.0	1.083896e+00	2.206281e+00	0.0	-2.482695e+00	2.552597e+00	0.0	1.547911e+00	3.497405e+00	0.0	-3.592180e-02	6.577370e-01	0.0	5.443019e-01	9.276329e-01	0.0	-2.413280e+00	3.089238e+00	0.0	2.039905e-01	8.615864e-01	0.0	9.049668e-01	2.430418e-01	0.0	7.602231e-01	2.406430e+00	0.0	-7.770293e-01	3.979576e-01	0.0	1.123580e-01	7.083351e-01	0.0	4.511428e-01	7.554778e-01	0.0	-2.085845e+00	1.118210e+00	0.0	3.537392e-01	6.073460e-01	0.0	2.586915e-02	5.578806e-01	0.0	2.697897e-01	4.551173e-01	0.0	1.289752e+00	8.180999e-01	0.0	2.319425e-01	3.809625e-01	0.0	-6.437888e-02	2.980342e-01	0.0	1.722221e-01	2.423941e-01	0.0	2.620528e-01	2.639558e-01	0.0	-1.192721e-02	4.676947e-01	0.0	2.477692e-01	1.365499e-01	0.0	-1.878779e-01	1.996653e-01	0.0	-6.897842e-01	7.465220e-01	0.0	1.182337e-01	1.190086e+00	0.0	2.195539e+00	6.557261e-01	0.0	8.350290e-01	1.119436e+00	0.0	1.945574e+00	1.042741e+00	0.0	4.303642e-01	1.070260e+00	0.0	8.570023e-01	4.551872e-01	0.0	-6.034530e-01	3.884604e-01	0.0	4.894879e-01	7.012879e-01	0.0	2.931778e-01	1.058291e+00	0.0	1.297879e-01	1.031384e-01	0.0	-1.041423e-01	1.302120e-01	0.0	-1.818594e+00	1.858415e+00	0.0	-1.975456e+00	2.232379e+00	0.0	-1.848917e-01	1.213180e+00	0.0	-7.442568e-01	3.090965e+00	0.0	5.299679e-01	1.249020e+00	0.0	1.387290e+00	1.122149e+00	0.0	-3.705089e-01	2.929682e+00	0.0	1.127691e+00	8.416224e-01	0.0	1.001478e+00	2.541539e+00	0.0	7.529293e-01	3.127962e+00	0.0	-1.060851e+00	1.033563e+00	0.0	2.192076e+00	2.822197e+00	0.0	1.426088e+00	3.106083e+00	0.0	-9.977955e-02	4.412
[...]
POINT_DATA 394

SCALARS Density float 1
LOOKUP_TABLE default
1.223710e+00	1.223909e+00	1.221563e+00	1.221973e+00	1.223446e+00	1.223628e+00	1.223276e+00	1.223587e+00	1.223572e+00	1.223583e+00	1.223624e+00	1.223648e+00	1.223712e+00	1.223718e+00	1.223726e+00	1.223713e+00	1.223741e+00	1.223757e+00	1.223797e+00	1.223820e+00	1.223836e+00	1.223903e+00	1.223867e+00	1.223979e+00	1.223853e+00	1.224028e+00	1.223860e+00	1.223865e+00	1.223845e+00	1.223800e+00	1.223771e+00	1.223715e+00	1.223701e+00	1.223610e+00	1.223691e+00	1.222922e+00	1.224766e+00	1.219786e+00	1.223810e+00	1.223352e+00	1.223410e+00	1.223403e+00	1.223361e+00	1.223338e+00	1.223332e+00	1.223332e+00	1.223349e+00	1.223377e+00	1.223310e+00	1.223496e+00	1.223315e+00	1.223404e+00	1.223343e+00	1.223288e+00	1.223245e+00	1.223211e+00	1.223129e+00	1.223119e+00	1.223121e+00	1.223255e+00	1.222785e+00	1.223364e+00	1.223096e+00	1.222912e+00	1.222836e+00	1.222951e+00	1.223089e+00	1.223111e+00	1.223252e+00	1.223290e+00	1.223372e+00	1.223417e+00	1.223492e+00	1.223541e+00	1.223573e+00	1.223576e+00	1.222936e+00	1.223736e+00	1.223748e+00	1.223070e+00	1.223379e+00	1.223685e+00	1.223821e+00	1.223181e+00	1.223619e+00	1.223314e+00	1.223511e+00	1.223306e+00	1.223349e+00	1.223818e+00	1.223891e+00	1.223288e+00	1.223494e+00	1.223487e+00	1.223421e+00	1.223883e+00	1.223035e+00	1.223707e+00	1.223593e+00	1.223125e+00	1.223939e+00	1.223381e+00	1.223186e+00	1.223699e+00	1.223003e+00	1.222897e+00	1.223106e+00	1.223110e+00	1.223039e+00	1.223022e+00	1.223020e+00	1.223277e+00	1.222822e+00	1.222876e+00	1.222969e+00	1.223073e+00	1.222853e+00	1.223145e+00	1.223131e+00	1.223248e+00	1.223164e+00	1.223225e+00	1.223432e+00	1.223315e+00	1.222914e+00	1.223026e+00	1.223247e+00	1.222814e+00	1.222989e+00	1.223401e+00	1.223492e+00	1.223495e+00	1.223430e+00	1.223568e+00	1.223636e+00	1.223532e+00	1.223608e+00	1.223616e+00	1.223114e+00	1.223047e+00	1.223163e+00	1.223499e+00	1.223202e+00	1.223179e+00	1.221225e+00	1.221657e+00	1.222775e+00	1.222770e+00	1.223412e+00	1.223683e+00	1.223670e+00	1.223717e+00	1.223731e+00	1.223742e+00	1.223634e+00	1.223113e+00	1.222932e+00	1.223220e+00	1.223503e+00	1.223190e+00	1.221698e+00	1.223139e+00	1.222662e+00	1.222744e+00	1.222540e+00	1.223011e+00	1.223148e+00	1.223051e+00	1.223136e+00	1.223680e+00	1.223727e+00	1.223756e+00	1.223728e+00	1.223665e+00	1.222630e+00	1.223464e+00	1.223456e+00	1.223347e+00	1.223275e+00	1.223059e+00	1.223241e+00	1.223303e+00	1.223284e+00	1.223634e+00	1.223166e+00	1.223287e+00	1.223047e+00	1.223708e+00	1.223796e+00	1.223818e+00	1.223892e+00	1.223599e+00	1.223548e+00	1.223674e+00	1.223327e+00	1.223399e+00	1.223188e+00	1.223781e+00	1.223359e+00	1.222909e+00	1.223091e+00	1.222866e+00	1.222839e+00	1.222986e+00	1.222814e+00	1.222817e+00	1.223854e+00	1.223502e+00	1.223526e+00	1.223508e+00	1.223566e+00	1.223553e+00	1.223606e+00	1.223809e+00	1.223113e+00	1.223469e+00	1.223423e+00	1.223338e+00	1.223371e+00	1.223389e+00	1.223609e+00	1.222892e+00	1.223411e+00	1.223745e+00	1.223287e+00	1.223305e+00	1.223343e+00	1.223594e+00	1.223088e+00	1.223101e+00	1.222827e+00	1.223287e+00	1.223304e+00	1.223628e+00	1.223374e+00	1.223254e+00	1.222938e+00	1.223568e+00	1.223893e+00	1.223409e+00	1.223865e+00	1.223890e+00	1.223105e+00	1.222829e+00	1.223548e+00	1.223586e+00	1.222633e+00	1.223656e+00	1.222886e+00	1.223784e+00	1.223803e+00	1.223681e+00	1.223777e+00	1.223704e+00	1.223268e+00	1.223451e+00	1.223167e+00	1.223392e+00	1.223646e+00	1.223429e+00	1.223751e+00	1.223920e+00	1.223264e+00	1.223158e+00	1.223817e+00	1.222923e+00	1.223414e+00	1.223949e+00	1.223552e+00	1.223043e+00	1.223166e+00	1.223406e+00	1.223749e+00	1.223699e+00	1.222972e+00	1.223351e+00	1.223018e+00	1.223215e+00	1.223622e+00	1.223244e+00	1.223702e+00	1.223097e+00	1.223608e+00	1.223962e+00	1.223154e+00	1.223348e+00	1.223780e+00	1.223740e+00	1.223379e+00	1.223672e+00	1.223428e+00	1.223729e+00	1.223363e+00	1.222977e+00	1.223362e+00	1.223867e+00	1.223359e+00	1.223290e+00	1.223754e+00	1.223271e+00	1.223916e+00	1.223732e+00	1.223536e+00	1.222851e+00	1.222933e+00	1.223230e+00	1.225436e+00	1.223199e+00	1.223857e+00	1.223306e+00	1.223389e+00	1.223335e+00	1.223898e+00	1.223622e+00	1.223628e+00	1.223600e+00	1.223507e+00	1.222705e+00	1.223026e+00	1.223470e+00	1.222922e+00	1.223237e+00	1.223296e+00	1.223738e+00	1.223299e+00	1.223247e+00	1.223851e+00	1.223546e+00	1.223508e+00	1.223085e+00	1.223547e+00	1.222852e+00	1.223157e+00	1.223838e+00	1.223244e+00	1.223361e+00	1.223298e+00	1.223359e+00	1.223714e+00	1.223204e+00	1.223269e+00	1.223615e+00	1.222960e+00	1.223716e+00	1.223215e+00	1.222353e+00	1.223733e+00	1.223676e+00	1.223158e+00	1.223364e+00	1.222396e+00	1.223586e+00	1.223113e+00	1.223584e+00	1.223765e+00	1.225429e+00	1.223853e+00	1.223709e+00	1.223289e+00	1.223189e+00	1.223566e+00	1.223419e+00	1.223725e+00	1.223040e+00	1.223878e+00	1.223060e+00	1.222963e+00	1.223568e+00	1.223036e+00	1.223563e+00	1.223289e+00	1.223773e+00	1.223710e+00	1.223680e+00	1.223287e+00	1.223292e+00	1.223923e+00	1.223487e+00	1.223490e+00	1.223133e+00	1.223474e+00	1.222718e+00	1.223376e+00	1.223154e+00	1.223314e+00	1.223462e+00	1.223722e+00	1.222948e+00	1.223412e+00	1.222718e+00	1.223281e+00	1.222902e+00	1.223586e+00	1.222812e+00	
SCALARS X-Momentum float 1
LOOKUP_TABLE default
8.799057e+00	4.299602e-01	6.871343e+00	7.663673e-02	-5.505873e-01	-4.139572e+00	1.617437e+01	1.030549e+01	1.018031e+01	9.986535e+00	9.747364e+00	9.471230e+00	9.213084e+00	8.966399e+00	8.654474e+00	8.364547e+00	7.929096e+00	7.362968e+00	6.716825e+00	5.971191e+00	5.119080e+00	4.277050e+00	3.280868e+00	2.281767e+00	1.279397e+00	1.186067e-01	5.667513e-01	1.178836e+00	1.850405e+00	2.546013e+00	3.207628e+00	3.822939e+00	4.411900e+00	4.956345e+00	5.333939e+00	5.289509e+00	4.940465e+00	3.960283e+00	1.111306e+00	1.314520e+00	1.776684e+00	2.053085e+00	2.204845e+00	2.236656e+00	2.103774e+00	1.831784e+00	1.472405e+00	1.039856e+00	6.251263e-01	2.828372e-01	-1.831982e+00	-3.338380e+00	-4.614181e+00	-5.746166e+00	-6.655536e+00	-7.338639e+00	-7.810158e+00	-8.031911e+00	-7.574855e+00	-6.691592e+00	-5.754839e+00	-3.474449e-01	5.031557e+00	1.025879e+01	1.401879e+01	1.587326e+01	1.633880e+01	1.548781e+01	1.461478e+01	1.365536e+01	1.285072e+01	1.218121e+01	1.160598e+01	1.110623e+01	1.069876e+01	1.042936e+01	5.577724e+00	2.087787e+00	7.829257e+00	-5.382998e+00	2.152607e+00	4.701666e+00	5.833892e+00	-5.145847e+00	9.687722e+00	1.236604e+01	1.126632e+01	1.372570e+01	1.175482e+00	2.885087e+00	3.935118e+00	-3.832823e+00	2.297824e+00	5.598953e+00	1.143384e-01	1.711146e+00	1.349334e+00	8.974419e+00	1.042691e+01	1.539885e+01	1.839427e+00	-1.747181e+00	-2.769587e+00	8.670640e+00	7.406314e+00	1.070951e+01	1.381144e+01	1.262461e+01	8.740697e+00	1.135643e+01	1.406517e+01	1.312227e+01	1.002275e+01	1.185078e+01	8.453925e+00	1.013443e+01	1.337975e+01	1.247321e+01	1.428384e+01	1.396501e+01	1.434763e+01	1.396638e+01	1.360199e+01	1.288522e+01	6.628039e+00	1.483643e+01	1.405768e+01	5.018803e+00	4.082402e+00	1.253843e+01	1.171422e+01	1.169117e+01	1.084693e+01	1.046538e+01	1.013004e+01	1.046124e+01	9.573315e+00	9.509406e+00	4.873738e+00	3.057407e+00	2.329188e+00	1.166521e+01	2.003003e+00	1.361954e+01	5.565475e+00	2.374140e+00	6.513588e+00	4.557282e+00	1.234260e+01	8.895166e+00	9.050120e+00	8.747974e+00	8.075513e+00	7.765387e+00	9.536343e+00	9.077733e-01	1.197577e+00	9.594141e-01	1.102011e+01	1.520719e+01	9.593049e+00	1.043419e+01	2.186542e+00	4.020157e+00	7.280447e+00	2.702759e+00	-6.326163e-01	-1.824788e-01	1.154850e+01	8.283083e+00	7.290188e+00	6.862496e+00	6.200363e+00	9.192501e+00	6.318958e+00	1.161854e+01	1.217991e+01	2.029215e+00	1.052297e+00	1.242614e+01	-2.754214e-01	-1.082623e-01	1.506906e+01	9.588321e+00	1.513599e+01	-1.580501e+00	-2.800691e+00	8.747369e+00	5.988136e+00	6.572823e+00	5.231933e+00	7.707025e+00	8.820535e+00	9.309043e+00	2.050869e+00	2.651486e+00	-1.776669e+00	5.258462e+00	1.465292e+01	-1.402178e+00	1.056698e+00	-7.010290e-01	2.475167e+00	8.767856e-01	9.922787e+00	8.975116e+00	5.173475e+00	9.813027e+00	1.104491e+01	1.113147e+01	1.064553e+01	1.075740e+01	1.028155e+01	4.260411e+00	1.203161e+01	1.284580e+01	1.077079e+01	1.305940e+01	1.272370e+01	1.367337e+01	9.951265e+00	3.536651e+00	1.199187e+01	6.716413e+00	-1.250220e+00	1.873313e-01	-7.641064e-01	1.026537e+01	9.043336e+00	1.537801e+01	7.781042e+00	1.512954e+01	1.435438e+01	9.922671e+00	1.174395e+00	1.274405e+00	-5.565550e+00	6.841782e+00	4.446194e+00	1.282705e+01	4.357216e+00	3.402280e+00	2.703844e+00	3.767719e+00	1.048556e+01	1.015356e+01	1.189301e+01	9.261449e+00	9.376107e+00	7.282599e+00	7.802898e+00	8.249080e+00	7.267752e+00	7.919145e+00	1.516815e+01	1.284724e+01	2.767997e+00	1.101086e+01	7.406141e+00	2.670271e+00	5.965183e+00	4.972173e+00	-4.614049e+00	-5.365604e+00	6.624321e+00	-4.509625e+00	-2.855004e+00	2.870641e+00	1.078893e+01	1.320340e+01	1.598330e+01	1.936863e+00	8.313217e+00	8.694530e+00	4.282682e+00	2.350422e+00	2.408992e+00	1.487685e+01	9.920721e+00	1.452498e+01	5.204648e+00	1.461011e+00	1.016474e+01	5.881730e+00	-3.407346e+00	1.408983e+01	6.521950e+00	5.191102e+00	2.177738e+00	9.033241e+00	2.262732e+00	4.217666e+00	1.911966e+00	2.698517e+00	1.586552e+00	2.245271e+00	6.914209e-01	3.389920e-01	3.562259e+00	-1.173543e+00	2.450605e+00	7.283919e+00	9.712683e+00	2.348344e-01	6.006938e+00	4.802113e+00	8.363795e+00	-4.334014e-01	5.833841e+00	2.558293e+00	8.211483e+00	-4.087238e-01	1.217449e+00	9.643756e+00	9.862529e+00	9.102520e+00	1.119852e+01	1.105825e+01	6.332727e+00	1.158952e+01	2.921684e+00	1.455085e+01	1.341497e+01	8.487390e+00	1.558787e+01	1.461161e+01	3.738432e+00	1.097327e+01	1.180314e+01	1.472850e+01	1.045607e+01	3.838077e+00	1.420194e+01	3.550520e+00	-2.821161e+00	1.461305e+01	-2.165737e+00	1.320145e+01	8.922736e+00	-3.244946e+00	1.337009e+01	9.989878e+00	2.919482e+00	8.287850e+00	-2.568032e+00	-2.767038e+00	8.831090e+00	6.559384e+00	7.061855e+00	1.196596e+01	8.305080e+00	9.878593e+00	1.116997e+01	1.025051e+01	4.455669e+00	6.278236e+00	3.213578e+00	8.584203e+00	-1.561585e-01	1.263213e+01	1.028043e+01	1.226864e+01	5.933409e+00	1.594001e+01	2.617258e+00	-3.317361e+00	-1.733747e+00	1.029080e+01	-1.859111e+00	1.087682e+01	1.234495e+01	7.019886e+00	8.384199e+00	9.529947e+00	9.434975e-01	1.788342e+00	8.746587e-01	-7.593287e-01	1.365273e+01	1.456133e+01	6.178758e+00	1.293180e+01	9.320096e+00	1.524857e+01	2.162638e+00	1.155834e+01	7.509897e+00	7.404759e+00	2.578702e+00	5.468033e+00	1.358104e+01	9.169831e+00	5.331198e+00	7.291785e+00	
SCALARS Y-Momentum float 1
LOOKUP_TABLE default
-1.817551e-02	4.247714e-01	5.154402e+00	-8.350329e-01	5.201698e-01	2.312930e-01	6.430371e-02	-1.215423e-02	1.404241e-02	4.029609e-02	5.630481e-02	7.382907e-02	6.226966e-02	1.180096e-02	-3.376155e-03	-1.525705e-05	6.953679e-03	5.908898e-03	1.185562e-02	1.422898e-02	5.827542e-04	2.763225e-02	1.204907e-02	8.675582e-03	-3.351891e-02	1.375726e+00	2.446355e+00	3.424964e+00	4.383453e+00	5.246016e+00	6.003105e+00	6.675121e+00	7.302791e+00	7.949348e+00	8.387273e+00	8.428814e+00	8.445853e+00	-2.516754e+00	1.048684e+00	1.812154e+00	2.529312e+00	3.087774e+00	3.443304e+00	3.637599e+00	3.646860e+00	3.479652e+00	3.168181e+00	2.715086e+00	2.158362e+00	1.407182e+00	-3.090015e-04	3.549200e-02	2.507022e-02	8.845554e-03	2.636780e-03	7.107134e-03	1.038171e-02	3.232881e-03	-4.128395e-02	-6.569352e-02	-1.012109e-01	-5.068479e-01	-4.505027e-01	5.008419e-02	7.178896e-01	8.989786e-01	5.159550e-01	1.040911e-02	1.885779e-04	-7.522069e-03	-3.815320e-02	-2.548936e-02	-5.015815e-03	-5.731613e-03	1.597555e-03	-3.288293e-03	8.710406e+00	2.255796e+00	4.915786e-01	-2.081796e-01	3.283341e+00	6.423683e+00	8.846341e-01	4.339131e-01	3.710712e-01	3.884356e-01	4.245210e-01	8.454523e-01	2.976200e+00	4.362798e+00	1.011001e+00	6.200886e-01	2.887456e+00	7.573510e+00	2.128860e+00	2.691794e+00	-8.179797e-01	3.163346e-01	2.412883e-01	8.376134e-01	8.983149e-01	8.181785e-01	-6.138038e-01	2.422325e-01	-4.237599e-01	1.144293e-01	9.410245e-01	8.836390e-01	9.557555e-02	8.661673e-01	1.680202e+00	1.704647e+00	1.016379e+00	1.792018e+00	1.316248e+00	1.946028e+00	2.736404e+00	3.004186e+00	3.744141e+00	4.234871e+00	4.352916e+00	5.026854e+00	4.258543e+00	4.881840e+00	1.571732e+00	2.364560e+00	3.686387e+00	1.340494e+00	1.917821e+00	3.566557e+00	3.653013e+00	4.993190e+00	3.461322e+00	4.247623e+00	3.041532e+00	2.588060e+00	3.525715e+00	2.502402e+00	2.070266e+00	2.630032e+00	2.221982e+00	2.666545e+00	2.765974e+00	4.902147e+00	1.330512e-01	3.790237e-01	1.276973e+00	1.123825e+00	2.547691e+00	2.693908e+00	1.974665e+00	3.777937e+00	2.547280e+00	3.513959e+00	1.830943e+00	2.113645e+00	1.657575e+00	2.402091e+00	6.078929e+00	2.033448e+00	5.043525e+00	4.363846e+00	1.932490e+00	2.002595e+00	2.025424e+00	2.899756e+00	1.400513e+00	8.867548e-01	7.613385e+00	4.876782e+00	4.521951e+00	3.289480e+00	4.148178e+00	1.427141e+00	2.031072e+00	1.879852e+00	1.682802e+00	2.995008e+00	2.547903e+00	6.613305e+00	1.955115e+00	2.120906e+00	2.364364e+00	1.315474e+00	1.888028e+00	1.483563e+00	5.987922e-01	1.436908e+00	2.891411e+00	2.361939e+00	3.343041e+00	6.296025e+00	6.499149e+00	9.187000e-01	2.995223e+00	3.317312e+00	1.347365e+00	4.466369e+00	3.299839e+00	2.896470e-01	3.282147e-01	-8.591607e-02	-1.627540e-01	-6.395331e-01	2.716160e+00	2.245255e+00	2.241583e+00	4.824970e+00	1.947604e+00	1.379908e+00	1.416417e+00	9.864576e-01	9.871773e-01	3.672295e+00	8.146499e+00	7.192054e+00	9.065594e+00	2.384902e+00	1.338112e+00	2.065623e+00	1.627705e+00	2.710960e+00	9.606629e-01	5.516198e+00	1.687758e+00	2.391302e+00	1.934792e+00	9.021598e+00	9.567811e+00	1.719814e+00	4.137418e-01	1.104913e+00	1.817922e+00	1.151899e+00	2.727344e+00	2.919835e+00	9.301553e-02	6.953575e+00	4.801532e+00	6.378665e-01	2.576913e+00	2.788397e+00	3.270126e+00	-8.582831e-01	6.007025e-01	5.768450e-01	3.369062e+00	4.414035e-01	2.023832e+00	6.151155e-01	1.072006e+00	8.256130e-01	1.391541e+00	1.694346e+00	1.447041e+00	5.901413e+00	3.449641e+00	7.878181e+00	7.951436e+00	3.023236e+00	6.401659e+00	1.118072e+00	5.070328e-01	3.162652e-01	7.494044e-01	-3.982281e-01	7.745412e-01	1.005344e+00	3.183518e-01	5.788619e+00	1.044342e+00	3.026626e+00	3.793916e-01	6.346359e-01	3.887412e-01	3.040802e+00	2.906028e+00	2.945941e+00	3.439604e-01	7.913067e-01	5.597578e+00	1.757926e+00	2.553720e-01	8.331835e+00	8.302204e-01	2.941500e+00	1.542432e+00	6.987749e+00	2.512624e+00	6.697918e-01	3.131075e+00	5.769263e+00	3.299662e+00	1.058563e+00	3.198737e+00	3.576348e+00	2.629944e+00	2.498919e+00	5.061999e+00	1.562944e+00	2.015665e+00	2.580892e+00	8.172225e+00	-8.594171e-01	2.069475e+00	-4.931207e-01	2.832480e+00	1.741406e+00	1.854766e+00	2.930356e+00	9.996534e+00	1.531831e+00	1.714746e+00	9.422119e-01	7.203588e-01	5.106125e+00	8.893184e-01	3.921217e+00	8.826421e-01	1.234733e+00	1.698748e+00	2.517640e+00	1.326952e+00	1.918181e+00	1.435930e+00	1.412090e+00	4.254219e+00	2.611690e+00	4.251775e-01	1.557963e+00	1.935569e+00	2.520744e+00	2.536370e+00	1.896785e+00	1.061760e+00	3.498536e+00	1.292198e+00	3.302333e+00	1.011445e+00	9.259698e-01	6.285175e+00	2.226062e+00	3.248911e+00	1.312309e+00	-4.128649e-01	-4.761532e-01	1.070037e-01	8.348840e+00	9.469550e+00	7.480958e+00	2.180020e+00	6.454618e+00	2.710598e+00	1.394982e+00	1.771911e+00	9.916622e+00	3.595371e+00	1.009401e+00	2.166353e+00	4.175000e+00	1.011573e-01	6.083890e-01	5.148385e+00	4.977284e-01	2.944142e+00	2.615301e-02	-7.108593e-01	4.210726e-01	1.172664e+00	6.423232e-01	6.516291e+00	1.979436e+00	8.161010e+00	5.869201e-01	2.810091e+00	3.057255e+00	7.909380e-01	8.094837e-01	5.773714e+00	3.855159e+00	7.488183e+00	3.567728e+00	4.241429e+00	1.457873e+00	3.106279e+00	7.424063e-01	2.016328e+00	-4.757590e-01	3.122824e+00	-3.902826e-02	3.097168e+00	7.313720e+00	6.258330e+00	1.746785e+00	
SCALARS Energy float 1
LOOKUP_TABLE default