# vtk DataFile Version 3.0
vtk output
ASCII
DATASET UNSTRUCTURED_GRID
POINTS 394 float
-3.000000e+00	0.000000e+00	0.0	-5.000000e-02	4.574722e-17	0.0	4.600840e-01	1.033678e+00	0.0	5.601372e-01	9.658665e-01	0.0	5.000000e-02	-1.511277e-17	0.0	3.000000e+00	0.000000e+00	0.0	3.000000e+00	4.000000e+00	0.0	-3.000000e+00	4.000000e+00	0.0	-3.000000e+00	3.428571e+00	0.0	-3.000000e+00	2.857143e+00	0.0	-3.000000e+00	2.285714e+00	0.0	-3.000000e+00	1.714286e+00	0.0	-3.000000e+00	1.142857e+00	0.0	-3.000000e+00	5.714286e-01	0.0	-2.473871e+00	0.000000e+00	0.0	-2.029066e+00	0.000000e+00	0.0	-1.653013e+00	0.000000e+00	0.0	-1.335087e+00	0.000000e+00	0.0	-1.066302e+00	0.000000e+00	0.0	-8.390627e-01	0.000000e+00	0.0	-6.469477e-01	0.000000e+00	0.0	-4.845277e-01	0.000000e+00	0.0	-3.472127e-01	0.000000e+00	0.0	-2.311224e-01	0.000000e+00	0.0	-1.329760e-01	0.000000e+00	0.0	-4.330521e-02	8.382931e-02	0.0	-2.729476e-02	1.668451e-01	0.0	-2.614738e-03	2.488732e-01	0.0	2.923962e-02	3.299950e-01	0.0	6.692978e-02	4.102864e-01	0.0	1.092258e-01	4.898212e-01	0.0	1.550088e-01	5.686811e-01	0.0	2.032927e-01	6.469634e-01	0.0	2.532561e-01	7.247885e-01	0.0	3.042849e-01	8.022792e-01	0.0	3.559355e-01	8.795557e-01	0.0	4.079882e-01	9.566421e-01	0.0	5.101128e-01	9.998196e-01	0.0	5.079304e-01	8.890130e-01	0.0	4.559393e-01	8.122288e-01	0.0	4.042811e-01	7.356300e-01	0.0	3.532638e-01	6.592746e-01	0.0	3.033093e-01	5.832694e-01	0.0	2.550343e-01	5.077395e-01	0.0	2.092580e-01	4.328024e-01	0.0	1.669676e-01	3.585537e-01	0.0	1.292815e-01	2.850722e-01	0.0	9.743058e-02	2.124298e-01	0.0	7.275930e-02	1.406930e-01	0.0	5.666379e-02	6.990590e-02	0.0	1.329760e-01	0.000000e+00	0.0	2.311224e-01	0.000000e+00	0.0	3.472127e-01	0.000000e+00	0.0	4.845277e-01	0.000000e+00	0.0	6.469477e-01	0.000000e+00	0.0	8.390627e-01	0.000000e+00	0.0	1.066302e+00	0.000000e+00	0.0	1.335087e+00	0.000000e+00	0.0	1.653013e+00	0.000000e+00	0.0	2.029066e+00	0.000000e+00	0.0	2.473871e+00	0.000000e+00	0.0	3.000000e+00	5.714286e-01	0.0	3.000000e+00	1.142857e+00	0.0	3.000000e+00	1.714286e+00	0.0	3.000000e+00	2.285714e+00	0.0	3.000000e+00	2.857143e+00	0.0	3.000000e+00	3.428571e+00	0.0	2.400000e+00	4.000000e+00	0.0	1.800000e+00	4.000000e+00	0.0	1.200000e+00	4.000000e+00	0.0	6.000000e-01	4.000000e+00	0.0	0.000000e+00	4.000000e+00	0.0	-6.000000e-01	4.000000e+00	0.0	-1.200000e+00	4.000000e+00	0.0	-1.800000e+00	4.000000e+00	0.0	-2.400000e+00	4.000000e+00	0.0	2.793119e-01	9.420216e-01	0.0	5.292112e-01	8.338644e-01	0.0	-1.459461e+00	2.951888e-01	0.0	1.546649e+00	1.800196e-01	0.0	3.228798e-01	5.257893e-01	0.0	8.780682e-02	6.323499e-01	0.0	-7.222814e-01	2.080536e-01	0.0	7.882100e-01	1.131597e-01	0.0	-2.534660e+00	2.109153e+00	0.0	2.620325e+00	1.900880e+00	0.0	-8.148953e-01	3.527983e+00	0.0	1.062534e+00	3.444081e+00	0.0	2.068958e-01	3.100420e-01	0.0	-3.294725e-02	3.846639e-01	0.0	-3.986938e-01	1.428133e-01	0.0	4.404423e-01	8.223166e-02	0.0	4.247876e-01	6.756522e-01	0.0	1.787741e-01	7.899105e-01	0.0	1.590565e-01	1.713200e-01	0.0	-8.810017e-02	2.203882e-01	0.0	2.578156e+00	7.501255e-01	0.0	-2.474955e+00	8.276193e-01	0.0	-2.008236e+00	3.475801e+00	0.0	2.140780e+00	3.414044e+00	0.0	-1.765264e-01	8.845686e-02	0.0	1.941708e-01	6.211236e-02	0.0	2.269592e+00	3.418028e-01	0.0	-2.236163e+00	3.848204e-01	0.0	2.576009e+00	1.338004e+00	0.0	2.261163e+00	1.625982e+00	0.0	2.246878e+00	2.055460e+00	0.0	1.955850e+00	1.778365e+00	0.0	1.924285e+00	1.359225e+00	0.0	1.692274e+00	1.564410e+00	0.0	1.668861e+00	1.926801e+00	0.0	1.460434e+00	1.710382e+00	0.0	1.459876e+00	1.398330e+00	0.0	1.270864e+00	1.527373e+00	0.0	1.267335e+00	1.267986e+00	0.0	1.097275e+00	1.355179e+00	0.0	1.078280e+00	1.633332e+00	0.0	9.298891e-01	1.493857e+00	0.0	8.865057e-01	1.741467e+00	0.0	7.424717e-01	1.631114e+00	0.0	6.851640e-01	1.853303e+00	0.0	5.468056e-01	1.741315e+00	0.0	4.635298e-01	1.966498e+00	0.0	3.139042e-01	1.811129e+00	0.0	1.113128e+00	1.133697e+00	0.0	1.403707e+00	2.062769e+00	0.0	6.602639e-01	2.121353e+00	0.0	1.226921e+00	1.012082e+00	0.0	1.068484e+00	9.419446e-01	0.0	1.969108e-01	2.093470e+00	0.0	-1.676481e-02	1.953839e+00	0.0	1.036310e-01	1.680875e+00	0.0	-2.549549e-01	1.817779e+00	0.0	-1.765289e-01	1.584622e+00	0.0	-4.928575e-01	1.666589e+00	0.0	-5.223442e-01	1.899370e+00	0.0	-4.342252e-01	1.431160e+00	0.0	-7.651416e-01	1.503068e+00	0.0	9.721492e-01	1.033679e+00	0.0	9.280651e-01	8.606630e-01	0.0	1.014873e+00	7.632950e-01	0.0	-1.176676e-01	2.240040e+00	0.0	8.599358e-01	6.865418e-01	0.0	6.047998e-01	1.509830e+00	0.0	5.157967e-01	1.053254e+00	0.0	5.763672e-01	1.013265e+00	0.0	5.450557e-01	1.099726e+00	0.0	6.106996e-01	1.079995e+00	0.0	1.307154e-01	2.406691e+00	0.0	-7.288210e-01	1.241810e+00	0.0	-1.057877e+00	1.316090e+00	0.0	-4.109860e-01	1.171148e+00	0.0	-7.652589e-01	9.627685e-01	0.0	-4.677198e-01	9.428627e-01	0.0	-1.099044e+00	1.612730e+00	0.0	9.463755e-01	5.909239e-01	0.0	1.114393e+00	6.600374e-01	0.0	7.840943e-01	5.330536e-01	0.0	9.241424e-02	1.453340e+00	0.0	1.619683e+00	2.298737e+00	0.0	4.674663e-01	1.118604e+00	0.0	5.067943e-01	1.179493e+00	0.0	6.297060e-01	9.852937e-01	0.0	6.809583e-01	1.058108e+00	0.0	6.492410e-01	1.154490e+00	0.0	6.938464e-01	9.518595e-01	0.0	1.040793e+00	4.879014e-01	0.0	1.245370e+00	5.774281e-01	0.0	4.053158e-01	1.198361e+00	0.0	-2.086702e-01	1.057184e+00	0.0	-2.530972e-01	8.796580e-01	0.0	-4.719309e-01	7.384981e-01	0.0	-2.622437e-01	7.046216e-01	0.0	-1.408539e+00	1.399841e+00	0.0	7.422819e-01	1.142381e+00	0.0	-2.260011e-01	2.557924e+00	0.0	4.154330e-02	2.767547e+00	0.0	7.074853e-01	6.114701e-01	0.0	6.284992e-01	4.748419e-01	0.0	4.574402e-01	1.277623e+00	0.0	7.053191e-01	3.979558e-01	0.0	5.481505e-01	3.498214e-01	0.0	1.320020e+00	2.450806e+00	0.0	-1.461496e+00	1.730879e+00	0.0	1.548376e+00	2.693784e+00	0.0	6.221654e-01	2.756657e-01	0.0	1.145337e+00	3.310633e-01	0.0	-1.354405e+00	1.104506e+00	0.0	-4.617548e-01	5.545387e-01	0.0	-6.303086e-01	5.845754e-01	0.0	-3.103205e-01	5.136390e-01	0.0	-1.625097e-02	9.965538e-01	0.0	-7.753997e-03	1.144802e+00	0.0	-1.883473e+00	1.494980e+00	0.0	5.600172e-01	5.509629e-01	0.0	6.482924e-01	6.864937e-01	0.0	7.909501e-01	3.182332e-01	0.0	-1.522118e-01	6.100236e-01	0.0	1.015033e+00	1.919394e+00	0.0	1.378505e+00	4.933198e-01	0.0	1.449487e+00	6.989534e-01	0.0	1.602627e+00	5.651451e-01	0.0	1.689307e+00	8.346334e-01	0.0	1.907323e+00	7.071966e-01	0.0	6.882017e-01	1.253428e+00	0.0	7.977711e-01	1.238302e+00	0.0	-4.581001e-01	3.790489e-01	0.0	-1.629347e-01	1.393258e+00	0.0	-4.942561e-01	2.357939e+00	0.0	-6.287084e-01	2.705150e+00	0.0	-9.268047e-01	2.493834e+00	0.0	-1.053733e+00	2.843706e+00	0.0	-1.436502e+00	2.529288e+00	0.0	-1.811170e-01	4.544606e-01	0.0	3.315332e-01	1.293864e+00	0.0	3.792923e-01	1.394650e+00	0.0	2.843229e-01	1.204894e+00	0.0	4.427819e-01	2.564967e+00	0.0	3.520951e-01	3.029032e+00	0.0	7.325055e-01	2.763614e+00	0.0	-1.141546e+00	1.941136e+00	0.0	8.512157e-01	9.512050e-01	0.0	-1.140174e-01	3.182317e+00	0.0	-8.600195e-02	8.390595e-01	0.0	4.689603e-01	2.373368e-01	0.0	3.805919e-01	3.023006e-01	0.0	3.320588e-01	2.090737e-01	0.0	3.581137e-01	1.131133e+00	0.0	2.440112e-01	1.114504e+00	0.0	1.882212e+00	2.543999e+00	0.0	1.623726e+00	1.241530e+00	0.0	2.555939e+00	2.475876e+00	0.0	1.147048e+00	2.879523e+00	0.0	-1.524955e+00	2.092667e+00	0.0	4.637251e-01	4.182546e-01	0.0	3.343643e-01	3.812694e-01	0.0	1.252434e+00	1.603218e-01	0.0	6.979901e-02	9.046052e-01	0.0	-7.054847e-02	5.349478e-01	0.0	5.025313e-01	3.523976e+00	0.0	-3.142203e-01	3.541024e-01	0.0	-2.015451e-01	3.170994e-01	0.0	7.904984e-01	7.896368e-01	0.0	2.245619e+00	9.777288e-01	0.0	-1.559368e+00	3.053137e+00	0.0	-1.919832e+00	2.706886e+00	0.0	7.349851e-01	1.370574e+00	0.0	-2.439186e+00	1.352023e+00	0.0	9.463347e-01	1.286174e+00	0.0	-1.170923e+00	2.676845e-01	0.0	-1.252571e+00	5.544166e-01	0.0	-1.543332e+00	6.026929e-01	0.0	-9.766248e-01	5.336708e-01	0.0	-1.051380e+00	7.992592e-01	0.0	1.807929e+00	3.007862e+00	0.0	3.240462e-01	1.627286e+00	0.0	6.989052e-01	8.269566e-01	0.0	1.940954e-01	1.302746e+00	0.0	1.173773e-01	9.924647e-01	0.0	5.766802e-01	7.558877e-01	0.0	3.702832e-02	7.776859e-01	0.0	-5.392654e-01	2.115527e-01	0.0	5.965605e-01	9.120424e-02	0.0	1.014853e+00	1.468882e-01	0.0	-9.302031e-01	2.402637e-01	0.0	1.872586e+00	2.265288e-01	0.0	3.098006e-01	7.188842e-02	0.0	-2.725845e-01	1.144895e-01	0.0	-1.409730e+00	3.544364e+00	0.0	5.187319e-01	1.377039e+00	0.0	2.579786e+00	3.090164e+00	0.0	4.407307e-01	4.984959e-01	0.0	-1.812389e+00	3.374785e-01	0.0	-1.921451e+00	7.554272e-01	0.0	1.539202e+00	9.645622e-01	0.0	4.766633e-01	6.011619e-01	0.0	6.240721e-01	8.767974e-01	0.0	1.109024e+00	2.205045e+00	0.0	-2.479693e+00	2.554582e+00	0.0	1.556436e+00	3.496586e+00	0.0	-2.210401e-02	6.636647e-01	0.0	5.765496e-01	9.247110e-01	0.0	-2.410345e+00	3.090246e+00	0.0	2.275809e-01	8.650883e-01	0.0	9.120195e-01	2.379968e-01	0.0	7.850425e-01	2.406566e+00	0.0	-7.739627e-01	4.031965e-01	0.0	1.298440e-01	7.121611e-01	0.0	4.759278e-01	7.520000e-01	0.0	-2.081918e+00	1.123117e+00	0.0	3.722842e-01	6.039890e-01	0.0	3.756304e-02	5.616973e-01	0.0	2.818787e-01	4.518710e-01	0.0	1.309119e+00	8.098820e-01	0.0	2.408988e-01	3.780604e-01	0.0	-6.055538e-02	3.001890e-01	0.0	1.765877e-01	2.403908e-01	0.0	2.676875e-01	2.608370e-01	0.0	-3.479631e-03	4.709756e-01	0.0	2.502765e-01	1.345845e-01	0.0	-1.861540e-01	2.019569e-01	0.0	-6.825331e-01	7.542711e-01	0.0	1.466180e-01	1.196232e+00	0.0	2.202718e+00	6.496943e-01	0.0	8.655499e-01	1.115209e+00	0.0	1.959901e+00	1.035327e+00	0.0	4.636693e-01	1.072160e+00	0.0	8.704361e-01	4.485802e-01	0.0	-6.001956e-01	3.936105e-01	0.0	5.125586e-01	6.967366e-01	0.0	3.231400e-01	1.061632e+00	0.0	1.308942e-01	1.022678e-01	0.0	-1.032623e-01	1.312052e-01	0.0	-1.810848e+00	1.863990e+00	0.0	-1.968809e+00	2.236969e+00	0.0	-1.618294e-01	1.221659e+00	0.0	-7.333252e-01	3.093729e+00	0.0	5.635460e-01	1.249523e+00	0.0	1.409557e+00	1.114742e+00	0.0	-3.565680e-01	2.933173e+00	0.0	1.149604e+00	8.339340e-01	0.0	1.023694e+00	2.540694e+00	0.0	7.684856e-01	3.128274e+00	0.0	-1.052769e+00	1.041464e+00	0.0	2.202397e+00	2.819689e+00	0.0	1.439532e+00	3.104444e+00	0.0	-9.297641e-02	4.454
[...]
POINT_DATA 394

SCALARS Density float 1
LOOKUP_TABLE default
1.223704e+00	1.223924e+00	1.221374e+00	1.221871e+00	1.223323e+00	1.223561e+00	1.223280e+00	1.223579e+00	1.223564e+00	1.223575e+00	1.223616e+00	1.223641e+00	1.223704e+00	1.223710e+00	1.223720e+00	1.223711e+00	1.223740e+00	1.223759e+00	1.223800e+00	1.223825e+00	1.223842e+00	1.223913e+00	1.223878e+00	1.223997e+00	1.223869e+00	1.224050e+00	1.223877e+00	1.223881e+00	1.223861e+00	1.223811e+00	1.223781e+00	1.223724e+00	1.223710e+00	1.223618e+00	1.223703e+00	1.222905e+00	1.224833e+00	1.219525e+00	1.223763e+00	1.223298e+00	1.223339e+00	1.223332e+00	1.223276e+00	1.223243e+00	1.223225e+00	1.223218e+00	1.223230e+00	1.223257e+00	1.223183e+00	1.223379e+00	1.223178e+00	1.223270e+00	1.223204e+00	1.223149e+00	1.223110e+00	1.223077e+00	1.222999e+00	1.222989e+00	1.223000e+00	1.223149e+00	1.222682e+00	1.223299e+00	1.223044e+00	1.222874e+00	1.222819e+00	1.222950e+00	1.223097e+00	1.223108e+00	1.223249e+00	1.223283e+00	1.223364e+00	1.223411e+00	1.223488e+00	1.223538e+00	1.223569e+00	1.223569e+00	1.222879e+00	1.223690e+00	1.223749e+00	1.222949e+00	1.223278e+00	1.223694e+00	1.223829e+00	1.223045e+00	1.223612e+00	1.223304e+00	1.223506e+00	1.223305e+00	1.223230e+00	1.223833e+00	1.223903e+00	1.223148e+00	1.223417e+00	1.223479e+00	1.223298e+00	1.223900e+00	1.222968e+00	1.223703e+00	1.223588e+00	1.223129e+00	1.223955e+00	1.223251e+00	1.223091e+00	1.223695e+00	1.222964e+00	1.222852e+00	1.223095e+00	1.223088e+00	1.222980e+00	1.222983e+00	1.223003e+00	1.223259e+00	1.222751e+00	1.222822e+00	1.222903e+00	1.223012e+00	1.222820e+00	1.223130e+00	1.223112e+00	1.223250e+00	1.223154e+00	1.223221e+00	1.223430e+00	1.223309e+00	1.222805e+00	1.223012e+00	1.223243e+00	1.222696e+00	1.222877e+00	1.223397e+00	1.223487e+00	1.223489e+00	1.223423e+00	1.223563e+00	1.223635e+00	1.223526e+00	1.223605e+00	1.223614e+00	1.223026e+00	1.222923e+00	1.223049e+00	1.223491e+00	1.223092e+00	1.223167e+00	1.220991e+00	1.221496e+00	1.222690e+00	1.222668e+00	1.223406e+00	1.223684e+00	1.223668e+00	1.223718e+00	1.223734e+00	1.223747e+00	1.223631e+00	1.222996e+00	1.222805e+00	1.223100e+00	1.223502e+00	1.223189e+00	1.221594e+00	1.223101e+00	1.222536e+00	1.222628e+00	1.222445e+00	1.222906e+00	1.223033e+00	1.222931e+00	1.223115e+00	1.223683e+00	1.223735e+00	1.223761e+00	1.223734e+00	1.223664e+00	1.222519e+00	1.223458e+00	1.223449e+00	1.223246e+00	1.223158e+00	1.223046e+00	1.223123e+00	1.223183e+00	1.223285e+00	1.223631e+00	1.223173e+00	1.223158e+00	1.222927e+00	1.223707e+00	1.223803e+00	1.223824e+00	1.223905e+00	1.223593e+00	1.223544e+00	1.223671e+00	1.223226e+00	1.223305e+00	1.223061e+00	1.223790e+00	1.223366e+00	1.222784e+00	1.222987e+00	1.222748e+00	1.222733e+00	1.222891e+00	1.222741e+00	1.222741e+00	1.223859e+00	1.223490e+00	1.223521e+00	1.223502e+00	1.223562e+00	1.223548e+00	1.223602e+00	1.223821e+00	1.223098e+00	1.223465e+00	1.223420e+00	1.223327e+00	1.223366e+00	1.223390e+00	1.223606e+00	1.222760e+00	1.223405e+00	1.223751e+00	1.223158e+00	1.223184e+00	1.223217e+00	1.223599e+00	1.223077e+00	1.223097e+00	1.222746e+00	1.223288e+00	1.223298e+00	1.223624e+00	1.223265e+00	1.223139e+00	1.222811e+00	1.223562e+00	1.223907e+00	1.223405e+00	1.223879e+00	1.223905e+00	1.222992e+00	1.222744e+00	1.223543e+00	1.223580e+00	1.222580e+00	1.223651e+00	1.222814e+00	1.223787e+00	1.223805e+00	1.223681e+00	1.223780e+00	1.223705e+00	1.223264e+00	1.223455e+00	1.223065e+00	1.223390e+00	1.223647e+00	1.223352e+00	1.223761e+00	1.223931e+00	1.223129e+00	1.223030e+00	1.223823e+00	1.222812e+00	1.223279e+00	1.223964e+00	1.223547e+00	1.223017e+00	1.223165e+00	1.223311e+00	1.223748e+00	1.223697e+00	1.222880e+00	1.223263e+00	1.222919e+00	1.223215e+00	1.223616e+00	1.223242e+00	1.223707e+00	1.222994e+00	1.223602e+00	1.223984e+00	1.223028e+00	1.223345e+00	1.223783e+00	1.223744e+00	1.223302e+00	1.223668e+00	1.223344e+00	1.223740e+00	1.223261e+00	1.222860e+00	1.223245e+00	1.223883e+00	1.223235e+00	1.223163e+00	1.223765e+00	1.223137e+00	1.223931e+00	1.223733e+00	1.223533e+00	1.222746e+00	1.222841e+00	1.223153e+00	1.225598e+00	1.223075e+00	1.223862e+00	1.223219e+00	1.223388e+00	1.223204e+00	1.223914e+00	1.223618e+00	1.223624e+00	1.223600e+00	1.223502e+00	1.222644e+00	1.222937e+00	1.223465e+00	1.222808e+00	1.223234e+00	1.223283e+00	1.223738e+00	1.223301e+00	1.223245e+00	1.223862e+00	1.223539e+00	1.223503e+00	1.223073e+00	1.223542e+00	1.222730e+00	1.223148e+00	1.223849e+00	1.223113e+00	1.223362e+00	1.223168e+00	1.223359e+00	1.223711e+00	1.223078e+00	1.223277e+00	1.223612e+00	1.222839e+00	1.223716e+00	1.223105e+00	1.222254e+00	1.223726e+00	1.223686e+00	1.223126e+00	1.223354e+00	1.222293e+00	1.223583e+00	1.223081e+00	1.223579e+00	1.223769e+00	1.225573e+00	1.223866e+00	1.223707e+00	1.223163e+00	1.223168e+00	1.223559e+00	1.223413e+00	1.223727e+00	1.223036e+00	1.223890e+00	1.222939e+00	1.222860e+00	1.223563e+00	1.222904e+00	1.223559e+00	1.223278e+00	1.223776e+00	1.223713e+00	1.223675e+00	1.223171e+00	1.223190e+00	1.223938e+00	1.223364e+00	1.223480e+00	1.223130e+00	1.223475e+00	1.222657e+00	1.223369e+00	1.223154e+00	1.223214e+00	1.223456e+00	1.223726e+00	1.222887e+00	1.223333e+00	1.222623e+00	1.223266e+00	1.222853e+00	1.223588e+00	1.222719e+00	
SCALARS X-Momentum float 1
LOOKUP_TABLE default
8.912443e+00	4.420783e-01	6.977325e+00	-3.465373e-01	-5.802885e-01	-4.199722e+00	1.616420e+01	1.041188e+01	1.028677e+01	1.009330e+01	9.854187e+00	9.577591e+00	9.319620e+00	9.076507e+00	8.770526e+00	8.482586e+00	8.048749e+00	7.481446e+00	6.830786e+00	6.077647e+00	5.214002e+00	4.359055e+00	3.345129e+00	2.327598e+00	1.307522e+00	1.279523e-01	6.039197e-01	1.255714e+00	1.974459e+00	2.717405e+00	3.417732e+00	4.060536e+00	4.666256e+00	5.220410e+00	5.605896e+00	5.533949e+00	5.130498e+00	3.690428e+00	7.515709e-01	1.017017e+00	1.560693e+00	1.920498e+00	2.148982e+00	2.248387e+00	2.158677e+00	1.910595e+00	1.551575e+00	1.105018e+00	6.693184e-01	3.043556e-01	-1.930888e+00	-3.501239e+00	-4.807944e+00	-5.941328e+00	-6.838658e+00	-7.514678e+00	-7.988500e+00	-8.222380e+00	-7.769545e+00	-6.860316e+00	-5.878525e+00	-3.112655e-01	5.174652e+00	1.046028e+01	1.420521e+01	1.599058e+01	1.637692e+01	1.547313e+01	1.461566e+01	1.368372e+01	1.290939e+01	1.226784e+01	1.170986e+01	1.121491e+01	1.080700e+01	1.053633e+01	5.828302e+00	1.823433e+00	7.946692e+00	-5.549209e+00	2.143448e+00	4.941620e+00	5.944849e+00	-5.275901e+00	9.794665e+00	1.256247e+01	1.137840e+01	1.380383e+01	1.233977e+00	3.030942e+00	4.025001e+00	-3.965767e+00	2.168132e+00	5.871430e+00	1.315679e-01	1.785977e+00	1.364926e+00	9.083963e+00	1.053577e+01	1.545543e+01	1.890290e+00	-1.829614e+00	-2.863279e+00	8.784108e+00	7.534202e+00	1.087116e+01	1.401010e+01	1.281717e+01	8.834042e+00	1.151345e+01	1.428964e+01	1.333995e+01	1.012506e+01	1.203682e+01	8.476289e+00	1.025094e+01	1.365239e+01	1.274101e+01	1.459408e+01	1.429644e+01	1.462903e+01	1.425658e+01	1.381906e+01	1.310354e+01	6.550015e+00	1.507841e+01	1.426477e+01	4.901254e+00	3.916778e+00	1.269598e+01	1.186823e+01	1.188819e+01	1.099874e+01	1.064303e+01	1.027913e+01	1.059689e+01	9.743811e+00	9.646327e+00	4.696356e+00	2.859168e+00	2.178652e+00	1.179454e+01	1.887743e+00	1.397339e+01	5.485647e+00	2.087381e+00	6.506570e+00	4.407294e+00	1.247183e+01	9.038477e+00	9.172881e+00	8.928786e+00	8.216407e+00	7.938012e+00	9.656399e+00	8.198431e-01	1.071455e+00	9.229541e-01	1.124738e+01	1.541677e+01	9.832399e+00	1.071403e+01	1.872442e+00	3.809275e+00	7.310565e+00	2.422014e+00	-7.234121e-01	-3.055642e-01	1.190414e+01	8.503553e+00	7.501241e+00	7.022420e+00	6.389283e+00	9.305697e+00	6.246616e+00	1.173884e+01	1.229777e+01	1.973689e+00	1.057416e+00	1.279930e+01	-2.825488e-01	-9.533994e-02	1.525614e+01	9.700307e+00	1.528774e+01	-1.606947e+00	-2.915944e+00	8.862372e+00	6.129109e+00	6.704063e+00	5.382640e+00	7.970626e+00	9.074300e+00	9.417904e+00	2.032521e+00	2.555840e+00	-1.818402e+00	5.448697e+00	1.492885e+01	-1.530411e+00	9.394051e-01	-8.219102e-01	2.401296e+00	8.055150e-01	1.011545e+01	9.070560e+00	5.295462e+00	1.001307e+01	1.116761e+01	1.124976e+01	1.076377e+01	1.087330e+01	1.039475e+01	4.413694e+00	1.236911e+01	1.318159e+01	1.109667e+01	1.319040e+01	1.283298e+01	1.379884e+01	1.006872e+01	3.297023e+00	1.210324e+01	6.960963e+00	-1.269321e+00	2.108632e-01	-7.757927e-01	1.059980e+01	9.346502e+00	1.554896e+01	7.815437e+00	1.529940e+01	1.447713e+01	1.003457e+01	1.199859e+00	1.314238e+00	-5.720212e+00	7.123164e+00	4.634720e+00	1.291638e+01	4.479662e+00	3.519114e+00	2.536535e+00	3.781807e+00	1.059742e+01	1.026324e+01	1.218726e+01	9.368473e+00	9.470609e+00	7.399797e+00	7.920447e+00	8.364443e+00	7.388592e+00	8.040958e+00	1.527833e+01	1.310151e+01	2.568554e+00	1.129306e+01	7.704544e+00	2.507542e+00	6.223430e+00	5.077730e+00	-4.746029e+00	-5.505126e+00	6.740025e+00	-4.659500e+00	-2.973734e+00	2.942462e+00	1.090004e+01	1.358362e+01	1.607335e+01	1.939661e+00	8.429188e+00	8.806845e+00	4.214537e+00	2.294541e+00	2.146286e+00	1.510393e+01	1.002841e+01	1.458558e+01	5.429516e+00	1.132703e+00	1.027269e+01	6.170554e+00	-3.498079e+00	1.425733e+01	6.642946e+00	5.448431e+00	1.976804e+00	9.142040e+00	2.196883e+00	4.432710e+00	1.944736e+00	2.570113e+00	1.641856e+00	2.354235e+00	7.361089e-01	3.683389e-01	3.744515e+00	-1.215794e+00	2.531291e+00	7.423269e+00	9.993267e+00	1.791291e-01	5.885543e+00	4.803233e+00	8.488079e+00	-4.779517e-01	5.954570e+00	2.437048e+00	8.506306e+00	-4.213413e-01	1.262468e+00	9.752603e+00	9.971363e+00	9.318638e+00	1.131461e+01	1.135047e+01	6.290247e+00	1.170588e+01	2.767605e+00	1.471168e+01	1.351568e+01	8.610890e+00	1.571832e+01	1.471250e+01	3.898458e+00	1.110580e+01	1.191041e+01	1.493698e+01	1.057992e+01	3.597251e+00	1.446630e+01	3.647543e+00	-2.896084e+00	1.483947e+01	-2.233947e+00	1.336334e+01	9.033379e+00	-3.322091e+00	1.369660e+01	1.011878e+01	2.669910e+00	8.404275e+00	-2.702152e+00	-2.819108e+00	8.943627e+00	6.862751e+00	7.343439e+00	1.225286e+01	8.426738e+00	1.011669e+01	1.140044e+01	1.036678e+01	4.563104e+00	6.534224e+00	3.345808e+00	8.697234e+00	-1.492966e-01	1.299222e+01	1.038757e+01	1.237038e+01	6.157152e+00	1.596510e+01	2.721583e+00	-3.458318e+00	-1.838333e+00	1.040039e+01	-1.929601e+00	1.099117e+01	1.260605e+01	7.146323e+00	8.671189e+00	9.637218e+00	9.894116e-01	1.806303e+00	9.008900e-01	-7.966638e-01	1.395244e+01	1.482626e+01	6.464267e+00	1.325644e+01	9.515776e+00	1.543150e+01	2.143401e+00	1.167227e+01	7.637327e+00	7.490773e+00	2.502402e+00	5.455218e+00	1.373730e+01	9.420776e+00	5.578490e+00	7.242544e+00	
SCALARS Y-Momentum float 1
LOOKUP_TABLE default
-1.834855e-02	4.362880e-01	5.214066e+00	-9.654492e-01	5.473318e-01	2.370167e-01	6.066249e-02	-1.207291e-02	1.454689e-02	4.105489e-02	5.629537e-02	7.256991e-02	6.033347e-02	1.037943e-02	-3.492378e-03	-1.510072e-04	6.950919e-03	6.182256e-03	1.223630e-02	1.502944e-02	2.327061e-03	3.038606e-02	1.365799e-02	8.543814e-03	-3.495719e-02	1.420086e+00	2.531261e+00	3.540923e+00	4.521300e+00	5.391539e+00	6.148724e+00	6.820919e+00	7.456839e+00	8.124380e+00	8.592787e+00	8.672542e+00	8.720282e+00	-2.759816e+00	9.327934e-01	1.695464e+00	2.424520e+00	3.014150e+00	3.405651e+00	3.637721e+00	3.678081e+00	3.540884e+00	3.251595e+00	2.807329e+00	2.247715e+00	1.474161e+00	-3.804485e-04	3.787586e-02	2.500814e-02	8.017350e-03	1.260055e-03	5.494267e-03	9.857916e-03	4.137895e-03	-3.963031e-02	-6.463894e-02	-1.025666e-01	-5.390376e-01	-5.031978e-01	4.759746e-03	6.929670e-01	8.883814e-01	5.111733e-01	1.035076e-02	-1.075803e-03	-1.080395e-02	-4.053528e-02	-2.663895e-02	-5.695283e-03	-5.615887e-03	1.682070e-03	-3.369689e-03	8.930190e+00	2.171381e+00	4.970501e-01	-2.054845e-01	3.248498e+00	6.547360e+00	9.080223e-01	4.240639e-01	3.723007e-01	3.410969e-01	4.197478e-01	8.263104e-01	3.012274e+00	4.479714e+00	1.041926e+00	6.071581e-01	2.807885e+00	7.720971e+00	2.181797e+00	2.777057e+00	-8.754582e-01	3.152815e-01	2.419439e-01	8.278377e-01	9.259245e-01	8.377335e-01	-6.422428e-01	2.416310e-01	-4.936065e-01	4.034764e-02	8.979301e-01	8.174841e-01	6.225026e-03	7.772359e-01	1.634161e+00	1.636940e+00	9.147128e-01	1.705111e+00	1.208992e+00	1.835307e+00	2.697401e+00	2.958660e+00	3.768898e+00	4.276273e+00	4.403762e+00	5.100032e+00	4.284477e+00	4.918464e+00	1.467333e+00	2.345020e+00	3.705239e+00	1.283451e+00	1.888983e+00	3.555363e+00	3.636268e+00	5.010086e+00	3.440463e+00	4.237101e+00	3.029714e+00	2.571419e+00	3.525243e+00	2.507070e+00	1.993108e+00	2.637180e+00	2.255159e+00	2.639271e+00	2.800337e+00	4.981813e+00	1.681794e-02	2.512158e-01	1.182547e+00	9.939577e-01	2.521323e+00	2.710962e+00	1.987927e+00	3.798195e+00	2.574780e+00	3.548565e+00	1.838282e+00	2.154030e+00	1.699717e+00	2.410238e+00	6.118715e+00	2.013108e+00	5.155222e+00	4.443180e+00	1.846904e+00	1.892999e+00	1.924979e+00	2.858484e+00	1.439300e+00	9.214250e-01	7.834236e+00	4.906551e+00	4.569123e+00	3.337103e+00	4.212118e+00	1.435702e+00	1.905969e+00	1.853908e+00	1.652585e+00	2.992469e+00	2.519783e+00	6.799122e+00	1.939054e+00	2.086327e+00	2.356202e+00	1.321882e+00	1.872807e+00	1.455347e+00	6.193918e-01	1.447710e+00	2.946599e+00	2.406890e+00	3.410880e+00	6.355886e+00	6.542098e+00	9.223060e-01	2.950054e+00	3.296904e+00	1.338422e+00	4.548522e+00	3.311590e+00	3.108004e-01	3.259728e-01	-9.085686e-02	-2.040239e-01	-6.848389e-01	2.653432e+00	2.129035e+00	2.294047e+00	4.825607e+00	1.928344e+00	1.367523e+00	1.411623e+00	9.842625e-01	9.895252e-01	3.753516e+00	8.347778e+00	7.360264e+00	9.282161e+00	2.359299e+00	1.308959e+00	2.042471e+00	1.630988e+00	2.672685e+00	9.383043e-01	5.585014e+00	1.660782e+00	2.369782e+00	1.930680e+00	9.283799e+00	9.784834e+00	1.701651e+00	3.241095e-01	1.084162e+00	1.799070e+00	1.156416e+00	2.685593e+00	2.898484e+00	1.002742e-01	7.048122e+00	4.899439e+00	6.177084e-01	2.639323e+00	2.861302e+00	3.285412e+00	-9.380948e-01	6.018337e-01	5.798190e-01	3.348552e+00	4.410801e-01	1.893405e+00	6.255117e-01	1.086058e+00	8.322061e-01	1.415914e+00	1.716619e+00	1.429302e+00	5.981409e+00	3.440963e+00	7.997160e+00	8.064510e+00	2.968844e+00	6.501717e+00	1.149489e+00	4.911862e-01	3.166072e-01	7.657474e-01	-4.074049e-01	7.762081e-01	1.036223e+00	3.178839e-01	5.926343e+00	1.035429e+00	2.972287e+00	3.810972e-01	6.365252e-01	3.415684e-01	2.976833e+00	2.862364e+00	2.951843e+00	3.457791e-01	7.766561e-01	5.695203e+00	1.676338e+00	2.568635e-01	8.521537e+00	8.296310e-01	2.937921e+00	1.576340e+00	7.119021e+00	2.419592e+00	6.708914e-01	3.069740e+00	5.888503e+00	3.289068e+00	1.055366e+00	3.212521e+00	3.682326e+00	2.680790e+00	2.510691e+00	5.180637e+00	1.580900e+00	2.075854e+00	2.618352e+00	8.284174e+00	-9.131784e-01	1.952082e+00	-5.699857e-01	2.813840e+00	1.755223e+00	1.898393e+00	2.859601e+00	1.029399e+01	1.581774e+00	1.769069e+00	9.464057e-01	7.236530e-01	5.121967e+00	8.814237e-01	3.959640e+00	8.070873e-01	1.215237e+00	1.708713e+00	2.510455e+00	1.298478e+00	1.936790e+00	1.420940e+00	1.392218e+00	4.353421e+00	2.587222e+00	4.145907e-01	1.526213e+00	1.926894e+00	2.441709e+00	2.506732e+00	1.950378e+00	1.036456e+00	3.522481e+00	1.278709e+00	3.295317e+00	1.016116e+00	9.060239e-01	6.414316e+00	2.223538e+00	3.237936e+00	1.325180e+00	-4.217744e-01	-5.009682e-01	1.059806e-01	8.509216e+00	9.687512e+00	7.608235e+00	2.119316e+00	6.492305e+00	2.633743e+00	1.396341e+00	1.820834e+00	1.022473e+01	3.688398e+00	1.015876e+00	2.191032e+00	4.222365e+00	1.016142e-01	5.894719e-01	5.226217e+00	4.929681e-01	3.028854e+00	4.115336e-02	-7.407424e-01	4.231415e-01	1.187339e+00	6.403930e-01	6.604653e+00	2.015560e+00	8.269685e+00	5.886515e-01	2.809263e+00	3.018057e+00	8.151692e-01	8.412730e-01	5.878294e+00	3.889786e+00	7.616283e+00	3.561954e+00	4.246248e+00	1.436342e+00	3.051636e+00	7.292806e-01	2.047020e+00	-5.661643e-01	3.068905e+00	-1.126887e-01	3.089464e+00	7.487384e+00	6.362935e+00	1.613313e+00	
SCALARS Energy float 1
LOOKUP_TABLE default