# vtk DataFile Version 3.0
vtk output
ASCII
DATASET UNSTRUCTURED_GRID
POINTS 394 float
-3.000000e+00	0.000000e+00	0.0	-5.000000e-02	2.429118e-17	0.0	4.039217e-02	1.005419e+00	0.0	1.404323e-01	9.945419e-01	0.0	5.000000e-02	-6.446126e-18	0.0	3.000000e+00	0.000000e+00	0.0	3.000000e+00	4.000000e+00	0.0	-3.000000e+00	4.000000e+00	0.0	-3.000000e+00	3.428571e+00	0.0	-3.000000e+00	2.857143e+00	0.0	-3.000000e+00	2.285714e+00	0.0	-3.000000e+00	1.714286e+00	0.0	-3.000000e+00	1.142857e+00	0.0	-3.000000e+00	5.714286e-01	0.0	-2.473871e+00	0.000000e+00	0.0	-2.029066e+00	0.000000e+00	0.0	-1.653013e+00	0.000000e+00	0.0	-1.335087e+00	0.000000e+00	0.0	-1.066302e+00	0.000000e+00	0.0	-8.390627e-01	0.000000e+00	0.0	-6.469477e-01	0.000000e+00	0.0	-4.845277e-01	0.000000e+00	0.0	-3.472127e-01	0.000000e+00	0.0	-2.311224e-01	0.000000e+00	0.0	-1.329760e-01	0.000000e+00	0.0	-4.838617e-02	7.847227e-02	0.0	-4.482700e-02	1.566231e-01	0.0	-3.962595e-02	2.344628e-01	0.0	-3.322313e-02	3.120493e-01	0.0	-2.596718e-02	3.894316e-01	0.0	-1.813876e-02	4.666527e-01	0.0	-9.957707e-03	5.437514e-01	0.0	-1.588526e-03	6.207611e-01	0.0	6.848019e-03	6.977130e-01	0.0	1.528292e-02	7.746351e-01	0.0	2.366689e-02	8.515591e-01	0.0	3.208767e-02	9.284873e-01	0.0	9.041229e-02	1.000019e+00	0.0	1.320232e-01	9.176078e-01	0.0	1.236578e-01	8.406524e-01	0.0	1.152594e-01	7.637014e-01	0.0	1.068313e-01	6.867609e-01	0.0	9.839717e-02	6.098599e-01	0.0	9.003155e-02	5.330263e-01	0.0	8.185268e-02	4.562898e-01	0.0	7.402692e-02	3.796820e-01	0.0	6.677299e-02	3.032398e-01	0.0	6.037194e-02	2.270049e-01	0.0	5.517589e-02	1.510234e-01	0.0	5.159404e-02	7.534388e-02	0.0	1.329760e-01	0.000000e+00	0.0	2.311224e-01	0.000000e+00	0.0	3.472127e-01	0.000000e+00	0.0	4.845277e-01	0.000000e+00	0.0	6.469477e-01	0.000000e+00	0.0	8.390627e-01	0.000000e+00	0.0	1.066302e+00	0.000000e+00	0.0	1.335087e+00	0.000000e+00	0.0	1.653013e+00	0.000000e+00	0.0	2.029066e+00	0.000000e+00	0.0	2.473871e+00	0.000000e+00	0.0	3.000000e+00	5.714286e-01	0.0	3.000000e+00	1.142857e+00	0.0	3.000000e+00	1.714286e+00	0.0	3.000000e+00	2.285714e+00	0.0	3.000000e+00	2.857143e+00	0.0	3.000000e+00	3.428571e+00	0.0	2.400000e+00	4.000000e+00	0.0	1.800000e+00	4.000000e+00	0.0	1.200000e+00	4.000000e+00	0.0	6.000000e-01	4.000000e+00	0.0	0.000000e+00	4.000000e+00	0.0	-6.000000e-01	4.000000e+00	0.0	-1.200000e+00	4.000000e+00	0.0	-1.800000e+00	4.000000e+00	0.0	-2.400000e+00	4.000000e+00	0.0	-5.027243e-02	8.965775e-01	0.0	1.818181e-01	8.797564e-01	0.0	-1.479107e+00	2.569516e-01	0.0	1.505847e+00	2.204656e-01	0.0	1.449718e-01	5.661345e-01	0.0	-8.642854e-02	5.855132e-01	0.0	-7.423073e-01	1.687390e-01	0.0	7.519678e-01	1.515798e-01	0.0	-2.579141e+00	2.081124e+00	0.0	2.530714e+00	1.939014e+00	0.0	-9.128645e-01	3.510758e+00	0.0	9.317337e-01	3.456924e+00	0.0	1.293883e-01	3.399965e-01	0.0	-1.054059e-01	3.518353e-01	0.0	-4.118132e-01	1.151345e-01	0.0	4.190251e-01	1.052050e-01	0.0	1.656573e-01	7.203028e-01	0.0	-7.231528e-02	7.401630e-01	0.0	1.265226e-01	1.916045e-01	0.0	-1.170344e-01	1.986295e-01	0.0	2.529549e+00	8.068703e-01	0.0	-2.499429e+00	7.929439e-01	0.0	-2.051229e+00	3.454807e+00	0.0	2.074049e+00	3.435208e+00	0.0	-1.828076e-01	7.660965e-02	0.0	1.851526e-01	7.290898e-02	0.0	2.228665e+00	3.904745e-01	0.0	-2.248308e+00	3.605185e-01	0.0	2.479286e+00	1.396361e+00	0.0	2.108256e+00	1.700145e+00	0.0	2.088116e+00	2.107420e+00	0.0	1.750220e+00	1.852193e+00	0.0	1.732686e+00	1.458508e+00	0.0	1.444183e+00	1.654627e+00	0.0	1.419807e+00	1.995751e+00	0.0	1.170153e+00	1.787819e+00	0.0	1.179042e+00	1.493675e+00	0.0	9.506998e-01	1.605717e+00	0.0	9.568804e-01	1.363106e+00	0.0	7.438570e-01	1.434613e+00	0.0	7.251303e-01	1.688666e+00	0.0	5.439301e-01	1.542515e+00	0.0	5.183823e-01	1.772789e+00	0.0	3.506608e-01	1.654949e+00	0.0	3.129077e-01	1.867026e+00	0.0	1.553929e-01	1.736226e+00	0.0	9.806854e-02	1.960448e+00	0.0	-7.160612e-02	1.784779e+00	0.0	7.836130e-01	1.225957e+00	0.0	1.124622e+00	2.121557e+00	0.0	3.163792e-01	2.131909e+00	0.0	9.415945e-01	1.120154e+00	0.0	7.714052e-01	1.039529e+00	0.0	-1.407349e-01	2.068078e+00	0.0	-3.466105e-01	1.900410e+00	0.0	-2.742170e-01	1.621937e+00	0.0	-5.563491e-01	1.733926e+00	0.0	-4.991264e-01	1.484915e+00	0.0	-7.619617e-01	1.567846e+00	0.0	-7.884121e-01	1.809650e+00	0.0	-7.083057e-01	1.310724e+00	0.0	-9.817733e-01	1.395675e+00	0.0	6.349946e-01	1.115534e+00	0.0	6.231330e-01	9.494683e-01	0.0	7.583005e-01	8.617627e-01	0.0	-4.140209e-01	2.189035e+00	0.0	6.084976e-01	7.797489e-01	0.0	1.959066e-01	1.513788e+00	0.0	9.735696e-02	1.047738e+00	0.0	1.575573e-01	1.036459e+00	0.0	1.252143e-01	1.100505e+00	0.0	1.953897e-01	1.099602e+00	0.0	-1.708294e-01	2.376181e+00	0.0	-9.217104e-01	1.129344e+00	0.0	-1.212086e+00	1.210497e+00	0.0	-6.592489e-01	1.049221e+00	0.0	-8.944718e-01	8.482525e-01	0.0	-6.427569e-01	8.207506e-01	0.0	-1.274929e+00	1.512631e+00	0.0	7.422643e-01	6.900027e-01	0.0	9.016688e-01	7.668402e-01	0.0	5.893961e-01	6.241896e-01	0.0	-2.853866e-01	1.374909e+00	0.0	1.387109e+00	2.351338e+00	0.0	4.874963e-02	1.094014e+00	0.0	8.648500e-02	1.168153e+00	0.0	2.274353e-01	1.022290e+00	0.0	2.775872e-01	1.095494e+00	0.0	2.332039e-01	1.176592e+00	0.0	3.148683e-01	1.004370e+00	0.0	8.792812e-01	5.909547e-01	0.0	1.073620e+00	6.797711e-01	0.0	-4.220420e-03	1.163284e+00	0.0	-4.676823e-01	9.413144e-01	0.0	-4.490843e-01	7.623528e-01	0.0	-5.959447e-01	6.351998e-01	0.0	-4.038493e-01	5.984564e-01	0.0	-1.534065e+00	1.302101e+00	0.0	3.418536e-01	1.182956e+00	0.0	-4.790094e-01	2.512170e+00	0.0	-2.021429e-01	2.733323e+00	0.0	4.709705e-01	7.023699e-01	0.0	4.518257e-01	5.565730e-01	0.0	4.184334e-02	1.254209e+00	0.0	5.644453e-01	4.773629e-01	0.0	4.297926e-01	4.174168e-01	0.0	1.062025e+00	2.489089e+00	0.0	-1.602941e+00	1.644251e+00	0.0	1.343432e+00	2.734540e+00	0.0	5.316490e-01	3.388027e-01	0.0	1.044711e+00	4.166271e-01	0.0	-1.454953e+00	1.008182e+00	0.0	-5.435183e-01	4.709224e-01	0.0	-7.100761e-01	4.981080e-01	0.0	-3.931788e-01	4.346967e-01	0.0	-2.998900e-01	8.898304e-01	0.0	-3.287559e-01	1.044745e+00	0.0	-1.974820e+00	1.420391e+00	0.0	3.423519e-01	6.359022e-01	0.0	3.712817e-01	7.721673e-01	0.0	6.809917e-01	3.932856e-01	0.0	-2.816222e-01	5.241241e-01	0.0	6.678603e-01	1.951957e+00	0.0	1.244311e+00	5.836843e-01	0.0	1.276327e+00	8.047297e-01	0.0	1.476101e+00	6.594163e-01	0.0	1.517359e+00	9.367847e-01	0.0	1.790498e+00	7.964302e-01	0.0	2.793124e-01	1.279175e+00	0.0	4.017948e-01	1.280953e+00	0.0	-5.030281e-01	3.174801e-01	0.0	-4.775604e-01	1.280686e+00	0.0	-7.432074e-01	2.294967e+00	0.0	-8.294087e-01	2.657850e+00	0.0	-1.118757e+00	2.431984e+00	0.0	-1.210192e+00	2.804355e+00	0.0	-1.581158e+00	2.467801e+00	0.0	-2.569217e-01	3.883076e-01	0.0	-6.934406e-02	1.247084e+00	0.0	-2.713397e-02	1.357625e+00	0.0	-1.049143e-01	1.147502e+00	0.0	1.423413e-01	2.561769e+00	0.0	1.417989e-01	3.017605e+00	0.0	4.731081e-01	2.775346e+00	0.0	-1.323418e+00	1.853498e+00	0.0	5.011375e-01	1.028404e+00	0.0	-2.785506e-01	3.150305e+00	0.0	-2.988042e-01	7.326673e-01	0.0	4.010784e-01	2.876210e-01	0.0	2.922765e-01	3.616687e-01	0.0	2.792765e-01	2.512089e-01	0.0	-3.936061e-02	1.085689e+00	0.0	-1.242798e-01	1.050193e+00	0.0	1.701620e+00	2.592144e+00	0.0	1.388211e+00	1.347069e+00	0.0	2.458984e+00	2.502993e+00	0.0	9.264516e-01	2.905024e+00	0.0	-1.666725e+00	2.013751e+00	0.0	3.142485e-01	4.951334e-01	0.0	2.163572e-01	4.359583e-01	0.0	1.210459e+00	2.013287e-01	0.0	-2.017678e-01	8.163168e-01	0.0	-1.834503e-01	4.723630e-01	0.0	3.811576e-01	3.515429e+00	0.0	-3.595779e-01	2.995269e-01	0.0	-2.437415e-01	2.712874e-01	0.0	4.790166e-01	8.729820e-01	0.0	2.126683e+00	1.064559e+00	0.0	-1.656130e+00	3.022375e+00	0.0	-2.007959e+00	2.672299e+00	0.0	3.316117e-01	1.399246e+00	0.0	-2.483424e+00	1.304522e+00	0.0	5.730073e-01	1.348995e+00	0.0	-1.190809e+00	2.277234e-01	0.0	-1.302764e+00	4.834394e-01	0.0	-1.588761e+00	5.355195e-01	0.0	-1.032576e+00	4.494076e-01	0.0	-1.135392e+00	7.000524e-01	0.0	1.656749e+00	3.039588e+00	0.0	-7.485049e-02	1.592653e+00	0.0	3.635843e-01	8.949984e-01	0.0	-1.886271e-01	1.233479e+00	0.0	-1.905701e-01	9.080513e-01	0.0	2.679665e-01	8.244771e-01	0.0	-1.783125e-01	6.972696e-01	0.0	-5.574703e-01	1.682442e-01	0.0	5.703330e-01	1.198485e-01	0.0	9.701571e-01	1.953359e-01	0.0	-9.489763e-01	1.976101e-01	0.0	1.832360e+00	2.707515e-01	0.0	2.943850e-01	8.782157e-02	0.0	-2.821683e-01	9.556242e-02	0.0	-1.476425e+00	3.527736e+00	0.0	1.043307e-01	1.366534e+00	0.0	2.527581e+00	3.102743e+00	0.0	2.581058e-01	5.688585e-01	0.0	-1.828432e+00	3.024426e-01	0.0	-1.966566e+00	6.898293e-01	0.0	1.328156e+00	1.069505e+00	0.0	2.452536e-01	6.665997e-01	0.0	2.557899e-01	9.297847e-01	0.0	7.962288e-01	2.235337e+00	0.0	-2.522914e+00	2.528916e+00	0.0	1.453942e+00	3.512235e+00	0.0	-1.893535e-01	5.883308e-01	0.0	1.788074e-01	9.632715e-01	0.0	-2.452512e+00	3.078235e+00	0.0	-6.146554e-02	8.173231e-01	0.0	8.322398e-01	3.072312e-01	0.0	4.715351e-01	2.418160e+00	0.0	-8.178841e-01	3.349613e-01	0.0	-7.993792e-02	6.629151e-01	0.0	1.761335e-01	7.978888e-01	0.0	-2.140692e+00	1.056928e+00	0.0	1.537969e-01	6.461342e-01	0.0	-1.019511e-01	5.144553e-01	0.0	1.408542e-01	4.906178e-01	0.0	1.083901e+00	9.233853e-01	0.0	1.356625e-01	4.126140e-01	0.0	-1.085413e-01	2.737575e-01	0.0	1.245651e-01	2.649273e-01	0.0	2.014471e-01	3.004157e-01	0.0	-1.056045e-01	4.310376e-01	0.0	2.211112e-01	1.603399e-01	0.0	-2.089322e-01	1.733605e-01	0.0	-7.839547e-01	6.525445e-01	0.0	-2.142323e-01	1.115746e+00	0.0	2.124969e+00	7.263891e-01	0.0	4.920269e-01	1.178818e+00	0.0	1.796485e+00	1.134763e+00	0.0	4.891380e-02	1.047347e+00	0.0	7.153712e-01	5.382981e-01	0.0	-6.460491e-01	3.269574e-01	0.0	2.349830e-01	7.576187e-01	0.0	-5.300787e-02	1.015557e+00	0.0	1.174995e-01	1.134687e-01	0.0	-1.150084e-01	1.187821e-01	0.0	-1.923047e+00	1.791358e+00	0.0	-2.065012e+00	2.177209e+00	0.0	-4.613747e-01	1.112560e+00	0.0	-8.841124e-01	3.064142e+00	0.0	1.423559e-01	1.248194e+00	0.0	1.146989e+00	1.219261e+00	0.0	-5.460902e-01	2.896882e+00	0.0	8.917610e-01	9.417480e-01	0.0	7.465971e-01	2.564450e+00	0.0	5.721844e-01	3.134023e+00	0.0	-1.168964e+00	9.370531e-01	0.0	2.077864e+00	2.857642e+00	0.0	1.276499e+00	3.1338
[...]
POINT_DATA 394

SCALARS Density float 1
LOOKUP_TABLE default
1.223748e+00	1.223981e+00	1.222165e+00	1.221815e+00	1.223225e+00	1.223574e+00	1.223266e+00	1.223603e+00	1.223585e+00	1.223600e+00	1.223648e+00	1.223680e+00	1.223756e+00	1.223762e+00	1.223775e+00	1.223759e+00	1.223794e+00	1.223819e+00	1.223860e+00	1.223884e+00	1.223909e+00	1.223954e+00	1.223938e+00	1.224005e+00	1.223938e+00	1.224020e+00	1.223943e+00	1.223961e+00	1.223961e+00	1.223944e+00	1.223932e+00	1.223891e+00	1.223892e+00	1.223794e+00	1.223899e+00	1.223026e+00	1.224978e+00	1.220250e+00	1.223572e+00	1.223101e+00	1.223133e+00	1.223082e+00	1.223058e+00	1.223046e+00	1.223058e+00	1.223066e+00	1.223094e+00	1.223133e+00	1.223068e+00	1.223324e+00	1.223086e+00	1.223215e+00	1.223128e+00	1.223060e+00	1.223016e+00	1.222986e+00	1.222893e+00	1.222949e+00	1.222959e+00	1.223107e+00	1.222646e+00	1.223309e+00	1.223013e+00	1.222859e+00	1.222799e+00	1.222940e+00	1.223101e+00	1.223109e+00	1.223227e+00	1.223259e+00	1.223343e+00	1.223405e+00	1.223494e+00	1.223552e+00	1.223588e+00	1.223589e+00	1.223363e+00	1.223329e+00	1.223805e+00	1.222875e+00	1.223079e+00	1.223847e+00	1.223870e+00	1.222955e+00	1.223647e+00	1.223234e+00	1.223522e+00	1.223307e+00	1.223089e+00	1.223927e+00	1.223938e+00	1.223078e+00	1.223169e+00	1.223677e+00	1.223192e+00	1.223965e+00	1.222836e+00	1.223751e+00	1.223612e+00	1.223127e+00	1.223970e+00	1.223183e+00	1.223040e+00	1.223744e+00	1.222837e+00	1.222838e+00	1.223078e+00	1.223030e+00	1.222885e+00	1.222928e+00	1.222996e+00	1.223195e+00	1.222766e+00	1.222855e+00	1.222782e+00	1.223005e+00	1.222874e+00	1.223169e+00	1.223143e+00	1.223269e+00	1.223212e+00	1.223259e+00	1.223478e+00	1.223354e+00	1.222877e+00	1.223014e+00	1.223283e+00	1.222629e+00	1.222797e+00	1.223433e+00	1.223524e+00	1.223546e+00	1.223485e+00	1.223632e+00	1.223691e+00	1.223584e+00	1.223683e+00	1.223669e+00	1.222937e+00	1.222850e+00	1.222885e+00	1.223541e+00	1.222911e+00	1.223245e+00	1.222153e+00	1.221956e+00	1.222675e+00	1.222889e+00	1.223420e+00	1.223735e+00	1.223732e+00	1.223785e+00	1.223788e+00	1.223814e+00	1.223690e+00	1.222805e+00	1.222652e+00	1.222911e+00	1.223558e+00	1.223204e+00	1.221956e+00	1.223193e+00	1.222865e+00	1.222795e+00	1.222683e+00	1.222937e+00	1.222843e+00	1.222773e+00	1.223109e+00	1.223772e+00	1.223782e+00	1.223847e+00	1.223828e+00	1.223699e+00	1.222747e+00	1.223497e+00	1.223475e+00	1.223033e+00	1.222973e+00	1.223155e+00	1.222929e+00	1.223002e+00	1.223286e+00	1.223678e+00	1.223168e+00	1.223050e+00	1.222721e+00	1.223758e+00	1.223877e+00	1.223892e+00	1.223926e+00	1.223784e+00	1.223674e+00	1.223713e+00	1.223009e+00	1.223043e+00	1.222880e+00	1.223928e+00	1.223349e+00	1.222666e+00	1.222819e+00	1.222613e+00	1.222639e+00	1.222756e+00	1.222901e+00	1.222835e+00	1.223955e+00	1.223597e+00	1.223542e+00	1.223529e+00	1.223598e+00	1.223571e+00	1.223640e+00	1.223916e+00	1.223228e+00	1.223500e+00	1.223511e+00	1.223355e+00	1.223380e+00	1.223418e+00	1.223646e+00	1.222798e+00	1.223408e+00	1.223888e+00	1.223021e+00	1.223041e+00	1.223084e+00	1.223739e+00	1.223052e+00	1.223090e+00	1.222693e+00	1.223291e+00	1.223296e+00	1.223663e+00	1.223068e+00	1.223003e+00	1.222685e+00	1.223753e+00	1.223984e+00	1.223402e+00	1.223905e+00	1.223957e+00	1.222890e+00	1.222719e+00	1.223565e+00	1.223602e+00	1.222708e+00	1.223693e+00	1.222963e+00	1.223840e+00	1.223870e+00	1.223734e+00	1.223836e+00	1.223780e+00	1.223266e+00	1.223540e+00	1.222967e+00	1.223457e+00	1.223721e+00	1.223158e+00	1.223875e+00	1.223957e+00	1.223027e+00	1.222911e+00	1.223873e+00	1.222709e+00	1.223201e+00	1.223989e+00	1.223561e+00	1.223107e+00	1.223164e+00	1.223096e+00	1.223799e+00	1.223741e+00	1.222716e+00	1.223040e+00	1.222884e+00	1.223233e+00	1.223644e+00	1.223235e+00	1.223833e+00	1.223007e+00	1.223628e+00	1.223994e+00	1.222892e+00	1.223347e+00	1.223863e+00	1.223882e+00	1.223159e+00	1.223713e+00	1.223133e+00	1.223882e+00	1.223077e+00	1.222734e+00	1.223090e+00	1.223952e+00	1.223109e+00	1.223062e+00	1.223888e+00	1.223049e+00	1.223983e+00	1.223844e+00	1.223669e+00	1.222729e+00	1.222859e+00	1.223069e+00	1.223909e+00	1.222902e+00	1.223941e+00	1.223021e+00	1.223486e+00	1.223117e+00	1.223959e+00	1.223660e+00	1.223662e+00	1.223727e+00	1.223526e+00	1.222796e+00	1.222844e+00	1.223478e+00	1.222682e+00	1.223253e+00	1.223288e+00	1.223810e+00	1.223312e+00	1.223243e+00	1.223967e+00	1.223586e+00	1.223512e+00	1.223050e+00	1.223586e+00	1.222858e+00	1.223162e+00	1.223910e+00	1.222980e+00	1.223372e+00	1.223044e+00	1.223378e+00	1.223776e+00	1.222912e+00	1.223348e+00	1.223651e+00	1.222847e+00	1.223768e+00	1.223023e+00	1.222249e+00	1.223786e+00	1.223868e+00	1.223459e+00	1.223469e+00	1.222766e+00	1.223653e+00	1.223100e+00	1.223622e+00	1.223891e+00	1.224996e+00	1.223972e+00	1.223766e+00	1.223038e+00	1.223287e+00	1.223571e+00	1.223426e+00	1.223876e+00	1.223037e+00	1.223965e+00	1.222843e+00	1.222805e+00	1.223598e+00	1.222796e+00	1.223590e+00	1.223345e+00	1.223843e+00	1.223861e+00	1.223715e+00	1.223013e+00	1.222995e+00	1.223988e+00	1.223269e+00	1.223483e+00	1.223164e+00	1.223695e+00	1.222883e+00	1.223483e+00	1.223158e+00	1.223004e+00	1.223484e+00	1.223802e+00	1.222803e+00	1.223093e+00	1.222552e+00	1.223316e+00	1.223076e+00	1.223786e+00	1.222766e+00	
SCALARS X-Momentum float 1
LOOKUP_TABLE default
8.113351e+00	2.368867e-01	4.750280e+00	2.615247e-01	-6.884300e-01	-5.214730e+00	1.635925e+01	1.011695e+01	9.951669e+00	9.701530e+00	9.394299e+00	9.036021e+00	8.684430e+00	8.343240e+00	7.932874e+00	7.582861e+00	7.051832e+00	6.386754e+00	5.642009e+00	4.818941e+00	3.942500e+00	3.135520e+00	2.285678e+00	1.506185e+00	7.923065e-01	-2.088907e-02	4.954781e-02	1.431700e-01	2.201881e-01	3.023233e-01	3.899022e-01	4.847514e-01	5.825411e-01	6.955199e-01	7.639580e-01	7.658235e-01	5.227634e-01	4.490679e+00	3.782949e-01	3.080998e-01	4.221737e-01	4.630746e-01	5.064552e-01	5.345477e-01	5.109058e-01	4.505144e-01	3.782442e-01	2.711265e-01	1.858787e-01	1.352983e-01	-2.139897e+00	-3.838045e+00	-5.277977e+00	-6.586871e+00	-7.652133e+00	-8.421779e+00	-8.973901e+00	-9.206149e+00	-8.633593e+00	-7.713143e+00	-6.799733e+00	-1.401693e+00	4.140342e+00	9.699703e+00	1.382616e+01	1.592882e+01	1.649009e+01	1.571084e+01	1.484249e+01	1.389069e+01	1.308153e+01	1.237991e+01	1.172155e+01	1.111621e+01	1.061663e+01	1.027900e+01	1.428142e+00	1.017936e+00	6.895219e+00	-6.300455e+00	5.542219e-01	1.382373e+00	4.563301e+00	-6.161916e+00	9.297027e+00	1.231372e+01	1.122964e+01	1.391224e+01	-3.549882e-02	9.488411e-01	2.714066e+00	-4.664122e+00	8.465722e-01	1.655375e+00	-5.802587e-01	7.029248e-01	6.996780e-01	8.348189e+00	1.024107e+01	1.563598e+01	1.087704e+00	-2.239659e+00	-3.546894e+00	7.955108e+00	7.122404e+00	1.086113e+01	1.405397e+01	1.297042e+01	9.023383e+00	1.182142e+01	1.445788e+01	1.356275e+01	1.054089e+01	1.230095e+01	9.007316e+00	1.057674e+01	1.354156e+01	1.248529e+01	1.411590e+01	1.355164e+01	1.396464e+01	1.331949e+01	1.312960e+01	1.219452e+01	7.158873e+00	1.512089e+01	1.380649e+01	5.447608e+00	4.289265e+00	1.209475e+01	1.113708e+01	1.078901e+01	1.014582e+01	9.465226e+00	9.329340e+00	9.861606e+00	8.451880e+00	8.676539e+00	5.191327e+00	2.888243e+00	2.051602e+00	1.128671e+01	1.259108e+00	1.286678e+01	5.293797e+00	2.498551e+00	6.287594e+00	4.614052e+00	1.207876e+01	7.837807e+00	8.227408e+00	7.285071e+00	6.816211e+00	6.103461e+00	8.877862e+00	1.885145e-01	8.699514e-01	-1.166213e-01	9.687664e+00	1.550984e+01	8.304880e+00	9.366557e+00	2.080583e+00	4.135564e+00	7.170515e+00	2.413308e+00	-1.327321e+00	-5.997298e-01	9.825991e+00	6.262779e+00	5.080823e+00	5.119489e+00	3.986057e+00	8.516595e+00	6.521347e+00	1.138347e+01	1.205342e+01	8.438529e-01	-2.319421e-01	1.103944e+01	-1.431107e+00	-1.326404e+00	1.525018e+01	9.041883e+00	1.536756e+01	-2.673266e+00	-3.596979e+00	7.938170e+00	4.300080e+00	5.102558e+00	3.326700e+00	4.991434e+00	6.585618e+00	8.741517e+00	6.635532e-01	1.398272e+00	-2.825280e+00	2.871592e+00	1.464417e+01	-1.951878e+00	8.571855e-01	-1.141673e+00	2.385251e+00	5.250957e-01	9.664961e+00	9.099875e+00	3.631086e+00	8.458426e+00	1.070291e+01	1.091095e+01	1.033162e+01	1.053406e+01	9.957916e+00	2.265468e+00	1.034528e+01	1.148510e+01	8.608918e+00	1.291533e+01	1.273134e+01	1.369203e+01	9.442724e+00	3.542417e+00	1.197207e+01	3.932363e+00	-2.314705e+00	-1.001588e+00	-1.721254e+00	7.961632e+00	6.244270e+00	1.566978e+01	8.199726e+00	1.527928e+01	1.449981e+01	9.488927e+00	-1.839881e-01	-1.163527e-01	-6.566011e+00	3.521112e+00	1.980468e+00	1.296913e+01	2.752126e+00	1.855681e+00	1.969086e+00	3.553179e+00	1.026417e+01	9.858592e+00	1.155201e+01	8.727890e+00	9.691670e+00	6.224407e+00	6.794570e+00	7.380318e+00	6.088358e+00	6.825821e+00	1.541362e+01	1.190865e+01	1.853608e+00	9.204853e+00	4.037187e+00	1.419585e+00	2.669740e+00	3.642813e+00	-5.572048e+00	-6.360161e+00	5.441350e+00	-5.338456e+00	-3.532100e+00	1.840134e+00	1.067355e+01	1.209164e+01	1.619129e+01	4.666173e-01	7.497639e+00	7.961871e+00	4.456020e+00	8.852761e-01	1.534344e+00	1.494645e+01	9.594092e+00	1.475010e+01	2.291533e+00	8.524161e-01	9.909857e+00	1.717747e+00	-4.379563e+00	1.400723e+01	5.206143e+00	1.532870e+00	9.293643e-01	8.406143e+00	7.015782e-01	1.318218e+00	3.615160e-01	2.777181e+00	1.698432e-01	7.983775e-01	-2.671527e-01	-7.412922e-01	1.135297e+00	-1.885519e+00	1.349829e+00	5.851241e+00	7.454031e+00	-2.293133e-01	6.360312e+00	4.820442e+00	7.335047e+00	-1.410617e+00	4.401829e+00	1.182820e+00	5.114254e+00	-8.532462e-01	5.896961e-01	9.170222e+00	9.475647e+00	7.397114e+00	1.107048e+01	1.024898e+01	6.762405e+00	1.146819e+01	2.994702e+00	1.461596e+01	1.352020e+01	7.508321e+00	1.584473e+01	1.482046e+01	1.615445e+00	1.048143e+01	1.185952e+01	1.506739e+01	9.998855e+00	3.950166e+00	1.445711e+01	2.240599e+00	-3.800246e+00	1.451537e+01	-3.036304e+00	1.288911e+01	8.226838e+00	-4.269367e+00	1.229967e+01	9.358971e+00	2.537176e+00	7.362371e+00	-3.222647e+00	-3.709857e+00	8.157737e+00	2.704668e+00	3.507201e+00	1.047536e+01	7.821585e+00	8.121016e+00	1.116446e+01	9.854794e+00	3.054358e+00	2.331742e+00	1.465150e+00	7.784569e+00	-1.030449e+00	1.188600e+01	1.007606e+01	1.235157e+01	3.213186e+00	1.615781e+01	1.237696e+00	-4.083836e+00	-2.343572e+00	1.004912e+01	-2.764770e+00	1.072793e+01	1.115217e+01	5.691632e+00	5.539780e+00	9.069002e+00	-3.296171e-01	2.967198e-01	4.793303e-01	-1.031915e+00	1.279882e+01	1.438013e+01	2.477633e+00	1.263056e+01	7.909873e+00	1.553104e+01	6.373378e-01	1.151783e+01	6.254444e+00	7.459534e+00	1.199318e+00	5.678444e+00	1.337457e+01	7.360880e+00	2.046271e+00	7.807062e+00	
SCALARS Y-Momentum float 1
LOOKUP_TABLE default
-2.482160e-02	2.326748e-01	7.649782e+00	-2.411314e-01	6.620941e-01	2.287676e-01	5.904546e-02	-1.386154e-02	2.148044e-02	5.196291e-02	7.260119e-02	9.381690e-02	8.151605e-02	1.921545e-02	-4.339247e-03	-3.676220e-05	5.360936e-03	3.645262e-03	9.693045e-03	1.179593e-02	-7.783355e-03	3.945920e-03	-1.880304e-03	6.511889e-03	-1.909064e-02	7.400722e-01	1.337931e+00	1.976279e+00	2.706613e+00	3.479607e+00	4.270061e+00	5.086758e+00	5.963751e+00	6.930110e+00	7.836506e+00	8.354898e+00	9.155733e+00	-7.092794e-01	2.327404e+00	3.412479e+00	4.338249e+00	4.994330e+00	5.388902e+00	5.548306e+00	5.439652e+00	5.095603e+00	4.570867e+00	3.854923e+00	2.978912e+00	1.864606e+00	-6.347844e-03	2.888418e-02	2.916515e-02	1.030883e-02	6.801259e-03	1.845966e-02	2.049636e-02	-6.986297e-05	-5.870614e-02	-7.982175e-02	-1.000105e-01	-5.548538e-01	-6.493765e-01	-2.968839e-01	3.610238e-01	6.555382e-01	4.210968e-01	1.592155e-02	3.724039e-03	-7.510707e-03	-3.947585e-02	-2.431702e-02	-3.070492e-03	-4.536096e-03	4.729831e-03	-1.670873e-03	8.898731e+00	3.697079e+00	5.197515e-01	-2.952875e-01	5.145319e+00	5.213015e+00	7.622609e-01	6.352587e-01	4.486833e-01	9.716654e-02	5.233289e-01	8.382295e-01	4.394766e+00	2.924327e+00	7.243587e-01	9.323788e-01	4.707840e+00	6.878533e+00	3.046922e+00	1.606311e+00	-9.232656e-01	3.750118e-01	3.043048e-01	7.823810e-01	5.510141e-01	1.114297e+00	-6.871498e-01	2.810901e-01	-6.412094e-01	-5.403129e-02	7.635193e-01	8.747940e-01	1.035716e-01	1.089772e+00	1.824415e+00	2.128595e+00	1.480769e+00	2.497873e+00	2.010836e+00	2.973126e+00	3.581707e+00	4.152429e+00	4.516062e+00	5.147564e+00	4.895190e+00	5.617015e+00	4.639955e+00	5.324323e+00	2.411982e+00	2.614134e+00	4.026554e+00	1.843193e+00	2.508383e+00	3.899728e+00	4.036270e+00	5.460814e+00	3.874239e+00	4.693786e+00	3.433716e+00	2.977487e+00	3.890413e+00	2.836806e+00	2.919867e+00	3.276715e+00	2.706986e+00	2.998345e+00	3.464978e+00	5.887873e+00	1.548341e+00	1.513616e+00	2.953135e+00	2.601051e+00	2.812485e+00	2.955690e+00	2.242721e+00	4.016074e+00	2.702086e+00	3.584400e+00	2.130694e+00	2.645376e+00	1.942708e+00	3.250705e+00	6.642895e+00	2.075833e+00	6.563385e+00	5.883637e+00	2.955950e+00	3.298104e+00	3.677339e+00	3.823196e+00	1.705195e+00	9.646391e-01	8.859258e+00	5.043762e+00	4.425386e+00	3.155237e+00	3.727694e+00	1.662668e+00	3.510503e+00	2.159038e+00	1.887500e+00	4.060805e+00	3.714214e+00	7.757957e+00	2.826262e+00	3.205223e+00	2.463511e+00	1.554161e+00	1.866151e+00	2.240420e+00	7.014848e-01	1.641872e+00	2.569795e+00	2.213062e+00	2.751330e+00	6.387458e+00	6.927055e+00	1.087033e+00	4.445004e+00	4.552268e+00	1.920393e+00	3.670234e+00	3.856586e+00	2.300926e-01	3.184106e-01	-2.147743e-01	-2.495493e-01	-7.825542e-01	4.313914e+00	3.737612e+00	1.845639e+00	5.285731e+00	2.276378e+00	1.642795e+00	1.703112e+00	1.201011e+00	1.198719e+00	2.755071e+00	9.036364e+00	8.018553e+00	9.998198e+00	2.575011e+00	1.453860e+00	2.170633e+00	1.926002e+00	3.546958e+00	1.106251e+00	5.184427e+00	2.551792e+00	3.594630e+00	2.853807e+00	1.032297e+01	1.043681e+01	1.640374e+00	6.024481e-01	8.782101e-01	1.844058e+00	1.381757e+00	4.151056e+00	4.454209e+00	9.034092e-02	6.744901e+00	3.697416e+00	6.729990e-01	1.962718e+00	1.933029e+00	4.104901e+00	-9.823991e-01	7.405399e-01	7.016302e-01	4.744885e+00	5.283965e-01	3.328264e+00	6.170354e-01	1.130183e+00	9.092272e-01	1.389483e+00	1.806419e+00	1.372917e+00	6.445481e+00	4.426916e+00	8.607744e+00	8.115796e+00	4.462033e+00	5.749961e+00	8.867739e-01	7.764997e-01	4.342345e-01	7.037442e-01	-5.052793e-01	1.103038e+00	6.660329e-01	3.983346e-01	6.854615e+00	9.195117e-01	4.677851e+00	4.220863e-01	7.280290e-01	4.803324e-01	4.770922e+00	3.963600e+00	3.234380e+00	4.199966e-01	7.540082e-01	4.644308e+00	2.723901e+00	3.159749e-01	7.981465e+00	1.132365e+00	3.155396e+00	1.425826e+00	6.000647e+00	4.219824e+00	7.887873e-01	5.009033e+00	4.429497e+00	5.065379e+00	1.251670e+00	4.803437e+00	2.246055e+00	3.818632e+00	3.690064e+00	3.633090e+00	2.242203e+00	1.283982e+00	2.587425e+00	8.881294e+00	-9.914555e-01	3.246843e+00	-5.779479e-01	4.778189e+00	2.341389e+00	1.613092e+00	4.622156e+00	1.111975e+01	2.113018e+00	9.908545e-01	1.124907e+00	8.698367e-01	5.471113e+00	1.075799e+00	5.435452e+00	1.233108e+00	1.451229e+00	2.071474e+00	2.634838e+00	1.373419e+00	2.121971e+00	1.313201e+00	1.366188e+00	3.059960e+00	2.993483e+00	5.073447e-01	1.505055e+00	2.278014e+00	3.577977e+00	3.073003e+00	1.335968e+00	1.620319e+00	3.862208e+00	1.921076e+00	3.578460e+00	1.180727e+00	1.386605e+00	7.019053e+00	2.579736e+00	4.065510e+00	1.452304e+00	-5.594937e-01	-5.043411e-01	1.270052e-01	8.254125e+00	9.940478e+00	8.189153e+00	3.864239e+00	7.027982e+00	4.092705e+00	1.675864e+00	1.342609e+00	1.071083e+01	2.446866e+00	1.149022e+00	3.155777e+00	5.529121e+00	1.289425e-01	6.851207e-01	4.515222e+00	4.567592e-01	1.887724e+00	-7.979815e-02	-8.600177e-01	5.195438e-01	1.543638e+00	7.940671e-01	7.121838e+00	1.929611e+00	8.679351e+00	7.023660e-01	4.218543e+00	4.760655e+00	4.541959e-01	1.075030e+00	6.392096e+00	4.357378e+00	7.029697e+00	4.784518e+00	4.600513e+00	1.304616e+00	4.907615e+00	8.951487e-01	2.071201e+00	-5.859086e-01	4.667954e+00	-3.392126e-02	3.331129e+00	9.205899e+00	5.311305e+00	2.831651e+00	
SCALARS Energy float 1
LOOKUP_TABLE default