# vtk DataFile Version 3.0
vtk output
ASCII
DATASET UNSTRUCTURED_GRID
POINTS 394 float
-3.000000e+00	0.000000e+00	0.0	-5.000000e-02	4.453046e-17	0.0	4.897253e-01	1.037509e+00	0.0	5.897791e-01	9.621408e-01	0.0	5.000000e-02	-1.209647e-17	0.0	3.000000e+00	0.000000e+00	0.0	3.000000e+00	4.000000e+00	0.0	-3.000000e+00	4.000000e+00	0.0	-3.000000e+00	3.428571e+00	0.0	-3.000000e+00	2.857143e+00	0.0	-3.000000e+00	2.285714e+00	0.0	-3.000000e+00	1.714286e+00	0.0	-3.000000e+00	1.142857e+00	0.0	-3.000000e+00	5.714286e-01	0.0	-2.473871e+00	0.000000e+00	0.0	-2.029066e+00	0.000000e+00	0.0	-1.653013e+00	0.000000e+00	0.0	-1.335087e+00	0.000000e+00	0.0	-1.066302e+00	0.000000e+00	0.0	-8.390627e-01	0.000000e+00	0.0	-6.469477e-01	0.000000e+00	0.0	-4.845277e-01	0.000000e+00	0.0	-3.472127e-01	0.000000e+00	0.0	-2.311224e-01	0.000000e+00	0.0	-1.329760e-01	0.000000e+00	0.0	-4.385675e-02	8.340645e-02	0.0	-2.880317e-02	1.662719e-01	0.0	-5.110664e-03	2.484137e-01	0.0	2.612321e-02	3.298829e-01	0.0	6.389590e-02	4.107061e-01	0.0	1.072233e-01	4.908928e-01	0.0	1.551215e-01	5.704518e-01	0.0	2.066198e-01	6.494048e-01	0.0	2.607910e-01	7.278024e-01	0.0	3.168129e-01	8.057168e-01	0.0	3.739768e-01	8.832519e-01	0.0	4.317989e-01	9.604485e-01	0.0	5.397527e-01	9.998720e-01	0.0	5.317445e-01	8.853096e-01	0.0	4.739855e-01	8.086322e-01	0.0	4.168151e-01	7.322858e-01	0.0	3.608045e-01	6.563493e-01	0.0	3.066404e-01	5.809130e-01	0.0	2.551481e-01	5.060517e-01	0.0	2.072525e-01	4.318111e-01	0.0	1.639263e-01	3.582093e-01	0.0	1.261533e-01	2.852504e-01	0.0	9.491954e-02	2.129418e-01	0.0	7.123342e-02	1.413019e-01	0.0	5.609871e-02	7.034852e-02	0.0	1.329760e-01	0.000000e+00	0.0	2.311224e-01	0.000000e+00	0.0	3.472127e-01	0.000000e+00	0.0	4.845277e-01	0.000000e+00	0.0	6.469477e-01	0.000000e+00	0.0	8.390627e-01	0.000000e+00	0.0	1.066302e+00	0.000000e+00	0.0	1.335087e+00	0.000000e+00	0.0	1.653013e+00	0.000000e+00	0.0	2.029066e+00	0.000000e+00	0.0	2.473871e+00	0.000000e+00	0.0	3.000000e+00	5.714286e-01	0.0	3.000000e+00	1.142857e+00	0.0	3.000000e+00	1.714286e+00	0.0	3.000000e+00	2.285714e+00	0.0	3.000000e+00	2.857143e+00	0.0	3.000000e+00	3.428571e+00	0.0	2.400000e+00	4.000000e+00	0.0	1.800000e+00	4.000000e+00	0.0	1.200000e+00	4.000000e+00	0.0	6.000000e-01	4.000000e+00	0.0	0.000000e+00	4.000000e+00	0.0	-6.000000e-01	4.000000e+00	0.0	-1.200000e+00	4.000000e+00	0.0	-1.800000e+00	4.000000e+00	0.0	-2.400000e+00	4.000000e+00	0.0	2.977431e-01	9.470916e-01	0.0	5.504823e-01	8.284891e-01	0.0	-1.459339e+00	2.971137e-01	0.0	1.549660e+00	1.770455e-01	0.0	3.251618e-01	5.227839e-01	0.0	9.026889e-02	6.359087e-01	0.0	-7.226673e-01	2.095331e-01	0.0	7.896670e-01	1.110015e-01	0.0	-2.532727e+00	2.111302e+00	0.0	2.627184e+00	1.898717e+00	0.0	-8.092309e-01	3.530296e+00	0.0	1.072283e+00	3.444556e+00	0.0	2.045965e-01	3.094197e-01	0.0	-3.509170e-02	3.854040e-01	0.0	-3.993804e-01	1.433197e-01	0.0	4.403784e-01	8.156527e-02	0.0	4.352113e-01	6.710916e-01	0.0	1.883258e-01	7.947796e-01	0.0	1.573149e-01	1.714372e-01	0.0	-8.983415e-02	2.202668e-01	0.0	2.582311e+00	7.458496e-01	0.0	-2.474369e+00	8.296192e-01	0.0	-2.006154e+00	3.477551e+00	0.0	2.146174e+00	3.412999e+00	0.0	-1.770449e-01	8.823530e-02	0.0	1.936764e-01	6.225654e-02	0.0	2.272984e+00	3.380682e-01	0.0	-2.236018e+00	3.860828e-01	0.0	2.583678e+00	1.334149e+00	0.0	2.273207e+00	1.621261e+00	0.0	2.259172e+00	2.052726e+00	0.0	1.971996e+00	1.774040e+00	0.0	1.939449e+00	1.352406e+00	0.0	1.711666e+00	1.558772e+00	0.0	1.688177e+00	1.923276e+00	0.0	1.482848e+00	1.706206e+00	0.0	1.481577e+00	1.392144e+00	0.0	1.295350e+00	1.522947e+00	0.0	1.291035e+00	1.261639e+00	0.0	1.124064e+00	1.350356e+00	0.0	1.104959e+00	1.631162e+00	0.0	9.588932e-01	1.492086e+00	0.0	9.138003e-01	1.741688e+00	0.0	7.712937e-01	1.631996e+00	0.0	7.122128e-01	1.855387e+00	0.0	5.747420e-01	1.745059e+00	0.0	4.894468e-01	1.970389e+00	0.0	3.406391e-01	1.816840e+00	0.0	1.137905e+00	1.127179e+00	0.0	1.425030e+00	2.060435e+00	0.0	6.850978e-01	2.123694e+00	0.0	1.248262e+00	1.004176e+00	0.0	1.090327e+00	9.345439e-01	0.0	2.198201e-01	2.098740e+00	0.0	4.355109e-03	1.961139e+00	0.0	1.284828e-01	1.689139e+00	0.0	-2.374063e-01	1.826943e+00	0.0	-1.580632e-01	1.595194e+00	0.0	-4.783669e-01	1.676248e+00	0.0	-5.075669e-01	1.908437e+00	0.0	-4.202846e-01	1.442370e+00	0.0	-7.547859e-01	1.512057e+00	0.0	9.971134e-01	1.027534e+00	0.0	9.499314e-01	8.534742e-01	0.0	1.033017e+00	7.556543e-01	0.0	-9.896433e-02	2.246996e+00	0.0	8.764186e-01	6.790472e-01	0.0	6.344311e-01	1.512288e+00	0.0	5.460719e-01	1.054587e+00	0.0	6.068399e-01	1.010703e+00	0.0	5.755755e-01	1.100761e+00	0.0	6.411105e-01	1.078766e+00	0.0	1.508274e-01	2.412194e+00	0.0	-7.206394e-01	1.250398e+00	0.0	-1.051699e+00	1.323630e+00	0.0	-3.996907e-01	1.181853e+00	0.0	-7.616178e-01	9.697811e-01	0.0	-4.621010e-01	9.515702e-01	0.0	-1.091092e+00	1.620587e+00	0.0	9.594870e-01	5.833381e-01	0.0	1.129228e+00	6.520104e-01	0.0	7.948516e-01	5.260027e-01	0.0	1.164093e-01	1.462945e+00	0.0	1.637553e+00	2.296649e+00	0.0	4.975265e-01	1.122501e+00	0.0	5.371469e-01	1.182268e+00	0.0	6.589200e-01	9.814923e-01	0.0	7.105937e-01	1.055140e+00	0.0	6.799312e-01	1.153677e+00	0.0	7.211675e-01	9.469239e-01	0.0	1.050990e+00	4.803184e-01	0.0	1.257505e+00	5.698512e-01	0.0	4.337178e-01	1.203494e+00	0.0	-1.970967e-01	1.067585e+00	0.0	-2.471027e-01	8.885716e-01	0.0	-4.695214e-01	7.446155e-01	0.0	-2.603112e-01	7.113028e-01	0.0	-1.403709e+00	1.406597e+00	0.0	7.719882e-01	1.139876e+00	0.0	-2.102954e-01	2.564106e+00	0.0	5.728677e-02	2.772777e+00	0.0	7.203112e-01	6.039275e-01	0.0	6.360465e-01	4.687013e-01	0.0	4.867891e-01	1.281933e+00	0.0	7.116744e-01	3.924059e-01	0.0	5.514282e-01	3.457016e-01	0.0	1.339515e+00	2.450234e+00	0.0	-1.455293e+00	1.737517e+00	0.0	1.564124e+00	2.692548e+00	0.0	6.250669e-01	2.720146e-01	0.0	1.151584e+00	3.250155e-01	0.0	-1.351198e+00	1.110580e+00	0.0	-4.613315e-01	5.583641e-01	0.0	-6.294403e-01	5.888651e-01	0.0	-3.107321e-01	5.169822e-01	0.0	-3.086173e-03	1.006882e+00	0.0	9.557894e-03	1.155282e+00	0.0	-1.880016e+00	1.500097e+00	0.0	5.687938e-01	5.439507e-01	0.0	6.635491e-01	6.787676e-01	0.0	7.962102e-01	3.132059e-01	0.0	-1.515749e-01	6.150360e-01	0.0	1.040850e+00	1.919586e+00	0.0	1.388196e+00	4.866639e-01	0.0	1.462389e+00	6.910725e-01	0.0	1.612136e+00	5.581116e-01	0.0	1.702582e+00	8.271850e-01	0.0	1.916545e+00	7.005712e-01	0.0	7.183909e-01	1.252865e+00	0.0	8.272695e-01	1.236145e+00	0.0	-4.586602e-01	3.810543e-01	0.0	-1.458046e-01	1.404520e+00	0.0	-4.796633e-01	2.365188e+00	0.0	-6.170349e-01	2.710725e+00	0.0	-9.163118e-01	2.500092e+00	0.0	-1.044984e+00	2.848170e+00	0.0	-1.429177e+00	2.534820e+00	0.0	-1.827122e-01	4.566719e-01	0.0	3.585371e-01	1.300383e+00	0.0	4.072153e-01	1.400577e+00	0.0	3.097204e-01	1.212091e+00	0.0	4.639235e-01	2.568291e+00	0.0	3.663914e-01	3.032160e+00	0.0	7.513060e-01	2.765326e+00	0.0	-1.132666e+00	1.948565e+00	0.0	8.766111e-01	9.447994e-01	0.0	-1.038777e-01	3.186443e+00	0.0	-7.949307e-02	8.476098e-01	0.0	4.696296e-01	2.353269e-01	0.0	3.802111e-01	3.001116e-01	0.0	3.310926e-01	2.081077e-01	0.0	3.848474e-01	1.136975e+00	0.0	2.667880e-01	1.122006e+00	0.0	1.896213e+00	2.541835e+00	0.0	1.642057e+00	1.234205e+00	0.0	2.563317e+00	2.474580e+00	0.0	1.163554e+00	2.879734e+00	0.0	-1.518340e+00	2.099012e+00	0.0	4.664912e-01	4.133409e-01	0.0	3.341310e-01	3.787790e-01	0.0	1.255164e+00	1.574131e-01	0.0	8.166011e-02	9.131521e-01	0.0	-7.116922e-02	5.379350e-01	0.0	5.107120e-01	3.525963e+00	0.0	-3.152992e-01	3.554668e-01	0.0	-2.032655e-01	3.177679e-01	0.0	8.116951e-01	7.823567e-01	0.0	2.255214e+00	9.714403e-01	0.0	-1.554269e+00	3.056224e+00	0.0	-1.915438e+00	2.710047e+00	0.0	7.648078e-01	1.370254e+00	0.0	-2.437758e+00	1.355059e+00	0.0	9.743638e-01	1.282533e+00	0.0	-1.170935e+00	2.695490e-01	0.0	-1.251780e+00	5.582231e-01	0.0	-1.542496e+00	6.064017e-01	0.0	-9.761865e-01	5.379095e-01	0.0	-1.049622e+00	8.047935e-01	0.0	1.819638e+00	3.006778e+00	0.0	3.515032e-01	1.633542e+00	0.0	7.217551e-01	8.205195e-01	0.0	2.185811e-01	1.311278e+00	0.0	1.330784e-01	1.001126e+00	0.0	5.941413e-01	7.490335e-01	0.0	4.328989e-02	7.843966e-01	0.0	-5.400512e-01	2.127182e-01	0.0	5.970851e-01	8.997780e-02	0.0	1.017245e+00	1.437468e-01	0.0	-9.304939e-01	2.420387e-01	0.0	1.875742e+00	2.232003e-01	0.0	3.093926e-01	7.167265e-02	0.0	-2.732155e-01	1.145447e-01	0.0	-1.406149e+00	3.546206e+00	0.0	5.483631e-01	1.380447e+00	0.0	2.583852e+00	3.089580e+00	0.0	4.450501e-01	4.933419e-01	0.0	-1.812288e+00	3.392694e-01	0.0	-1.920460e+00	7.591918e-01	0.0	1.555432e+00	9.570003e-01	0.0	4.854004e-01	5.954960e-01	0.0	6.495710e-01	8.710679e-01	0.0	1.132292e+00	2.205440e+00	0.0	-2.477699e+00	2.556599e+00	0.0	1.564392e+00	3.496400e+00	0.0	-1.961147e-02	6.691497e-01	0.0	6.046843e-01	9.199495e-01	0.0	-2.408177e+00	3.091506e+00	0.0	2.412605e-01	8.700743e-01	0.0	9.161159e-01	2.334397e-01	0.0	8.077226e-01	2.408663e+00	0.0	-7.740246e-01	4.062332e-01	0.0	1.352802e-01	7.163451e-01	0.0	4.912225e-01	7.470705e-01	0.0	-2.080142e+00	1.127228e+00	0.0	3.782636e-01	6.002327e-01	0.0	3.772612e-02	5.646272e-01	0.0	2.816500e-01	4.496974e-01	0.0	1.325736e+00	8.014143e-01	0.0	2.391581e-01	3.768710e-01	0.0	-6.267657e-02	3.003737e-01	0.0	1.743568e-01	2.402807e-01	0.0	2.660913e-01	2.599486e-01	0.0	-4.942763e-03	4.725805e-01	0.0	2.491614e-01	1.343427e-01	0.0	-1.875002e-01	2.020215e-01	0.0	-6.806122e-01	7.598459e-01	0.0	1.683813e-01	1.205406e+00	0.0	2.209016e+00	6.439484e-01	0.0	8.932913e-01	1.110717e+00	0.0	1.972813e+00	1.028160e+00	0.0	4.934429e-01	1.075939e+00	0.0	8.791790e-01	4.420343e-01	0.0	-6.004822e-01	3.962167e-01	0.0	5.261724e-01	6.907980e-01	0.0	3.471682e-01	1.067160e+00	0.0	1.299808e-01	1.026046e-01	0.0	-1.041497e-01	1.308563e-01	0.0	-1.806011e+00	1.869473e+00	0.0	-1.964503e+00	2.241579e+00	0.0	-1.463004e-01	1.232422e+00	0.0	-7.245049e-01	3.097518e+00	0.0	5.941929e-01	1.251555e+00	0.0	1.429645e+00	1.107368e+00	0.0	-3.451022e-01	2.937911e+00	0.0	1.168340e+00	8.257771e-01	0.0	1.044170e+00	2.541500e+00	0.0	7.825993e-01	3.129880e+00	0.0	-1.049162e+00	1.047994e+00	0.0	2.212103e+00	2.817805e+00	0.0	1.452068e+00	3.103807e+00	0.0	-9.454469e-02	4.47206
[...]
POINT_DATA 394

SCALARS Density float 1
LOOKUP_TABLE default
1.223702e+00	1.223913e+00	1.221374e+00	1.221958e+00	1.223382e+00	1.223580e+00	1.223279e+00	1.223580e+00	1.223565e+00	1.223576e+00	1.223616e+00	1.223640e+00	1.223703e+00	1.223709e+00	1.223718e+00	1.223707e+00	1.223736e+00	1.223753e+00	1.223794e+00	1.223818e+00	1.223835e+00	1.223906e+00	1.223870e+00	1.223988e+00	1.223859e+00	1.224037e+00	1.223864e+00	1.223865e+00	1.223842e+00	1.223787e+00	1.223750e+00	1.223686e+00	1.223672e+00	1.223576e+00	1.223665e+00	1.222896e+00	1.224787e+00	1.219588e+00	1.223807e+00	1.223321e+00	1.223376e+00	1.223376e+00	1.223326e+00	1.223300e+00	1.223287e+00	1.223281e+00	1.223293e+00	1.223317e+00	1.223243e+00	1.223437e+00	1.223239e+00	1.223330e+00	1.223265e+00	1.223212e+00	1.223170e+00	1.223135e+00	1.223056e+00	1.223039e+00	1.223044e+00	1.223187e+00	1.222718e+00	1.223317e+00	1.223062e+00	1.222885e+00	1.222824e+00	1.222950e+00	1.223094e+00	1.223109e+00	1.223251e+00	1.223287e+00	1.223368e+00	1.223413e+00	1.223488e+00	1.223537e+00	1.223568e+00	1.223569e+00	1.222854e+00	1.223745e+00	1.223744e+00	1.222994e+00	1.223336e+00	1.223666e+00	1.223822e+00	1.223103e+00	1.223611e+00	1.223310e+00	1.223506e+00	1.223303e+00	1.223292e+00	1.223815e+00	1.223894e+00	1.223212e+00	1.223464e+00	1.223456e+00	1.223360e+00	1.223883e+00	1.223000e+00	1.223700e+00	1.223587e+00	1.223127e+00	1.223944e+00	1.223314e+00	1.223125e+00	1.223692e+00	1.222983e+00	1.222867e+00	1.223098e+00	1.223099e+00	1.223005e+00	1.222999e+00	1.223009e+00	1.223272e+00	1.222772e+00	1.222841e+00	1.222936e+00	1.223038e+00	1.222828e+00	1.223127e+00	1.223121e+00	1.223246e+00	1.223151e+00	1.223217e+00	1.223424e+00	1.223305e+00	1.222835e+00	1.223017e+00	1.223240e+00	1.222743e+00	1.222921e+00	1.223392e+00	1.223484e+00	1.223485e+00	1.223418e+00	1.223556e+00	1.223626e+00	1.223521e+00	1.223597e+00	1.223609e+00	1.223062e+00	1.222968e+00	1.223097e+00	1.223488e+00	1.223144e+00	1.223165e+00	1.220946e+00	1.221519e+00	1.222743e+00	1.222689e+00	1.223406e+00	1.223678e+00	1.223662e+00	1.223709e+00	1.223728e+00	1.223737e+00	1.223626e+00	1.223050e+00	1.222858e+00	1.223157e+00	1.223495e+00	1.223186e+00	1.221630e+00	1.223110e+00	1.222533e+00	1.222663e+00	1.222460e+00	1.222931e+00	1.223086e+00	1.222981e+00	1.223126e+00	1.223668e+00	1.223726e+00	1.223747e+00	1.223721e+00	1.223661e+00	1.222538e+00	1.223455e+00	1.223449e+00	1.223297e+00	1.223215e+00	1.223039e+00	1.223183e+00	1.223241e+00	1.223284e+00	1.223628e+00	1.223170e+00	1.223216e+00	1.222985e+00	1.223702e+00	1.223790e+00	1.223815e+00	1.223900e+00	1.223571e+00	1.223529e+00	1.223668e+00	1.223281e+00	1.223366e+00	1.223123e+00	1.223765e+00	1.223364e+00	1.222831e+00	1.223032e+00	1.222795e+00	1.222771e+00	1.222930e+00	1.222758e+00	1.222768e+00	1.223847e+00	1.223483e+00	1.223520e+00	1.223501e+00	1.223559e+00	1.223547e+00	1.223599e+00	1.223809e+00	1.223089e+00	1.223464e+00	1.223413e+00	1.223329e+00	1.223365e+00	1.223385e+00	1.223603e+00	1.222800e+00	1.223406e+00	1.223730e+00	1.223218e+00	1.223243e+00	1.223283e+00	1.223562e+00	1.223091e+00	1.223099e+00	1.222775e+00	1.223287e+00	1.223300e+00	1.223622e+00	1.223325e+00	1.223197e+00	1.222866e+00	1.223541e+00	1.223888e+00	1.223406e+00	1.223865e+00	1.223892e+00	1.223041e+00	1.222770e+00	1.223543e+00	1.223580e+00	1.222588e+00	1.223649e+00	1.222827e+00	1.223781e+00	1.223799e+00	1.223676e+00	1.223774e+00	1.223697e+00	1.223266e+00	1.223435e+00	1.223110e+00	1.223378e+00	1.223639e+00	1.223397e+00	1.223736e+00	1.223924e+00	1.223190e+00	1.223084e+00	1.223816e+00	1.222857e+00	1.223340e+00	1.223954e+00	1.223547e+00	1.223022e+00	1.223166e+00	1.223361e+00	1.223744e+00	1.223694e+00	1.222922e+00	1.223313e+00	1.222969e+00	1.223213e+00	1.223616e+00	1.223243e+00	1.223684e+00	1.223045e+00	1.223601e+00	1.223969e+00	1.223085e+00	1.223345e+00	1.223774e+00	1.223725e+00	1.223331e+00	1.223665e+00	1.223392e+00	1.223715e+00	1.223317e+00	1.222905e+00	1.223309e+00	1.223868e+00	1.223298e+00	1.223225e+00	1.223743e+00	1.223197e+00	1.223922e+00	1.223721e+00	1.223515e+00	1.222776e+00	1.222875e+00	1.223181e+00	1.225667e+00	1.223131e+00	1.223853e+00	1.223257e+00	1.223387e+00	1.223265e+00	1.223902e+00	1.223615e+00	1.223622e+00	1.223579e+00	1.223502e+00	1.222665e+00	1.222971e+00	1.223464e+00	1.222855e+00	1.223232e+00	1.223287e+00	1.223730e+00	1.223298e+00	1.223244e+00	1.223840e+00	1.223536e+00	1.223503e+00	1.223079e+00	1.223540e+00	1.222764e+00	1.223147e+00	1.223838e+00	1.223172e+00	1.223361e+00	1.223230e+00	1.223354e+00	1.223706e+00	1.223137e+00	1.223260e+00	1.223609e+00	1.222877e+00	1.223711e+00	1.223146e+00	1.222285e+00	1.223724e+00	1.223645e+00	1.223103e+00	1.223342e+00	1.222272e+00	1.223577e+00	1.223098e+00	1.223576e+00	1.223759e+00	1.225581e+00	1.223847e+00	1.223702e+00	1.223225e+00	1.223163e+00	1.223560e+00	1.223413e+00	1.223711e+00	1.223038e+00	1.223878e+00	1.222985e+00	1.222896e+00	1.223561e+00	1.222957e+00	1.223557e+00	1.223274e+00	1.223768e+00	1.223688e+00	1.223674e+00	1.223236e+00	1.223249e+00	1.223926e+00	1.223424e+00	1.223490e+00	1.223125e+00	1.223431e+00	1.222659e+00	1.223355e+00	1.223154e+00	1.223267e+00	1.223454e+00	1.223716e+00	1.222912e+00	1.223376e+00	1.222655e+00	1.223265e+00	1.222854e+00	1.223540e+00	1.222749e+00	
SCALARS X-Momentum float 1
LOOKUP_TABLE default
8.927132e+00	4.441800e-01	7.074324e+00	-2.673713e-01	-5.747923e-01	-4.108150e+00	1.616175e+01	1.040179e+01	1.027904e+01	1.008860e+01	9.853160e+00	9.580967e+00	9.328209e+00	9.089051e+00	8.785894e+00	8.499949e+00	8.070108e+00	7.507187e+00	6.861591e+00	6.112713e+00	5.251642e+00	4.397339e+00	3.379826e+00	2.355188e+00	1.324265e+00	1.160594e-01	5.814278e-01	1.242981e+00	2.002018e+00	2.818041e+00	3.613716e+00	4.355866e+00	5.057087e+00	5.697712e+00	6.125665e+00	6.048575e+00	5.589812e+00	3.533712e+00	9.150980e-01	1.163867e+00	1.711157e+00	2.054653e+00	2.251792e+00	2.312325e+00	2.181150e+00	1.891732e+00	1.505226e+00	1.050497e+00	6.246808e-01	2.823339e-01	-1.896839e+00	-3.443002e+00	-4.734534e+00	-5.856038e+00	-6.742146e+00	-7.408776e+00	-7.871996e+00	-8.097446e+00	-7.653198e+00	-6.752323e+00	-5.777788e+00	-2.413168e-01	5.204206e+00	1.044692e+01	1.416952e+01	1.595723e+01	1.636068e+01	1.547328e+01	1.461446e+01	1.367475e+01	1.288996e+01	1.223871e+01	1.167963e+01	1.119001e+01	1.078860e+01	1.052333e+01	6.251968e+00	1.995632e+00	7.974012e+00	-5.451335e+00	2.221052e+00	5.233786e+00	5.988974e+00	-5.186699e+00	9.796161e+00	1.250790e+01	1.135695e+01	1.378531e+01	1.219510e+00	3.103111e+00	4.064783e+00	-3.900089e+00	2.302370e+00	6.276572e+00	1.105670e-01	1.791748e+00	1.395728e+00	9.097528e+00	1.052441e+01	1.543534e+01	1.908490e+00	-1.801109e+00	-2.796413e+00	8.800798e+00	7.507870e+00	1.079872e+01	1.393105e+01	1.271895e+01	8.758551e+00	1.140318e+01	1.417956e+01	1.321208e+01	1.001802e+01	1.190209e+01	8.383935e+00	1.012101e+01	1.351727e+01	1.260408e+01	1.449178e+01	1.420587e+01	1.457652e+01	1.422887e+01	1.381063e+01	1.311670e+01	6.489773e+00	1.497626e+01	1.423764e+01	4.880371e+00	3.940789e+00	1.270800e+01	1.189144e+01	1.193141e+01	1.102815e+01	1.069282e+01	1.031293e+01	1.061751e+01	9.799097e+00	9.680837e+00	4.697730e+00	2.945257e+00	2.258916e+00	1.180485e+01	2.009489e+00	1.390591e+01	5.391922e+00	2.089414e+00	6.401964e+00	4.349249e+00	1.247446e+01	9.086896e+00	9.204626e+00	9.010087e+00	8.276448e+00	8.032303e+00	9.678043e+00	9.169526e-01	1.139944e+00	1.029983e+00	1.132450e+01	1.533448e+01	9.792811e+00	1.064821e+01	1.950910e+00	3.795362e+00	7.205941e+00	2.532737e+00	-6.422734e-01	-2.441267e-01	1.192507e+01	8.634184e+00	7.646490e+00	7.116021e+00	6.527860e+00	9.327052e+00	6.165331e+00	1.173609e+01	1.228876e+01	2.107579e+00	1.149624e+00	1.277849e+01	-2.029194e-01	-3.519259e-02	1.519742e+01	9.713682e+00	1.524005e+01	-1.543686e+00	-2.833329e+00	8.890933e+00	6.208708e+00	6.769216e+00	5.478691e+00	8.176949e+00	9.229115e+00	9.431101e+00	2.141904e+00	2.712474e+00	-1.740742e+00	5.603484e+00	1.483554e+01	-1.465840e+00	9.706135e-01	-7.747361e-01	2.404462e+00	8.276780e-01	9.989986e+00	8.945547e+00	5.356314e+00	1.008890e+01	1.117086e+01	1.124234e+01	1.076187e+01	1.086410e+01	1.039252e+01	4.512607e+00	1.243006e+01	1.320674e+01	1.122070e+01	1.318431e+01	1.281786e+01	1.378103e+01	1.008039e+01	3.365926e+00	1.208479e+01	7.174989e+00	-1.221693e+00	2.441346e-01	-7.527994e-01	1.070798e+01	9.555641e+00	1.548590e+01	7.741906e+00	1.524494e+01	1.444881e+01	1.004032e+01	1.263609e+00	1.349268e+00	-5.617286e+00	7.414608e+00	4.791240e+00	1.289539e+01	4.541511e+00	3.570021e+00	2.680688e+00	3.770108e+00	1.058789e+01	1.025885e+01	1.205772e+01	9.378142e+00	9.343409e+00	7.433733e+00	7.955377e+00	8.391312e+00	7.433562e+00	8.085232e+00	1.524324e+01	1.312668e+01	2.744467e+00	1.140215e+01	7.992086e+00	2.673147e+00	6.515787e+00	5.124148e+00	-4.667006e+00	-5.409315e+00	6.780315e+00	-4.574387e+00	-2.924580e+00	2.972744e+00	1.088342e+01	1.353725e+01	1.604135e+01	2.022959e+00	8.450695e+00	8.826656e+00	4.196903e+00	2.407497e+00	2.330171e+00	1.503455e+01	1.002613e+01	1.456838e+01	5.659683e+00	1.298034e+00	1.026605e+01	6.599342e+00	-3.414692e+00	1.423180e+01	6.693430e+00	5.801106e+00	2.124868e+00	9.157310e+00	2.305119e+00	4.651987e+00	1.988552e+00	2.589212e+00	1.653450e+00	2.380523e+00	7.103604e-01	3.704286e-01	3.884042e+00	-1.198525e+00	2.555987e+00	7.491833e+00	1.015085e+01	2.059365e-01	5.835181e+00	4.772855e+00	8.424760e+00	-3.887659e-01	6.010992e+00	2.575179e+00	8.736292e+00	-4.272623e-01	1.265173e+00	9.760479e+00	9.973225e+00	9.421131e+00	1.129945e+01	1.125683e+01	6.241268e+00	1.169257e+01	2.806568e+00	1.467614e+01	1.349755e+01	8.651012e+00	1.567275e+01	1.468574e+01	4.002903e+00	1.112116e+01	1.188522e+01	1.484784e+01	1.058947e+01	3.627847e+00	1.434314e+01	3.687293e+00	-2.834106e+00	1.478702e+01	-2.189282e+00	1.336219e+01	9.053761e+00	-3.248162e+00	1.369484e+01	1.014026e+01	2.797812e+00	8.437804e+00	-2.635923e+00	-2.743820e+00	8.958118e+00	7.222120e+00	7.656732e+00	1.232585e+01	8.324277e+00	1.022983e+01	1.125653e+01	1.037022e+01	4.610816e+00	6.893259e+00	3.408633e+00	8.722576e+00	-1.523047e-01	1.289026e+01	1.037810e+01	1.234757e+01	6.362242e+00	1.595203e+01	2.753298e+00	-3.376610e+00	-1.784820e+00	1.039240e+01	-1.847252e+00	1.097651e+01	1.265820e+01	7.201904e+00	8.891713e+00	9.643269e+00	1.001062e+00	1.869219e+00	9.065848e-01	-7.887164e-01	1.394241e+01	1.476064e+01	6.819492e+00	1.312990e+01	9.592473e+00	1.536277e+01	2.232084e+00	1.165204e+01	7.691480e+00	7.438734e+00	2.636467e+00	5.413986e+00	1.372936e+01	9.479424e+00	5.860914e+00	7.156832e+00	
SCALARS Y-Momentum float 1
LOOKUP_TABLE default
-1.786216e-02	4.385394e-01	4.740543e+00	-8.982550e-01	5.421281e-01	2.363665e-01	6.162016e-02	-1.202452e-02	1.379964e-02	3.987237e-02	5.496909e-02	7.149945e-02	5.974990e-02	1.052022e-02	-3.311545e-03	-6.715477e-05	7.204780e-03	6.370914e-03	1.238186e-02	1.499614e-02	1.762819e-03	3.038650e-02	1.347480e-02	8.115328e-03	-3.529535e-02	1.432744e+00	2.569429e+00	3.614467e+00	4.633526e+00	5.530834e+00	6.290382e+00	6.932105e+00	7.501913e+00	8.078571e+00	8.431202e+00	8.396395e+00	8.321245e+00	-2.847584e+00	8.483703e-01	1.558041e+00	2.247245e+00	2.809049e+00	3.189531e+00	3.430508e+00	3.497632e+00	3.392905e+00	3.139869e+00	2.732265e+00	2.203695e+00	1.454667e+00	1.587906e-04	3.854799e-02	2.594453e-02	9.200533e-03	2.444266e-03	5.877028e-03	9.607494e-03	4.166506e-03	-3.850294e-02	-6.320104e-02	-1.021916e-01	-5.292694e-01	-4.801974e-01	3.484412e-02	7.172741e-01	9.021722e-01	5.157778e-01	9.731732e-03	-9.915250e-04	-9.768709e-03	-3.951439e-02	-2.636214e-02	-5.794838e-03	-5.820837e-03	1.387957e-03	-3.469930e-03	8.671470e+00	2.019910e+00	4.951769e-01	-1.989569e-01	3.045781e+00	6.618894e+00	9.114384e-01	4.063021e-01	3.665124e-01	3.691608e-01	4.137500e-01	8.316270e-01	2.894385e+00	4.581710e+00	1.050599e+00	5.911628e-01	2.607415e+00	7.666675e+00	2.127531e+00	2.824079e+00	-8.543610e-01	3.124525e-01	2.370122e-01	8.318408e-01	9.351379e-01	8.235830e-01	-6.290187e-01	2.400445e-01	-4.632832e-01	6.916475e-02	9.173958e-01	8.322241e-01	2.973892e-02	7.828962e-01	1.628549e+00	1.613173e+00	9.090818e-01	1.661598e+00	1.193073e+00	1.770385e+00	2.607523e+00	2.827293e+00	3.654081e+00	4.128160e+00	4.309387e+00	4.986544e+00	4.229272e+00	4.850579e+00	1.447268e+00	2.318132e+00	3.656104e+00	1.284930e+00	1.874297e+00	3.530266e+00	3.611349e+00	4.952336e+00	3.417044e+00	4.202329e+00	3.007413e+00	2.550643e+00	3.498935e+00	2.484638e+00	1.965261e+00	2.595010e+00	2.215880e+00	2.625731e+00	2.716672e+00	4.796047e+00	-1.442971e-01	1.847619e-01	9.606689e-01	8.546341e-01	2.510807e+00	2.690553e+00	1.967754e+00	3.774476e+00	2.558926e+00	3.534006e+00	1.816433e+00	2.086277e+00	1.671758e+00	2.302275e+00	6.031764e+00	2.007501e+00	4.802435e+00	4.134502e+00	1.778072e+00	1.790478e+00	1.731699e+00	2.788768e+00	1.395937e+00	9.097846e-01	7.494454e+00	4.876270e+00	4.556207e+00	3.335756e+00	4.225241e+00	1.418328e+00	1.777683e+00	1.843993e+00	1.649314e+00	2.854019e+00	2.382094e+00	6.506430e+00	1.838702e+00	1.975804e+00	2.341695e+00	1.303926e+00	1.873006e+00	1.382569e+00	6.007503e-01	1.432733e+00	2.959251e+00	2.410207e+00	3.439173e+00	6.296503e+00	6.462000e+00	9.105133e-01	2.777306e+00	3.137151e+00	1.273222e+00	4.593410e+00	3.233722e+00	3.116302e-01	3.345034e-01	-7.588231e-02	-1.806905e-01	-6.602731e-01	2.446650e+00	1.984668e+00	2.310039e+00	4.779593e+00	1.912282e+00	1.353157e+00	1.392429e+00	9.690993e-01	9.732042e-01	3.807145e+00	8.101518e+00	7.148101e+00	9.015325e+00	2.352035e+00	1.310384e+00	2.039510e+00	1.609377e+00	2.627593e+00	9.359255e-01	5.573684e+00	1.590937e+00	2.263223e+00	1.865642e+00	8.904500e+00	9.517578e+00	1.706509e+00	3.412068e-01	1.099858e+00	1.799100e+00	1.138730e+00	2.534233e+00	2.750388e+00	9.645159e-02	6.983134e+00	4.977918e+00	6.214562e-01	2.665861e+00	2.902122e+00	3.192562e+00	-9.101756e-01	5.909884e-01	5.697666e-01	3.157245e+00	4.357920e-01	1.794811e+00	6.242477e-01	1.081262e+00	8.269958e-01	1.413165e+00	1.706504e+00	1.435682e+00	5.871965e+00	3.328979e+00	7.834100e+00	7.936779e+00	2.792057e+00	6.499938e+00	1.156927e+00	4.737669e-01	3.029011e-01	7.662902e-01	-3.954697e-01	7.605614e-01	1.045789e+00	3.119153e-01	5.686447e+00	1.042023e+00	2.789175e+00	3.789840e-01	6.312379e-01	3.583632e-01	2.777878e+00	2.750584e+00	2.910828e+00	3.397317e-01	7.818678e-01	5.751559e+00	1.611615e+00	2.519650e-01	8.369597e+00	7.944054e-01	2.913526e+00	1.578893e+00	7.133829e+00	2.237455e+00	6.636009e-01	2.860074e+00	5.988817e+00	3.108740e+00	1.057717e+00	3.063842e+00	3.759623e+00	2.596069e+00	2.419210e+00	5.291616e+00	1.542448e+00	2.102700e+00	2.611097e+00	8.122693e+00	-8.888100e-01	1.881739e+00	-5.424076e-01	2.458713e+00	1.677996e+00	1.906705e+00	2.660941e+00	9.908495e+00	1.553513e+00	1.790535e+00	9.326727e-01	7.120191e-01	5.077998e+00	8.704591e-01	3.690700e+00	8.170520e-01	1.206915e+00	1.697225e+00	2.496470e+00	1.302983e+00	1.920563e+00	1.428996e+00	1.398481e+00	4.436992e+00	2.569125e+00	4.119593e-01	1.532750e+00	1.906005e+00	2.376011e+00	2.451647e+00	1.970984e+00	9.966512e-01	3.465153e+00	1.240264e+00	3.271261e+00	1.004726e+00	8.639664e-01	6.243637e+00	2.200852e+00	3.175594e+00	1.314949e+00	-4.061948e-01	-4.929217e-01	1.054097e-01	8.360285e+00	9.441938e+00	7.444748e+00	1.875760e+00	6.402760e+00	2.481514e+00	1.375727e+00	1.836691e+00	9.843832e+00	3.758051e+00	1.006726e+00	2.126271e+00	3.987124e+00	9.944046e-02	5.902899e-01	5.250509e+00	4.948418e-01	3.081256e+00	4.596080e-02	-7.197076e-01	4.151689e-01	1.138483e+00	6.295005e-01	6.481579e+00	2.014203e+00	8.119624e+00	5.804252e-01	2.688094e+00	2.838685e+00	8.221985e-01	8.296358e-01	5.742181e+00	3.809357e+00	7.553540e+00	3.390378e+00	4.214469e+00	1.447634e+00	2.851784e+00	7.224622e-01	2.038814e+00	-5.377087e-01	2.879634e+00	-8.770415e-02	3.067858e+00	7.033528e+00	6.408252e+00	1.566689e+00	
SCALARS Energy float 1
LOOKUP_TABLE default