# vtk DataFile Version 3.0
vtk output
ASCII
DATASET UNSTRUCTURED_GRID
POINTS 394 float
-3.000000e+00	0.000000e+00	0.0	-5.000000e-02	4.570984e-17	0.0	4.428307e-01	1.033255e+00	0.0	5.428862e-01	9.672084e-01	0.0	5.000000e-02	-1.080526e-17	0.0	3.000000e+00	0.000000e+00	0.0	3.000000e+00	4.000000e+00	0.0	-3.000000e+00	4.000000e+00	0.0	-3.000000e+00	3.428571e+00	0.0	-3.000000e+00	2.857143e+00	0.0	-3.000000e+00	2.285714e+00	0.0	-3.000000e+00	1.714286e+00	0.0	-3.000000e+00	1.142857e+00	0.0	-3.000000e+00	5.714286e-01	0.0	-2.473871e+00	0.000000e+00	0.0	-2.029066e+00	0.000000e+00	0.0	-1.653013e+00	0.000000e+00	0.0	-1.335087e+00	0.000000e+00	0.0	-1.066302e+00	0.000000e+00	0.0	-8.390627e-01	0.000000e+00	0.0	-6.469477e-01	0.000000e+00	0.0	-4.845277e-01	0.000000e+00	0.0	-3.472127e-01	0.000000e+00	0.0	-2.311224e-01	0.000000e+00	0.0	-1.329760e-01	0.000000e+00	0.0	-4.339796e-02	8.371674e-02	0.0	-2.774544e-02	1.665765e-01	0.0	-3.756321e-03	2.484211e-01	0.0	2.703552e-02	3.293498e-01	0.0	6.328912e-02	4.094655e-01	0.0	1.038231e-01	4.888761e-01	0.0	1.476304e-01	5.676976e-01	0.0	1.938904e-01	6.460414e-01	0.0	2.419449e-01	7.240034e-01	0.0	2.912708e-01	8.016518e-01	0.0	3.414169e-01	8.790538e-01	0.0	3.920882e-01	9.562069e-01	0.0	4.928596e-01	1.000281e+00	0.0	4.920258e-01	8.903580e-01	0.0	4.414115e-01	8.136087e-01	0.0	3.912517e-01	7.370862e-01	0.0	3.419314e-01	6.608244e-01	0.0	2.938807e-01	5.848804e-01	0.0	2.476267e-01	5.093280e-01	0.0	2.038253e-01	4.342625e-01	0.0	1.632982e-01	3.597965e-01	0.0	1.270507e-01	2.860463e-01	0.0	9.626489e-02	2.131208e-01	0.0	7.228684e-02	1.411155e-01	0.0	5.655220e-02	7.009402e-02	0.0	1.329760e-01	0.000000e+00	0.0	2.311224e-01	0.000000e+00	0.0	3.472127e-01	0.000000e+00	0.0	4.845277e-01	0.000000e+00	0.0	6.469477e-01	0.000000e+00	0.0	8.390627e-01	0.000000e+00	0.0	1.066302e+00	0.000000e+00	0.0	1.335087e+00	0.000000e+00	0.0	1.653013e+00	0.000000e+00	0.0	2.029066e+00	0.000000e+00	0.0	2.473871e+00	0.000000e+00	0.0	3.000000e+00	5.714286e-01	0.0	3.000000e+00	1.142857e+00	0.0	3.000000e+00	1.714286e+00	0.0	3.000000e+00	2.285714e+00	0.0	3.000000e+00	2.857143e+00	0.0	3.000000e+00	3.428571e+00	0.0	2.400000e+00	4.000000e+00	0.0	1.800000e+00	4.000000e+00	0.0	1.200000e+00	4.000000e+00	0.0	6.000000e-01	4.000000e+00	0.0	0.000000e+00	4.000000e+00	0.0	-6.000000e-01	4.000000e+00	0.0	-1.200000e+00	4.000000e+00	0.0	-1.800000e+00	4.000000e+00	0.0	-2.400000e+00	4.000000e+00	0.0	2.650750e-01	9.407989e-01	0.0	5.140567e-01	8.357870e-01	0.0	-1.460163e+00	2.937409e-01	0.0	1.544672e+00	1.816653e-01	0.0	3.145290e-01	5.279447e-01	0.0	7.990024e-02	6.305328e-01	0.0	-7.230030e-01	2.064780e-01	0.0	7.865034e-01	1.146366e-01	0.0	-2.536277e+00	2.108082e+00	0.0	2.616521e+00	1.902210e+00	0.0	-8.185120e-01	3.527254e+00	0.0	1.057064e+00	3.444415e+00	0.0	2.036601e-01	3.115635e-01	0.0	-3.583103e-02	3.833346e-01	0.0	-3.991456e-01	1.416987e-01	0.0	4.395077e-01	8.315794e-02	0.0	4.127717e-01	6.777482e-01	0.0	1.674364e-01	7.882657e-01	0.0	1.578367e-01	1.722260e-01	0.0	-8.907886e-02	2.195656e-01	0.0	2.575750e+00	7.524978e-01	0.0	-2.475802e+00	8.263511e-01	0.0	-2.009760e+00	3.475010e+00	0.0	2.137855e+00	3.414857e+00	0.0	-1.767085e-01	8.802409e-02	0.0	1.938317e-01	6.253798e-02	0.0	2.267561e+00	3.438643e-01	0.0	-2.236574e+00	3.839428e-01	0.0	2.571700e+00	1.340186e+00	0.0	2.254447e+00	1.628752e+00	0.0	2.240085e+00	2.057269e+00	0.0	1.946903e+00	1.781053e+00	0.0	1.915740e+00	1.363075e+00	0.0	1.681481e+00	1.567772e+00	0.0	1.658194e+00	1.929247e+00	0.0	1.448033e+00	1.713172e+00	0.0	1.447716e+00	1.401911e+00	0.0	1.257243e+00	1.530234e+00	0.0	1.253970e+00	1.271533e+00	0.0	1.082330e+00	1.358101e+00	0.0	1.063491e+00	1.635303e+00	0.0	9.138343e-01	1.495618e+00	0.0	8.712703e-01	1.742516e+00	0.0	7.263357e-01	1.631936e+00	0.0	6.698929e-01	1.853698e+00	0.0	5.308434e-01	1.741080e+00	0.0	4.486408e-01	1.966185e+00	0.0	2.982757e-01	1.810153e+00	0.0	1.098995e+00	1.137141e+00	0.0	1.391922e+00	2.064803e+00	0.0	6.461954e-01	2.121599e+00	0.0	1.214464e+00	1.016158e+00	0.0	1.055516e+00	9.456335e-01	0.0	1.833220e-01	2.092417e+00	0.0	-2.991314e-02	1.951756e+00	0.0	8.836391e-02	1.678749e+00	0.0	-2.668381e-01	1.814524e+00	0.0	-1.894107e-01	1.580875e+00	0.0	-5.034279e-01	1.662833e+00	0.0	-5.327053e-01	1.895897e+00	0.0	-4.451742e-01	1.426680e+00	0.0	-7.734881e-01	1.499047e+00	0.0	9.576694e-01	1.036755e+00	0.0	9.147282e-01	8.640069e-01	0.0	1.003438e+00	7.670381e-01	0.0	-1.293573e-01	2.237911e+00	0.0	8.486779e-01	6.901265e-01	0.0	5.880315e-01	1.510026e+00	0.0	4.984262e-01	1.053446e+00	0.0	5.589664e-01	1.014404e+00	0.0	5.276833e-01	1.100058e+00	0.0	5.934476e-01	1.080953e+00	0.0	1.186872e-01	2.405322e+00	0.0	-7.362404e-01	1.237606e+00	0.0	-1.063650e+00	1.312112e+00	0.0	-4.210064e-01	1.166576e+00	0.0	-7.701788e-01	9.584003e-01	0.0	-4.748134e-01	9.381375e-01	0.0	-1.105639e+00	1.608951e+00	0.0	9.371133e-01	5.948054e-01	0.0	1.104788e+00	6.641178e-01	0.0	7.752245e-01	5.366974e-01	0.0	7.701430e-02	1.450628e+00	0.0	1.609826e+00	2.300548e+00	0.0	4.501359e-01	1.118144e+00	0.0	4.894532e-01	1.179385e+00	0.0	6.128064e-01	9.868477e-01	0.0	6.640824e-01	1.059640e+00	0.0	6.320024e-01	1.155479e+00	0.0	6.777321e-01	9.539018e-01	0.0	1.033393e+00	4.919600e-01	0.0	1.237501e+00	5.813713e-01	0.0	3.884391e-01	1.197462e+00	0.0	-2.194106e-01	1.052895e+00	0.0	-2.613523e-01	8.750870e-01	0.0	-4.768827e-01	7.344337e-01	0.0	-2.682552e-01	7.003482e-01	0.0	-1.413161e+00	1.396161e+00	0.0	7.255484e-01	1.143967e+00	0.0	-2.358453e-01	2.555941e+00	0.0	3.198668e-02	2.765977e+00	0.0	6.968537e-01	6.150982e-01	0.0	6.203598e-01	4.781911e-01	0.0	4.403836e-01	1.277041e+00	0.0	6.987846e-01	4.011791e-01	0.0	5.426727e-01	3.526945e-01	0.0	1.309217e+00	2.452044e+00	0.0	-1.466710e+00	1.727589e+00	0.0	1.539698e+00	2.695177e+00	0.0	6.179714e-01	2.782581e-01	0.0	1.140642e+00	3.344634e-01	0.0	-1.358094e+00	1.100862e+00	0.0	-4.649471e-01	5.512389e-01	0.0	-6.333480e-01	5.811981e-01	0.0	-3.136531e-01	5.104431e-01	0.0	-2.839733e-02	9.927683e-01	0.0	-2.112399e-02	1.141296e+00	0.0	-1.886773e+00	1.492167e+00	0.0	5.500586e-01	5.544592e-01	0.0	6.359691e-01	6.899220e-01	0.0	7.858309e-01	3.212230e-01	0.0	-1.577786e-01	6.065111e-01	0.0	1.000667e+00	1.920438e+00	0.0	1.372280e+00	4.968418e-01	0.0	1.441569e+00	7.031176e-01	0.0	1.596745e+00	5.689242e-01	0.0	1.681493e+00	8.386390e-01	0.0	1.901867e+00	7.108123e-01	0.0	6.712480e-01	1.254490e+00	0.0	7.812446e-01	1.239933e+00	0.0	-4.598023e-01	3.766130e-01	0.0	-1.756635e-01	1.389107e+00	0.0	-5.038578e-01	2.355367e+00	0.0	-6.363297e-01	2.703180e+00	0.0	-9.340293e-01	2.491384e+00	0.0	-1.059586e+00	2.842103e+00	0.0	-1.441852e+00	2.526904e+00	0.0	-1.841978e-01	4.517058e-01	0.0	3.150955e-01	1.292453e+00	0.0	3.626942e-01	1.393499e+00	0.0	2.682607e-01	1.203185e+00	0.0	4.306425e-01	2.564673e+00	0.0	3.437176e-01	3.028368e+00	0.0	7.218821e-01	2.763888e+00	0.0	-1.148358e+00	1.937792e+00	0.0	8.362193e-01	9.540901e-01	0.0	-1.203095e-01	3.180882e+00	0.0	-9.529064e-02	8.349528e-01	0.0	4.659308e-01	2.394832e-01	0.0	3.766976e-01	3.049605e-01	0.0	3.298080e-01	2.109200e-01	0.0	3.416386e-01	1.129952e+00	0.0	2.286455e-01	1.112579e+00	0.0	1.874524e+00	2.545711e+00	0.0	1.613325e+00	1.245594e+00	0.0	2.551883e+00	2.476811e+00	0.0	1.137860e+00	2.880330e+00	0.0	-1.530184e+00	2.089663e+00	0.0	4.568381e-01	4.216311e-01	0.0	3.290808e-01	3.838761e-01	0.0	1.250422e+00	1.619927e-01	0.0	5.790418e-02	9.015243e-01	0.0	-7.538737e-02	5.323470e-01	0.0	4.977333e-01	3.523463e+00	0.0	-3.159402e-01	3.519119e-01	0.0	-2.031181e-01	3.152505e-01	0.0	7.768844e-01	7.927367e-01	0.0	2.240127e+00	9.812006e-01	0.0	-1.562907e+00	3.051915e+00	0.0	-1.923045e+00	2.705539e+00	0.0	7.182856e-01	1.371691e+00	0.0	-2.440759e+00	1.350243e+00	0.0	9.306302e-01	1.288509e+00	0.0	-1.171642e+00	2.661544e-01	0.0	-1.254428e+00	5.517038e-01	0.0	-1.544989e+00	6.001551e-01	0.0	-9.787331e-01	5.304150e-01	0.0	-1.054516e+00	7.954663e-01	0.0	1.801499e+00	3.008983e+00	0.0	3.078466e-01	1.626087e+00	0.0	6.842862e-01	8.295255e-01	0.0	1.783774e-01	1.300498e+00	0.0	1.041606e-01	9.896412e-01	0.0	5.629943e-01	7.587110e-01	0.0	2.740759e-02	7.746046e-01	0.0	-5.399254e-01	2.098169e-01	0.0	5.953726e-01	9.232493e-02	0.0	1.012716e+00	1.487973e-01	0.0	-9.308855e-01	2.385962e-01	0.0	1.870627e+00	2.283672e-01	0.0	3.091560e-01	7.254262e-02	0.0	-2.728947e-01	1.137487e-01	0.0	-1.412127e+00	3.543702e+00	0.0	5.017429e-01	1.376822e+00	0.0	2.577562e+00	3.090636e+00	0.0	4.322802e-01	5.016910e-01	0.0	-1.812952e+00	3.361781e-01	0.0	-1.923074e+00	7.529776e-01	0.0	1.529728e+00	9.686232e-01	0.0	4.660033e-01	6.040491e-01	0.0	6.082262e-01	8.788583e-01	0.0	1.096086e+00	2.205969e+00	0.0	-2.481274e+00	2.553605e+00	0.0	1.552046e+00	3.497105e+00	0.0	-2.957351e-02	6.606560e-01	0.0	5.597427e-01	9.263261e-01	0.0	-2.411874e+00	3.089773e+00	0.0	2.147876e-01	8.636446e-01	0.0	9.082788e-01	2.407087e-01	0.0	7.722521e-01	2.406813e+00	0.0	-7.756024e-01	4.005113e-01	0.0	1.202981e-01	7.103377e-01	0.0	4.624106e-01	7.540217e-01	0.0	-2.084026e+00	1.120639e+00	0.0	3.620055e-01	6.061274e-01	0.0	3.135202e-02	5.597666e-01	0.0	2.754233e-01	4.539635e-01	0.0	1.299040e+00	8.142397e-01	0.0	2.362998e-01	3.798823e-01	0.0	-6.232432e-02	2.991580e-01	0.0	1.745396e-01	2.415659e-01	0.0	2.648898e-01	2.626608e-01	0.0	-7.798689e-03	4.693284e-01	0.0	2.490933e-01	1.356856e-01	0.0	-1.869321e-01	2.008395e-01	0.0	-6.864105e-01	7.503318e-01	0.0	1.316514e-01	1.193591e+00	0.0	2.199004e+00	6.528670e-01	0.0	8.497680e-01	1.117602e+00	0.0	1.952495e+00	1.039253e+00	0.0	4.464092e-01	1.071732e+00	0.0	8.633044e-01	4.521518e-01	0.0	-6.019127e-01	3.909776e-01	0.0	5.000053e-01	6.993242e-01	0.0	3.073918e-01	1.060436e+00	0.0	1.304371e-01	1.027188e-01	0.0	-1.036109e-01	1.307756e-01	0.0	-1.814940e+00	1.861234e+00	0.0	-1.972315e+00	2.234706e+00	0.0	-1.740669e-01	1.217684e+00	0.0	-7.389982e-01	3.092471e+00	0.0	5.462175e-01	1.249699e+00	0.0	1.398036e+00	1.118711e+00	0.0	-3.638023e-01	2.931580e+00	0.0	1.138188e+00	8.380293e-01	0.0	1.012253e+00	2.541397e+00	0.0	7.604652e-01	3.128311e+00	0.0	-1.057083e+00	1.037486e+00	0.0	2.197098e+00	2.821084e+00	0.0	1.432615e+00	3.105440e+00	0.0	-9.642554e-02	4.433
[...]
POINT_DATA 394

SCALARS Density float 1
LOOKUP_TABLE default
1.223705e+00	1.223930e+00	1.221382e+00	1.221859e+00	1.223303e+00	1.223557e+00	1.223280e+00	1.223580e+00	1.223564e+00	1.223576e+00	1.223617e+00	1.223643e+00	1.223706e+00	1.223712e+00	1.223723e+00	1.223713e+00	1.223743e+00	1.223762e+00	1.223804e+00	1.223830e+00	1.223848e+00	1.223917e+00	1.223884e+00	1.224001e+00	1.223876e+00	1.224051e+00	1.223883e+00	1.223889e+00	1.223870e+00	1.223822e+00	1.223792e+00	1.223734e+00	1.223718e+00	1.223623e+00	1.223706e+00	1.222898e+00	1.224837e+00	1.219520e+00	1.223758e+00	1.223285e+00	1.223327e+00	1.223316e+00	1.223257e+00	1.223219e+00	1.223201e+00	1.223193e+00	1.223205e+00	1.223234e+00	1.223160e+00	1.223359e+00	1.223156e+00	1.223251e+00	1.223184e+00	1.223129e+00	1.223091e+00	1.223059e+00	1.222980e+00	1.222973e+00	1.222985e+00	1.223136e+00	1.222670e+00	1.223294e+00	1.223038e+00	1.222870e+00	1.222816e+00	1.222949e+00	1.223098e+00	1.223107e+00	1.223247e+00	1.223281e+00	1.223362e+00	1.223410e+00	1.223488e+00	1.223538e+00	1.223569e+00	1.223570e+00	1.222885e+00	1.223676e+00	1.223752e+00	1.222934e+00	1.223257e+00	1.223699e+00	1.223832e+00	1.223025e+00	1.223613e+00	1.223301e+00	1.223507e+00	1.223305e+00	1.223207e+00	1.223839e+00	1.223908e+00	1.223128e+00	1.223401e+00	1.223485e+00	1.223276e+00	1.223906e+00	1.222955e+00	1.223705e+00	1.223589e+00	1.223130e+00	1.223958e+00	1.223231e+00	1.223080e+00	1.223697e+00	1.222955e+00	1.222847e+00	1.223094e+00	1.223083e+00	1.222970e+00	1.222977e+00	1.223001e+00	1.223254e+00	1.222746e+00	1.222819e+00	1.222891e+00	1.223008e+00	1.222819e+00	1.223131e+00	1.223110e+00	1.223249e+00	1.223155e+00	1.223220e+00	1.223431e+00	1.223309e+00	1.222801e+00	1.223011e+00	1.223244e+00	1.222682e+00	1.222861e+00	1.223398e+00	1.223488e+00	1.223490e+00	1.223424e+00	1.223565e+00	1.223637e+00	1.223528e+00	1.223608e+00	1.223616e+00	1.223013e+00	1.222911e+00	1.223031e+00	1.223492e+00	1.223071e+00	1.223168e+00	1.221011e+00	1.221498e+00	1.222688e+00	1.222672e+00	1.223405e+00	1.223687e+00	1.223671e+00	1.223721e+00	1.223737e+00	1.223751e+00	1.223634e+00	1.222974e+00	1.222785e+00	1.223079e+00	1.223503e+00	1.223190e+00	1.221589e+00	1.223103e+00	1.222540e+00	1.222628e+00	1.222448e+00	1.222901e+00	1.223010e+00	1.222912e+00	1.223115e+00	1.223688e+00	1.223737e+00	1.223766e+00	1.223738e+00	1.223666e+00	1.222523e+00	1.223459e+00	1.223449e+00	1.223225e+00	1.223137e+00	1.223049e+00	1.223100e+00	1.223161e+00	1.223285e+00	1.223633e+00	1.223174e+00	1.223139e+00	1.222905e+00	1.223710e+00	1.223808e+00	1.223828e+00	1.223909e+00	1.223600e+00	1.223549e+00	1.223673e+00	1.223206e+00	1.223287e+00	1.223039e+00	1.223798e+00	1.223365e+00	1.222766e+00	1.222968e+00	1.222729e+00	1.222718e+00	1.222875e+00	1.222744e+00	1.222740e+00	1.223866e+00	1.223493e+00	1.223521e+00	1.223503e+00	1.223563e+00	1.223548e+00	1.223604e+00	1.223826e+00	1.223101e+00	1.223466e+00	1.223421e+00	1.223327e+00	1.223366e+00	1.223392e+00	1.223608e+00	1.222754e+00	1.223405e+00	1.223760e+00	1.223136e+00	1.223162e+00	1.223195e+00	1.223607e+00	1.223076e+00	1.223096e+00	1.222735e+00	1.223289e+00	1.223297e+00	1.223626e+00	1.223242e+00	1.223117e+00	1.222791e+00	1.223566e+00	1.223916e+00	1.223404e+00	1.223882e+00	1.223909e+00	1.222977e+00	1.222735e+00	1.223544e+00	1.223581e+00	1.222582e+00	1.223652e+00	1.222816e+00	1.223791e+00	1.223809e+00	1.223684e+00	1.223784e+00	1.223708e+00	1.223263e+00	1.223459e+00	1.223052e+00	1.223393e+00	1.223650e+00	1.223335e+00	1.223767e+00	1.223935e+00	1.223109e+00	1.223010e+00	1.223827e+00	1.222795e+00	1.223259e+00	1.223969e+00	1.223548e+00	1.223017e+00	1.223165e+00	1.223289e+00	1.223750e+00	1.223700e+00	1.222863e+00	1.223244e+00	1.222907e+00	1.223216e+00	1.223617e+00	1.223242e+00	1.223715e+00	1.222993e+00	1.223603e+00	1.223986e+00	1.223007e+00	1.223343e+00	1.223788e+00	1.223749e+00	1.223290e+00	1.223670e+00	1.223328e+00	1.223746e+00	1.223239e+00	1.222844e+00	1.223222e+00	1.223888e+00	1.223213e+00	1.223141e+00	1.223772e+00	1.223115e+00	1.223937e+00	1.223738e+00	1.223537e+00	1.222736e+00	1.222834e+00	1.223143e+00	1.225579e+00	1.223055e+00	1.223868e+00	1.223202e+00	1.223388e+00	1.223182e+00	1.223919e+00	1.223620e+00	1.223625e+00	1.223605e+00	1.223503e+00	1.222645e+00	1.222925e+00	1.223465e+00	1.222788e+00	1.223234e+00	1.223282e+00	1.223742e+00	1.223302e+00	1.223245e+00	1.223871e+00	1.223541e+00	1.223503e+00	1.223071e+00	1.223544e+00	1.222728e+00	1.223148e+00	1.223855e+00	1.223092e+00	1.223361e+00	1.223146e+00	1.223359e+00	1.223715e+00	1.223055e+00	1.223280e+00	1.223613e+00	1.222830e+00	1.223719e+00	1.223090e+00	1.222244e+00	1.223729e+00	1.223695e+00	1.223133e+00	1.223357e+00	1.222304e+00	1.223584e+00	1.223079e+00	1.223581e+00	1.223776e+00	1.225569e+00	1.223876e+00	1.223709e+00	1.223140e+00	1.223171e+00	1.223559e+00	1.223412e+00	1.223733e+00	1.223034e+00	1.223897e+00	1.222922e+00	1.222847e+00	1.223564e+00	1.222884e+00	1.223561e+00	1.223279e+00	1.223780e+00	1.223719e+00	1.223677e+00	1.223148e+00	1.223169e+00	1.223945e+00	1.223342e+00	1.223477e+00	1.223131e+00	1.223483e+00	1.222665e+00	1.223372e+00	1.223155e+00	1.223192e+00	1.223457e+00	1.223730e+00	1.222876e+00	1.223312e+00	1.222610e+00	1.223267e+00	1.222855e+00	1.223600e+00	1.222713e+00	
SCALARS X-Momentum float 1
LOOKUP_TABLE default
8.884293e+00	4.319030e-01	6.971097e+00	-3.264182e-01	-5.898151e-01	-4.265833e+00	1.616921e+01	1.040464e+01	1.027778e+01	1.008188e+01	9.839854e+00	9.559682e+00	9.297585e+00	9.050662e+00	8.741206e+00	8.450995e+00	8.013362e+00	7.441829e+00	6.786494e+00	6.029311e+00	5.162930e+00	4.307883e+00	3.298719e+00	2.289998e+00	1.282913e+00	1.165084e-01	5.631772e-01	1.175783e+00	1.850212e+00	2.549811e+00	3.215056e+00	3.838038e+00	4.442526e+00	5.015728e+00	5.433871e+00	5.399976e+00	5.028801e+00	3.760746e+00	7.480582e-01	9.971875e-01	1.520167e+00	1.857553e+00	2.068561e+00	2.159279e+00	2.072386e+00	1.837168e+00	1.496458e+00	1.068324e+00	6.493165e-01	2.981850e-01	-1.957622e+00	-3.546758e+00	-4.868106e+00	-6.015705e+00	-6.925362e+00	-7.608717e+00	-8.086284e+00	-8.318096e+00	-7.853719e+00	-6.936041e+00	-5.949372e+00	-3.683854e-01	5.137012e+00	1.044771e+01	1.421121e+01	1.600278e+01	1.638574e+01	1.547845e+01	1.462207e+01	1.369314e+01	1.292179e+01	1.228107e+01	1.171951e+01	1.121868e+01	1.080541e+01	1.053095e+01	5.705739e+00	1.808457e+00	7.907852e+00	-5.627392e+00	2.064956e+00	4.750364e+00	5.888396e+00	-5.363617e+00	9.778849e+00	1.257511e+01	1.138088e+01	1.381493e+01	1.169983e+00	2.900548e+00	3.965719e+00	-4.033354e+00	2.118012e+00	5.704292e+00	9.381777e-02	1.719138e+00	1.326982e+00	9.057997e+00	1.052932e+01	1.546794e+01	1.849433e+00	-1.866575e+00	-2.919098e+00	8.754669e+00	7.527285e+00	1.089193e+01	1.403823e+01	1.285250e+01	8.858292e+00	1.155505e+01	1.432900e+01	1.338430e+01	1.016927e+01	1.208420e+01	8.521382e+00	1.029982e+01	1.368662e+01	1.277102e+01	1.460847e+01	1.430061e+01	1.462759e+01	1.424456e+01	1.380929e+01	1.308556e+01	6.591769e+00	1.511058e+01	1.426411e+01	4.923448e+00	3.928239e+00	1.268437e+01	1.185044e+01	1.185988e+01	1.097440e+01	1.060726e+01	1.024861e+01	1.057505e+01	9.699632e+00	9.612540e+00	4.726408e+00	2.851871e+00	2.152123e+00	1.178378e+01	1.840491e+00	1.396530e+01	5.523594e+00	2.115496e+00	6.534944e+00	4.438543e+00	1.246649e+01	8.994150e+00	9.138541e+00	8.868677e+00	8.161810e+00	7.865494e+00	9.629754e+00	7.609036e-01	1.030139e+00	8.516006e-01	1.120403e+01	1.544638e+01	9.833705e+00	1.071181e+01	1.891451e+00	3.840960e+00	7.339070e+00	2.431044e+00	-7.910872e-01	-3.575178e-01	1.187655e+01	8.422201e+00	7.404269e+00	6.942257e+00	6.281819e+00	9.277600e+00	6.286675e+00	1.173380e+01	1.229787e+01	1.912427e+00	9.819590e-01	1.277774e+01	-3.632096e-01	-1.723506e-01	1.527540e+01	9.678184e+00	1.530704e+01	-1.686905e+00	-2.992592e+00	8.828091e+00	6.048245e+00	6.636684e+00	5.284304e+00	7.866465e+00	8.994187e+00	9.394438e+00	1.966437e+00	2.507416e+00	-1.902207e+00	5.319662e+00	1.494737e+01	-1.590246e+00	9.072850e-01	-8.693786e-01	2.383197e+00	7.725416e-01	1.013831e+01	9.109421e+00	5.219959e+00	9.963159e+00	1.115722e+01	1.124442e+01	1.075351e+01	1.086688e+01	1.038300e+01	4.299149e+00	1.232900e+01	1.315004e+01	1.104062e+01	1.319002e+01	1.283851e+01	1.380501e+01	1.004897e+01	3.311228e+00	1.210770e+01	6.838066e+00	-1.340713e+00	1.415292e-01	-8.353036e-01	1.055453e+01	9.267621e+00	1.557467e+01	7.844958e+00	1.531984e+01	1.448918e+01	1.001766e+01	1.125756e+00	1.239954e+00	-5.807621e+00	6.994626e+00	4.489041e+00	1.292685e+01	4.395351e+00	3.429751e+00	2.507397e+00	3.767200e+00	1.059002e+01	1.025206e+01	1.220390e+01	9.346389e+00	9.516305e+00	7.355111e+00	7.877359e+00	8.327856e+00	7.337248e+00	7.993530e+00	1.529531e+01	1.307658e+01	2.545736e+00	1.123909e+01	7.588576e+00	2.474770e+00	6.072111e+00	5.015751e+00	-4.825837e+00	-5.593872e+00	6.689140e+00	-4.726442e+00	-3.027045e+00	2.889625e+00	1.089769e+01	1.356634e+01	1.608895e+01	1.868561e+00	8.395566e+00	8.776301e+00	4.216791e+00	2.234436e+00	2.136789e+00	1.512105e+01	1.001542e+01	1.459708e+01	5.271173e+00	1.132409e+00	1.026286e+01	6.025363e+00	-3.583466e+00	1.426151e+01	6.584132e+00	5.263658e+00	1.945634e+00	9.115912e+00	2.129859e+00	4.251881e+00	1.863303e+00	2.558469e+00	1.566198e+00	2.256353e+00	6.859320e-01	3.085824e-01	3.584849e+00	-1.262220e+00	2.467607e+00	7.359170e+00	9.922356e+00	1.431936e-01	5.927922e+00	4.801412e+00	8.512891e+00	-5.550681e-01	5.888094e+00	2.393473e+00	8.432498e+00	-4.481762e-01	1.223053e+00	9.733489e+00	9.956048e+00	9.253532e+00	1.131326e+01	1.135281e+01	6.316546e+00	1.170555e+01	2.758363e+00	1.472222e+01	1.352468e+01	8.568996e+00	1.573895e+01	1.472621e+01	3.767590e+00	1.108943e+01	1.191792e+01	1.497059e+01	1.056354e+01	3.624938e+00	1.450115e+01	3.578660e+00	-2.970798e+00	1.484754e+01	-2.296257e+00	1.335726e+01	9.004191e+00	-3.405355e+00	1.367264e+01	1.009433e+01	2.668660e+00	8.364691e+00	-2.761006e+00	-2.878430e+00	8.915956e+00	6.731546e+00	7.235569e+00	1.221086e+01	8.444422e+00	1.005627e+01	1.143240e+01	1.035222e+01	4.493718e+00	6.433811e+00	3.237086e+00	8.663490e+00	-1.989830e-01	1.299166e+01	1.037976e+01	1.237918e+01	6.021732e+00	1.597468e+01	2.635941e+00	-3.529905e+00	-1.888717e+00	1.039152e+01	-2.010260e+00	1.098797e+01	1.257220e+01	7.087241e+00	8.577923e+00	9.618410e+00	9.208609e-01	1.730754e+00	8.783924e-01	-8.156634e-01	1.393360e+01	1.483354e+01	6.319479e+00	1.327135e+01	9.460453e+00	1.545906e+01	2.073018e+00	1.167536e+01	7.582121e+00	7.499394e+00	2.450471e+00	5.464305e+00	1.373518e+01	9.402476e+00	5.408442e+00	7.292163e+00	
SCALARS Y-Momentum float 1
LOOKUP_TABLE default
-1.867186e-02	4.257143e-01	5.337785e+00	-9.552648e-01	5.576151e-01	2.369032e-01	6.015664e-02	-1.216824e-02	1.483033e-02	4.152577e-02	5.689755e-02	7.322054e-02	6.084584e-02	1.039696e-02	-3.575162e-03	-1.995785e-04	6.790664e-03	6.026955e-03	1.206593e-02	1.490583e-02	1.699673e-03	2.889516e-02	1.270467e-02	8.429751e-03	-3.425350e-02	1.385756e+00	2.473257e+00	3.471965e+00	4.453157e+00	5.338669e+00	6.122057e+00	6.828857e+00	7.500401e+00	8.198710e+00	8.691001e+00	8.779279e+00	8.836167e+00	-2.726107e+00	9.743773e-01	1.753307e+00	2.497962e+00	3.100755e+00	3.505714e+00	3.748390e+00	3.790806e+00	3.646743e+00	3.344265e+00	2.881798e+00	2.300895e+00	1.504047e+00	-7.940771e-04	3.772265e-02	2.508456e-02	7.935520e-03	1.321238e-03	5.874198e-03	1.019395e-02	3.995326e-03	-4.037672e-02	-6.538225e-02	-1.025616e-01	-5.459746e-01	-5.199248e-01	-1.722897e-02	6.742344e-01	8.769025e-01	5.069681e-01	1.063297e-02	-1.093154e-03	-1.113205e-02	-4.078166e-02	-2.666631e-02	-5.651985e-03	-5.511678e-03	1.834752e-03	-3.307596e-03	9.020996e+00	2.234195e+00	4.990751e-01	-2.125238e-01	3.347585e+00	6.566610e+00	9.049886e-01	4.341504e-01	3.762871e-01	3.228124e-01	4.249279e-01	8.242319e-01	3.101979e+00	4.429731e+00	1.030626e+00	6.235432e-01	2.888901e+00	7.786382e+00	2.238961e+00	2.725080e+00	-8.885092e-01	3.179390e-01	2.453094e-01	8.249282e-01	9.093287e-01	8.558380e-01	-6.504723e-01	2.433678e-01	-5.124664e-01	2.548374e-02	8.871760e-01	8.146934e-01	-7.804561e-04	7.865962e-01	1.643543e+00	1.662269e+00	9.377987e-01	1.747121e+00	1.244327e+00	1.895467e+00	2.750094e+00	3.028717e+00	3.815656e+00	4.330444e+00	4.433390e+00	5.131998e+00	4.302390e+00	4.941486e+00	1.510255e+00	2.361940e+00	3.721627e+00	1.302349e+00	1.915655e+00	3.570499e+00	3.655943e+00	5.037111e+00	3.463731e+00	4.264941e+00	3.053494e+00	2.593372e+00	3.550538e+00	2.528246e+00	2.040989e+00	2.672478e+00	2.275687e+00	2.655322e+00	2.837539e+00	5.039045e+00	7.263169e-02	3.047690e-01	1.260725e+00	1.071621e+00	2.532450e+00	2.730575e+00	2.004997e+00	3.822095e+00	2.590279e+00	3.566864e+00	1.856102e+00	2.178222e+00	1.707392e+00	2.455041e+00	6.156043e+00	2.017170e+00	5.243241e+00	4.525724e+00	1.909961e+00	1.970986e+00	2.016398e+00	2.920999e+00	1.450588e+00	9.179425e-01	7.913346e+00	4.936317e+00	4.591291e+00	3.346762e+00	4.219441e+00	1.449374e+00	1.993417e+00	1.867214e+00	1.660759e+00	3.051373e+00	2.582243e+00	6.868708e+00	1.984790e+00	2.145197e+00	2.362387e+00	1.335528e+00	1.871836e+00	1.495219e+00	6.211991e-01	1.460040e+00	2.945212e+00	2.409219e+00	3.400931e+00	6.398361e+00	6.587724e+00	9.314274e-01	3.025924e+00	3.366063e+00	1.367463e+00	4.543373e+00	3.345737e+00	3.006829e-01	3.157764e-01	-1.057086e-01	-2.188853e-01	-7.015625e-01	2.744529e+00	2.217474e+00	2.284032e+00	4.858036e+00	1.945540e+00	1.381473e+00	1.427464e+00	9.961371e-01	1.001346e+00	3.728864e+00	8.408674e+00	7.411392e+00	9.353560e+00	2.365571e+00	1.312114e+00	2.044870e+00	1.648168e+00	2.725284e+00	9.444417e-01	5.612870e+00	1.708523e+00	2.438788e+00	1.984055e+00	9.376510e+00	9.863769e+00	1.698522e+00	3.269399e-01	1.072805e+00	1.798806e+00	1.169343e+00	2.762855e+00	2.986990e+00	9.843703e-02	7.098156e+00	4.882051e+00	6.177046e-01	2.620009e+00	2.829233e+00	3.336860e+00	-9.547221e-01	6.095627e-01	5.867246e-01	3.429889e+00	4.453158e-01	1.971084e+00	6.269472e-01	1.091008e+00	8.372648e-01	1.419699e+00	1.726236e+00	1.425090e+00	6.012158e+00	3.504041e+00	8.050175e+00	8.125914e+00	3.041603e+00	6.538853e+00	1.142029e+00	5.047794e-01	3.216087e-01	7.656593e-01	-4.161118e-01	7.948619e-01	1.021338e+00	3.222485e-01	5.988571e+00	1.029868e+00	3.057669e+00	3.833344e-01	6.413970e-01	3.366089e-01	3.060191e+00	2.926374e+00	2.969248e+00	3.497628e-01	7.737164e-01	5.704125e+00	1.727592e+00	2.600817e-01	8.603030e+00	8.442642e-01	2.946921e+00	1.575917e+00	7.163577e+00	2.491306e+00	6.769863e-01	3.159567e+00	5.881183e+00	3.391902e+00	1.056261e+00	3.311780e+00	3.625292e+00	2.756026e+00	2.582943e+00	5.147948e+00	1.621057e+00	2.042971e+00	2.628369e+00	8.343694e+00	-9.283726e-01	2.023072e+00	-5.846849e-01	2.904641e+00	1.784915e+00	1.893856e+00	2.937534e+00	1.039471e+01	1.618027e+00	1.732439e+00	9.564642e-01	7.317881e-01	5.155704e+00	8.913493e-01	4.043955e+00	8.187926e-01	1.225774e+00	1.720024e+00	2.515280e+00	1.297982e+00	1.951082e+00	1.415200e+00	1.388467e+00	4.318369e+00	2.607383e+00	4.183456e-01	1.524404e+00	1.945956e+00	2.509707e+00	2.540870e+00	1.928468e+00	1.065653e+00	3.542757e+00	1.313470e+00	3.306633e+00	1.025378e+00	9.293083e-01	6.457311e+00	2.244214e+00	3.294355e+00	1.334321e+00	-4.352545e-01	-5.058115e-01	1.067407e-01	8.579959e+00	9.768632e+00	7.655170e+00	2.207722e+00	6.536359e+00	2.717045e+00	1.412213e+00	1.805697e+00	1.032930e+01	3.645569e+00	1.023844e+00	2.250963e+00	4.300368e+00	1.030432e-01	5.919978e-01	5.239551e+00	4.911602e-01	2.982847e+00	3.124185e-02	-7.551073e-01	4.285324e-01	1.204414e+00	6.487057e-01	6.641708e+00	2.019882e+00	8.331893e+00	5.947090e-01	2.894255e+00	3.110373e+00	7.979135e-01	8.583795e-01	5.912895e+00	3.918395e+00	7.675422e+00	3.635328e+00	4.274624e+00	1.429140e+00	3.142084e+00	7.368912e-01	2.055841e+00	-5.812463e-01	3.146628e+00	-1.222396e-01	3.098243e+00	7.599603e+00	6.389220e+00	1.675901e+00	
SCALARS Energy float 1
LOOKUP_TABLE default