# vtk DataFile Version 3.0
vtk output
ASCII
DATASET UNSTRUCTURED_GRID
POINTS 394 float
-3.000000e+00	0.000000e+00	0.0	-5.000000e-02	6.105448e-18	0.0	-4.383877e-02	9.998144e-01	0.0	5.618803e-02	1.000876e+00	0.0	5.000000e-02	-5.746714e-19	0.0	3.000000e+00	0.000000e+00	0.0	3.000000e+00	4.000000e+00	0.0	-3.000000e+00	4.000000e+00	0.0	-3.000000e+00	3.428571e+00	0.0	-3.000000e+00	2.857143e+00	0.0	-3.000000e+00	2.285714e+00	0.0	-3.000000e+00	1.714286e+00	0.0	-3.000000e+00	1.142857e+00	0.0	-3.000000e+00	5.714286e-01	0.0	-2.473871e+00	0.000000e+00	0.0	-2.029066e+00	0.000000e+00	0.0	-1.653013e+00	0.000000e+00	0.0	-1.335087e+00	0.000000e+00	0.0	-1.066302e+00	0.000000e+00	0.0	-8.390627e-01	0.000000e+00	0.0	-6.469477e-01	0.000000e+00	0.0	-4.845277e-01	0.000000e+00	0.0	-3.472127e-01	0.000000e+00	0.0	-2.311224e-01	0.000000e+00	0.0	-1.329760e-01	0.000000e+00	0.0	-4.921385e-02	7.760433e-02	0.0	-4.778772e-02	1.549204e-01	0.0	-4.603477e-02	2.319894e-01	0.0	-4.428893e-02	3.088730e-01	0.0	-4.279795e-02	3.856232e-01	0.0	-4.171318e-02	4.622962e-01	0.0	-4.108597e-02	5.389539e-01	0.0	-4.089093e-02	6.156421e-01	0.0	-4.105595e-02	6.923748e-01	0.0	-4.151361e-02	7.691549e-01	0.0	-4.220721e-02	8.459956e-01	0.0	-4.295880e-02	9.228948e-01	0.0	6.174819e-03	1.000381e+00	0.0	5.697435e-02	9.239302e-01	0.0	5.777541e-02	8.469306e-01	0.0	5.845172e-02	7.698751e-01	0.0	5.891285e-02	6.927620e-01	0.0	5.908052e-02	6.156071e-01	0.0	5.888462e-02	5.384121e-01	0.0	5.825979e-02	4.611871e-01	0.0	5.717096e-02	3.839672e-01	0.0	5.567612e-02	3.068086e-01	0.0	5.393440e-02	2.297754e-01	0.0	5.218511e-02	1.529266e-01	0.0	5.074385e-02	7.631859e-02	0.0	1.329760e-01	0.000000e+00	0.0	2.311224e-01	0.000000e+00	0.0	3.472127e-01	0.000000e+00	0.0	4.845277e-01	0.000000e+00	0.0	6.469477e-01	0.000000e+00	0.0	8.390627e-01	0.000000e+00	0.0	1.066302e+00	0.000000e+00	0.0	1.335087e+00	0.000000e+00	0.0	1.653013e+00	0.000000e+00	0.0	2.029066e+00	0.000000e+00	0.0	2.473871e+00	0.000000e+00	0.0	3.000000e+00	5.714286e-01	0.0	3.000000e+00	1.142857e+00	0.0	3.000000e+00	1.714286e+00	0.0	3.000000e+00	2.285714e+00	0.0	3.000000e+00	2.857143e+00	0.0	3.000000e+00	3.428571e+00	0.0	2.400000e+00	4.000000e+00	0.0	1.800000e+00	4.000000e+00	0.0	1.200000e+00	4.000000e+00	0.0	6.000000e-01	4.000000e+00	0.0	0.000000e+00	4.000000e+00	0.0	-6.000000e-01	4.000000e+00	0.0	-1.200000e+00	4.000000e+00	0.0	-1.800000e+00	4.000000e+00	0.0	-2.400000e+00	4.000000e+00	0.0	-1.095548e-01	8.878076e-01	0.0	1.209365e-01	8.883064e-01	0.0	-1.483859e+00	2.494192e-01	0.0	1.500259e+00	2.278351e-01	0.0	1.151376e-01	5.734187e-01	0.0	-1.166173e-01	5.769231e-01	0.0	-7.468484e-01	1.615795e-01	0.0	7.467660e-01	1.592205e-01	0.0	-2.588894e+00	2.076202e+00	0.0	2.516144e+00	1.947581e+00	0.0	-9.330139e-01	3.509250e+00	0.0	9.096046e-01	3.461623e+00	0.0	1.171758e-01	3.453095e-01	0.0	-1.176381e-01	3.461538e-01	0.0	-4.145464e-01	1.102721e-01	0.0	4.158702e-01	1.097277e-01	0.0	1.211039e-01	7.285624e-01	0.0	-1.166173e-01	7.307692e-01	0.0	1.217259e-01	1.951647e-01	0.0	-1.219004e-01	1.949409e-01	0.0	2.523336e+00	8.167529e-01	0.0	-2.505450e+00	7.859659e-01	0.0	-2.060813e+00	3.451225e+00	0.0	2.063561e+00	3.439799e+00	0.0	-1.839749e-01	7.462933e-02	0.0	1.839181e-01	7.485312e-02	0.0	2.223383e+00	3.988647e-01	0.0	-2.251469e+00	3.554420e-01	0.0	2.464585e+00	1.408185e+00	0.0	2.084360e+00	1.715536e+00	0.0	2.062368e+00	2.119428e+00	0.0	1.717456e+00	1.868364e+00	0.0	1.703162e+00	1.478255e+00	0.0	1.404436e+00	1.673942e+00	0.0	1.379059e+00	2.011826e+00	0.0	1.122275e+00	1.805700e+00	0.0	1.133471e+00	1.514067e+00	0.0	8.972874e-01	1.623762e+00	0.0	9.058741e-01	1.383676e+00	0.0	6.842001e-01	1.452796e+00	0.0	6.646868e-01	1.702928e+00	0.0	4.770905e-01	1.555424e+00	0.0	4.540791e-01	1.782960e+00	0.0	2.815546e-01	1.663644e+00	0.0	2.468385e-01	1.874145e+00	0.0	8.495255e-02	1.739613e+00	0.0	3.220584e-02	1.963777e+00	0.0	-1.420447e-01	1.783981e+00	0.0	7.288711e-01	1.245864e+00	0.0	1.077857e+00	2.136341e+00	0.0	2.551298e-01	2.138445e+00	0.0	8.954243e-01	1.142527e+00	0.0	7.229085e-01	1.059814e+00	0.0	-2.030321e-01	2.067609e+00	0.0	-4.089797e-01	1.894294e+00	0.0	-3.445145e-01	1.614442e+00	0.0	-6.150363e-01	1.721608e+00	0.0	-5.614456e-01	1.469073e+00	0.0	-8.152713e-01	1.551780e+00	0.0	-8.412690e-01	1.795758e+00	0.0	-7.621668e-01	1.289715e+00	0.0	-1.026166e+00	1.376679e+00	0.0	5.786315e-01	1.133181e+00	0.0	5.729769e-01	9.679372e-01	0.0	7.172900e-01	8.817742e-01	0.0	-4.706077e-01	2.183860e+00	0.0	5.679375e-01	7.985285e-01	0.0	1.228546e-01	1.518204e+00	0.0	2.279691e-02	1.047289e+00	0.0	8.320521e-02	1.041063e+00	0.0	5.033468e-02	1.101913e+00	0.0	1.219691e-01	1.104509e+00	0.0	-2.270250e-01	2.375087e+00	0.0	-9.617590e-01	1.108784e+00	0.0	-1.245187e+00	1.191051e+00	0.0	-7.079931e-01	1.027579e+00	0.0	-9.221295e-01	8.266544e-01	0.0	-6.775202e-01	7.984572e-01	0.0	-1.312202e+00	1.494832e+00	0.0	7.101723e-01	7.094472e-01	0.0	8.684597e-01	7.881516e-01	0.0	5.583553e-01	6.419675e-01	0.0	-3.558236e-01	1.362627e+00	0.0	1.348529e+00	2.364476e+00	0.0	-2.630234e-02	1.090302e+00	0.0	1.117829e-02	1.167717e+00	0.0	1.571133e-01	1.029943e+00	0.0	2.071370e-01	1.104065e+00	0.0	1.597519e-01	1.182734e+00	0.0	2.496705e-01	1.015521e+00	0.0	8.544827e-01	6.108496e-01	0.0	1.047555e+00	6.998655e-01	0.0	-7.847310e-02	1.158033e+00	0.0	-5.171348e-01	9.204152e-01	0.0	-4.863658e-01	7.410581e-01	0.0	-6.210221e-01	6.162069e-01	0.0	-4.304165e-01	5.790980e-01	0.0	-1.561645e+00	1.283922e+00	0.0	2.721982e-01	1.192937e+00	0.0	-5.279951e-01	2.507900e+00	0.0	-2.485216e-01	2.731250e+00	0.0	4.318698e-01	7.203270e-01	0.0	4.233758e-01	5.725091e-01	0.0	-3.335265e-02	1.251950e+00	0.0	5.424962e-01	4.927149e-01	0.0	4.112126e-01	4.303540e-01	0.0	1.018241e+00	2.500118e+00	0.0	-1.633552e+00	1.628891e+00	0.0	1.309393e+00	2.745135e+00	0.0	5.177841e-01	3.509866e-01	0.0	1.029850e+00	4.328609e-01	0.0	-1.477416e+00	9.899497e-01	0.0	-5.601504e-01	4.553761e-01	0.0	-7.270539e-01	4.819428e-01	0.0	-4.090902e-01	4.203457e-01	0.0	-3.522791e-01	8.700653e-01	0.0	-3.889332e-01	1.027066e+00	0.0	-1.995353e+00	1.406583e+00	0.0	3.058598e-01	6.525576e-01	0.0	3.242700e-01	7.890326e-01	0.0	6.642582e-01	4.078662e-01	0.0	-3.050955e-01	5.085933e-01	0.0	6.073747e-01	1.962519e+00	0.0	1.224429e+00	6.011520e-01	0.0	1.250184e+00	8.250911e-01	0.0	1.457536e+00	6.770896e-01	0.0	1.491338e+00	9.566090e-01	0.0	1.773625e+00	8.129378e-01	0.0	2.073828e-01	1.286702e+00	0.0	3.329952e-01	1.291810e+00	0.0	-5.121868e-01	3.061387e-01	0.0	-5.380612e-01	1.261514e+00	0.0	-7.924608e-01	2.286933e+00	0.0	-8.696866e-01	2.652326e+00	0.0	-1.158131e+00	2.423026e+00	0.0	-1.242246e+00	2.799469e+00	0.0	-1.611716e+00	2.457963e+00	0.0	-2.704602e-01	3.766037e-01	0.0	-1.427840e-01	1.240183e+00	0.0	-1.014268e-01	1.353312e+00	0.0	-1.763546e-01	1.137806e+00	0.0	8.783725e-02	2.565590e+00	0.0	1.029681e-01	3.019180e+00	0.0	4.272249e-01	2.781426e+00	0.0	-1.361638e+00	1.838642e+00	0.0	4.419215e-01	1.044947e+00	0.0	-3.108847e-01	3.147482e+00	0.0	-3.376796e-01	7.131312e-01	0.0	3.905654e-01	2.971765e-01	0.0	2.782915e-01	3.728023e-01	0.0	2.712444e-01	2.590314e-01	0.0	-1.115764e-01	1.077712e+00	0.0	-1.918797e-01	1.038577e+00	0.0	1.672005e+00	2.603574e+00	0.0	1.351136e+00	1.368437e+00	0.0	2.442785e+00	2.509530e+00	0.0	8.886710e-01	2.913113e+00	0.0	-1.697169e+00	2.000053e+00	0.0	2.897750e-01	5.099332e-01	0.0	1.971068e-01	4.461399e-01	0.0	1.204570e+00	2.088856e-01	0.0	-2.509004e-01	7.997219e-01	0.0	-2.031816e-01	4.612449e-01	0.0	3.587496e-01	3.516320e+00	0.0	-3.683082e-01	2.897439e-01	0.0	-2.513200e-01	2.632515e-01	0.0	4.269022e-01	8.903973e-01	0.0	2.109340e+00	1.080852e+00	0.0	-1.676617e+00	3.018022e+00	0.0	-2.026846e+00	2.666903e+00	0.0	2.607158e-01	1.407890e+00	0.0	-2.493719e+00	1.295472e+00	0.0	5.091525e-01	1.363902e+00	0.0	-1.195527e+00	2.199189e-01	0.0	-1.314128e+00	4.697507e-01	0.0	-1.599290e+00	5.224038e-01	0.0	-1.044962e+00	4.332833e-01	0.0	-1.153999e+00	6.810762e-01	0.0	1.631869e+00	3.047538e+00	0.0	-1.479044e-01	1.589819e+00	0.0	3.069713e-01	9.091070e-01	0.0	-2.594272e-01	1.222158e+00	0.0	-2.468802e-01	8.922655e-01	0.0	2.148670e-01	8.375987e-01	0.0	-2.166457e-01	6.824956e-01	0.0	-5.613393e-01	1.604002e-01	0.0	5.664728e-01	1.255855e-01	0.0	9.638304e-01	2.045637e-01	0.0	-9.533785e-01	1.895011e-01	0.0	1.826954e+00	2.785964e-01	0.0	2.921698e-01	9.086346e-02	0.0	-2.840612e-01	9.229685e-02	0.0	-1.490751e+00	3.525634e+00	0.0	2.972107e-02	1.367432e+00	0.0	2.519001e+00	3.105668e+00	0.0	2.275446e-01	5.821961e-01	0.0	-1.832465e+00	2.953506e-01	0.0	-1.977202e+00	6.768975e-01	0.0	1.295565e+00	1.090381e+00	0.0	2.060326e-01	6.790669e-01	0.0	1.924197e-01	9.403358e-01	0.0	7.418665e-01	2.245468e+00	0.0	-2.532269e+00	2.524420e+00	0.0	1.437226e+00	3.516627e+00	0.0	-2.189186e-01	5.745803e-01	0.0	1.089458e-01	9.704541e-01	0.0	-2.461547e+00	3.076565e+00	0.0	-1.130174e-01	8.082243e-01	0.0	8.204452e-01	3.206647e-01	0.0	4.156693e-01	2.424846e+00	0.0	-8.275684e-01	3.222250e-01	0.0	-1.166173e-01	6.538462e-01	0.0	1.240439e-01	8.065138e-01	0.0	-2.154304e+00	1.044185e+00	0.0	1.166173e-01	6.538462e-01	0.0	-1.258892e-01	5.059709e-01	0.0	1.175714e-01	4.975748e-01	0.0	1.048701e+00	9.459876e-01	0.0	1.186418e-01	4.187835e-01	0.0	-1.166173e-01	2.692308e-01	0.0	1.166173e-01	2.692308e-01	0.0	1.911633e-01	3.076923e-01	0.0	-1.230149e-01	4.240231e-01	0.0	2.168732e-01	1.650969e-01	0.0	-2.130153e-01	1.684055e-01	0.0	-8.055871e-01	6.334177e-01	0.0	-2.811060e-01	1.101705e+00	0.0	2.114262e+00	7.400841e-01	0.0	4.281373e-01	1.193306e+00	0.0	1.771809e+00	1.153906e+00	0.0	-2.500000e-02	1.043301e+00	0.0	6.913395e-01	5.556832e-01	0.0	-6.558579e-01	3.146104e-01	0.0	1.873560e-01	7.692308e-01	0.0	-1.213880e-01	1.006983e+00	0.0	1.155948e-01	1.153846e-01	0.0	-1.169921e-01	1.167516e-01	0.0	-1.947655e+00	1.778423e+00	0.0	-2.086024e+00	2.166615e+00	0.0	-5.187853e-01	1.093553e+00	0.0	-9.145482e-01	3.061229e+00	0.0	6.700572e-02	1.250202e+00	0.0	1.105028e+00	1.240846e+00	0.0	-5.835849e-01	2.893561e+00	0.0	8.505567e-01	9.636509e-01	0.0	6.983346e-01	2.572994e+00	0.0	5.374437e-01	3.138332e+00	0.0	-1.194511e+00	9.174719e-01	0.0	2.057508e+00	2.866260e+00	0.0	1.249515e+0
[...]
POINT_DATA 394

SCALARS Density float 1
LOOKUP_TABLE default
1.223757e+00	1.223972e+00	1.222564e+00	1.222361e+00	1.223563e+00	1.223805e+00	1.223243e+00	1.223612e+00	1.223593e+00	1.223609e+00	1.223658e+00	1.223690e+00	1.223770e+00	1.223775e+00	1.223788e+00	1.223768e+00	1.223803e+00	1.223828e+00	1.223866e+00	1.223890e+00	1.223914e+00	1.223952e+00	1.223935e+00	1.223993e+00	1.223932e+00	1.224003e+00	1.223935e+00	1.223952e+00	1.223955e+00	1.223945e+00	1.223940e+00	1.223902e+00	1.223909e+00	1.223809e+00	1.223909e+00	1.223082e+00	1.224980e+00	1.220537e+00	1.223964e+00	1.223499e+00	1.223579e+00	1.223491e+00	1.223440e+00	1.223403e+00	1.223406e+00	1.223416e+00	1.223446e+00	1.223482e+00	1.223426e+00	1.223664e+00	1.223433e+00	1.223549e+00	1.223460e+00	1.223390e+00	1.223343e+00	1.223312e+00	1.223218e+00	1.223272e+00	1.223269e+00	1.223397e+00	1.222930e+00	1.223524e+00	1.223190e+00	1.222980e+00	1.222852e+00	1.222944e+00	1.223082e+00	1.223102e+00	1.223222e+00	1.223264e+00	1.223351e+00	1.223411e+00	1.223496e+00	1.223555e+00	1.223592e+00	1.223595e+00	1.223570e+00	1.223669e+00	1.223814e+00	1.223206e+00	1.223457e+00	1.223872e+00	1.223873e+00	1.223313e+00	1.223657e+00	1.223301e+00	1.223527e+00	1.223303e+00	1.223447e+00	1.223930e+00	1.223934e+00	1.223432e+00	1.223578e+00	1.223738e+00	1.223541e+00	1.223958e+00	1.223058e+00	1.223760e+00	1.223617e+00	1.223108e+00	1.223962e+00	1.223528e+00	1.223315e+00	1.223755e+00	1.222988e+00	1.222980e+00	1.223130e+00	1.223116e+00	1.223079e+00	1.223057e+00	1.223040e+00	1.223263e+00	1.222962e+00	1.222976e+00	1.223009e+00	1.223171e+00	1.222926e+00	1.223214e+00	1.223145e+00	1.223252e+00	1.223204e+00	1.223247e+00	1.223471e+00	1.223352e+00	1.223197e+00	1.223024e+00	1.223271e+00	1.222984e+00	1.223204e+00	1.223436e+00	1.223534e+00	1.223554e+00	1.223499e+00	1.223650e+00	1.223702e+00	1.223598e+00	1.223702e+00	1.223682e+00	1.223284e+00	1.223278e+00	1.223316e+00	1.223554e+00	1.223359e+00	1.223245e+00	1.222541e+00	1.222376e+00	1.222805e+00	1.223137e+00	1.223428e+00	1.223745e+00	1.223744e+00	1.223804e+00	1.223794e+00	1.223823e+00	1.223701e+00	1.223246e+00	1.223087e+00	1.223344e+00	1.223555e+00	1.223197e+00	1.222258e+00	1.223169e+00	1.223252e+00	1.223130e+00	1.222878e+00	1.223345e+00	1.223256e+00	1.223166e+00	1.223035e+00	1.223787e+00	1.223791e+00	1.223856e+00	1.223845e+00	1.223705e+00	1.223005e+00	1.223508e+00	1.223485e+00	1.223468e+00	1.223396e+00	1.223139e+00	1.223336e+00	1.223392e+00	1.223270e+00	1.223687e+00	1.223143e+00	1.223437e+00	1.223095e+00	1.223765e+00	1.223886e+00	1.223897e+00	1.223917e+00	1.223816e+00	1.223693e+00	1.223722e+00	1.223434e+00	1.223463e+00	1.223278e+00	1.223939e+00	1.223332e+00	1.223052e+00	1.223181e+00	1.222962e+00	1.222968e+00	1.223059e+00	1.223018e+00	1.222996e+00	1.223963e+00	1.223632e+00	1.223551e+00	1.223537e+00	1.223607e+00	1.223577e+00	1.223647e+00	1.223925e+00	1.223221e+00	1.223471e+00	1.223494e+00	1.223363e+00	1.223386e+00	1.223411e+00	1.223654e+00	1.223216e+00	1.223414e+00	1.223897e+00	1.223399e+00	1.223419e+00	1.223447e+00	1.223646e+00	1.223015e+00	1.223080e+00	1.222940e+00	1.223305e+00	1.223291e+00	1.223671e+00	1.223456e+00	1.223392e+00	1.223039e+00	1.223823e+00	1.223967e+00	1.223407e+00	1.223901e+00	1.223955e+00	1.223342e+00	1.222981e+00	1.223571e+00	1.223608e+00	1.222763e+00	1.223704e+00	1.223133e+00	1.223845e+00	1.223879e+00	1.223744e+00	1.223844e+00	1.223790e+00	1.223258e+00	1.223515e+00	1.223429e+00	1.223429e+00	1.223760e+00	1.223591e+00	1.223871e+00	1.223952e+00	1.223381e+00	1.223268e+00	1.223875e+00	1.223021e+00	1.223545e+00	1.223981e+00	1.223565e+00	1.223108e+00	1.223155e+00	1.223492e+00	1.223808e+00	1.223748e+00	1.223039e+00	1.223460e+00	1.223323e+00	1.223217e+00	1.223651e+00	1.223228e+00	1.223849e+00	1.223417e+00	1.223635e+00	1.223963e+00	1.223259e+00	1.223338e+00	1.223876e+00	1.223915e+00	1.223608e+00	1.223722e+00	1.223521e+00	1.223901e+00	1.223437e+00	1.223109e+00	1.223446e+00	1.223950e+00	1.223465e+00	1.223432e+00	1.223901e+00	1.223411e+00	1.223975e+00	1.223862e+00	1.223673e+00	1.223019e+00	1.223137e+00	1.223325e+00	1.222952e+00	1.223321e+00	1.223946e+00	1.223458e+00	1.223539e+00	1.223472e+00	1.223952e+00	1.223668e+00	1.223671e+00	1.223738e+00	1.223532e+00	1.222885e+00	1.223140e+00	1.223486e+00	1.223102e+00	1.223237e+00	1.223294e+00	1.223822e+00	1.223303e+00	1.223231e+00	1.223963e+00	1.223600e+00	1.223518e+00	1.223070e+00	1.223596e+00	1.223224e+00	1.223182e+00	1.223907e+00	1.223340e+00	1.223351e+00	1.223400e+00	1.223374e+00	1.223787e+00	1.223279e+00	1.223314e+00	1.223661e+00	1.223288e+00	1.223776e+00	1.223347e+00	1.222529e+00	1.223802e+00	1.223821e+00	1.223492e+00	1.223459e+00	1.222918e+00	1.223678e+00	1.223169e+00	1.223631e+00	1.223902e+00	1.224887e+00	1.223964e+00	1.223777e+00	1.223402e+00	1.223296e+00	1.223576e+00	1.223433e+00	1.223904e+00	1.223030e+00	1.223958e+00	1.223191e+00	1.223113e+00	1.223607e+00	1.223210e+00	1.223594e+00	1.223339e+00	1.223854e+00	1.223878e+00	1.223723e+00	1.223381e+00	1.223381e+00	1.223979e+00	1.223604e+00	1.223486e+00	1.223139e+00	1.223692e+00	1.222935e+00	1.223502e+00	1.223160e+00	1.223410e+00	1.223491e+00	1.223809e+00	1.223020e+00	1.223514e+00	1.222838e+00	1.223321e+00	1.223005e+00	1.223787e+00	1.223032e+00	
SCALARS X-Momentum float 1
LOOKUP_TABLE default
7.896629e+00	2.123684e-01	4.014897e+00	1.003632e-01	-6.453172e-01	-5.213363e+00	1.641606e+01	1.001814e+01	9.844987e+00	9.582977e+00	9.260799e+00	8.885137e+00	8.512827e+00	8.146338e+00	7.703671e+00	7.339611e+00	6.792070e+00	6.119044e+00	5.374822e+00	4.563391e+00	3.713658e+00	2.934883e+00	2.125101e+00	1.389318e+00	7.236891e-01	-2.803083e-02	1.740326e-02	7.402374e-02	9.996655e-02	1.125341e-01	1.141605e-01	1.082402e-01	8.725212e-02	7.097336e-02	-4.811056e-03	-3.530046e-02	-3.916849e-01	3.720402e+00	2.348152e-01	5.736108e-02	8.430095e-02	7.353245e-02	9.252388e-02	1.210085e-01	1.359540e-01	1.364214e-01	1.363126e-01	1.060101e-01	9.271916e-02	9.852539e-02	-1.992088e+00	-3.579305e+00	-4.948454e+00	-6.223261e+00	-7.285885e+00	-8.070848e+00	-8.648650e+00	-8.913599e+00	-8.394806e+00	-7.550256e+00	-6.714294e+00	-1.523055e+00	3.886170e+00	9.393655e+00	1.357863e+01	1.580063e+01	1.647799e+01	1.578455e+01	1.489954e+01	1.391358e+01	1.306835e+01	1.233711e+01	1.165964e+01	1.104204e+01	1.053313e+01	1.018693e+01	4.503430e-01	7.590197e-01	6.636093e+00	-6.113059e+00	1.371468e-01	8.556071e-01	4.295996e+00	-5.922450e+00	9.156113e+00	1.207003e+01	1.114462e+01	1.388904e+01	-2.770922e-01	7.289540e-01	2.507181e+00	-4.440849e+00	4.217921e-01	8.632767e-01	-6.579340e-01	5.919981e-01	6.067099e-01	8.151761e+00	1.013989e+01	1.563470e+01	9.819036e-01	-2.125141e+00	-3.502596e+00	7.733505e+00	6.916718e+00	1.065563e+01	1.385571e+01	1.276541e+01	8.860073e+00	1.163505e+01	1.426542e+01	1.336376e+01	1.037694e+01	1.210224e+01	8.878524e+00	1.039423e+01	1.330039e+01	1.221349e+01	1.386130e+01	1.326014e+01	1.374679e+01	1.307603e+01	1.296101e+01	1.200153e+01	7.070643e+00	1.494572e+01	1.366014e+01	5.393453e+00	4.220037e+00	1.196343e+01	1.098222e+01	1.057574e+01	9.952293e+00	9.205783e+00	9.097897e+00	9.676528e+00	8.136868e+00	8.431901e+00	5.121818e+00	2.777269e+00	1.952446e+00	1.116293e+01	1.063101e+00	1.251526e+01	4.498516e+00	2.327352e+00	5.800514e+00	4.397729e+00	1.197500e+01	7.540859e+00	7.989374e+00	6.884401e+00	6.485078e+00	5.668278e+00	8.675240e+00	7.279994e-02	8.336675e-01	-3.274589e-01	9.381113e+00	1.536657e+01	7.591295e+00	8.760593e+00	2.055880e+00	4.053276e+00	6.869410e+00	2.341032e+00	-1.333102e+00	-5.707344e-01	9.207122e+00	5.709683e+00	4.515114e+00	4.700618e+00	3.495032e+00	8.313760e+00	6.374523e+00	1.127475e+01	1.196285e+01	5.221878e-01	-5.098988e-01	1.050607e+01	-1.566659e+00	-1.487679e+00	1.514018e+01	8.866380e+00	1.528726e+01	-2.689089e+00	-3.490125e+00	7.708298e+00	3.940983e+00	4.769604e+00	2.966648e+00	4.246302e+00	5.968243e+00	8.562612e+00	2.653916e-01	1.012419e+00	-2.822452e+00	2.426527e+00	1.443633e+01	-1.879603e+00	8.691702e-01	-1.088066e+00	2.359518e+00	5.213016e-01	9.321596e+00	8.872973e+00	3.337738e+00	8.098646e+00	1.057145e+01	1.079687e+01	1.019972e+01	1.041884e+01	9.826575e+00	1.948600e+00	9.888948e+00	1.109749e+01	8.060615e+00	1.282687e+01	1.266314e+01	1.362409e+01	9.272723e+00	3.468754e+00	1.189150e+01	3.249159e+00	-2.342529e+00	-1.172655e+00	-1.765506e+00	7.289457e+00	5.521044e+00	1.555727e+01	8.071466e+00	1.511337e+01	1.444325e+01	9.336625e+00	-4.885392e-01	-4.146740e-01	-6.351201e+00	2.676694e+00	1.590376e+00	1.292592e+01	2.478544e+00	1.630244e+00	1.747326e+00	3.462242e+00	1.015338e+01	9.736074e+00	1.119673e+01	8.555414e+00	9.499226e+00	5.953168e+00	6.529339e+00	7.135898e+00	5.800169e+00	6.544674e+00	1.536662e+01	1.166701e+01	1.606037e+00	8.779129e+00	3.128024e+00	1.036086e+00	1.950519e+00	3.392285e+00	-5.331995e+00	-6.132150e+00	5.164344e+00	-5.206016e+00	-3.351220e+00	1.681653e+00	1.058052e+01	1.164132e+01	1.613469e+01	6.320994e-02	7.255855e+00	7.742825e+00	4.397922e+00	4.376865e-01	1.351946e+00	1.479419e+01	9.466553e+00	1.474849e+01	1.755261e+00	7.958340e-01	9.796981e+00	7.906488e-01	-4.255521e+00	1.390263e+01	4.911197e+00	8.800715e-01	5.535803e-01	8.212719e+00	2.669509e-01	9.083048e-01	-1.237023e-02	2.755927e+00	-1.440194e-01	6.421655e-01	-4.300606e-01	-8.965542e-01	8.308369e-01	-1.853391e+00	1.197897e+00	5.498790e+00	6.875018e+00	-2.392092e-01	6.269384e+00	4.727626e+00	6.534331e+00	-1.493094e+00	4.105763e+00	7.323213e-01	4.314803e+00	-8.554564e-01	5.150138e-01	9.011182e+00	9.334822e+00	6.926254e+00	1.096996e+01	9.748821e+00	6.670602e+00	1.137115e+01	2.951501e+00	1.452722e+01	1.347268e+01	7.241909e+00	1.576253e+01	1.478434e+01	1.316164e+00	1.032705e+01	1.178815e+01	1.489343e+01	9.840158e+00	3.904788e+00	1.424856e+01	2.032425e+00	-3.690025e+00	1.436001e+01	-2.949095e+00	1.277024e+01	8.020074e+00	-4.150038e+00	1.196796e+01	9.162171e+00	2.425100e+00	7.111254e+00	-3.129005e+00	-3.719765e+00	7.945189e+00	1.710901e+00	2.567167e+00	1.012933e+01	7.328213e+00	7.675316e+00	1.088026e+01	9.707569e+00	2.807753e+00	1.357223e+00	1.232250e+00	7.555847e+00	-1.110083e+00	1.145018e+01	9.973969e+00	1.228879e+01	2.632585e+00	1.618086e+01	1.060279e+00	-3.955815e+00	-2.291971e+00	9.937205e+00	-2.732233e+00	1.062614e+01	1.087465e+01	5.377816e+00	4.756925e+00	8.913065e+00	-5.702252e-01	-7.835373e-02	4.280028e-01	-9.835816e-01	1.252502e+01	1.418528e+01	1.589983e+00	1.230316e+01	7.517933e+00	1.538276e+01	2.077797e-01	1.143060e+01	5.943220e+00	7.299286e+00	7.488019e-01	5.588714e+00	1.327055e+01	6.844334e+00	1.405896e+00	7.697019e+00	
SCALARS Y-Momentum float 1
LOOKUP_TABLE default
-2.605724e-02	2.091661e-01	7.455826e+00	4.319522e-01	6.226203e-01	2.230937e-01	6.226970e-02	-1.394088e-02	2.391279e-02	5.602632e-02	7.917070e-02	1.031305e-01	9.103742e-02	2.472192e-02	-4.158483e-03	2.717862e-04	5.265126e-03	2.966969e-03	8.826147e-03	1.015004e-02	-9.291772e-03	1.275702e-03	-2.680233e-03	6.703561e-03	-1.680499e-02	6.582511e-01	1.180429e+00	1.736877e+00	2.376760e+00	3.059508e+00	3.767901e+00	4.500642e+00	5.280674e+00	6.139573e+00	6.930562e+00	7.363585e+00	8.213113e+00	-3.508305e-01	2.805106e+00	3.721925e+00	4.480431e+00	4.976685e+00	5.265287e+00	5.363982e+00	5.237694e+00	4.895786e+00	4.385170e+00	3.691881e+00	2.841333e+00	1.767137e+00	-7.018065e-03	2.501193e-02	2.942316e-02	1.302333e-02	1.110635e-02	2.366625e-02	2.440303e-02	1.537991e-03	-5.718763e-02	-7.677564e-02	-9.584681e-02	-5.199135e-01	-6.174228e-01	-3.035145e-01	3.240907e-01	6.229842e-01	4.084423e-01	1.709797e-02	6.750785e-03	-3.205790e-03	-3.715950e-02	-2.327617e-02	-2.686293e-03	-4.942118e-03	5.129655e-03	-1.281225e-03	8.216096e+00	3.876179e+00	5.127132e-01	-2.723134e-01	5.058599e+00	4.706654e+00	7.116362e-01	6.675649e-01	4.628823e-01	8.236148e-02	5.356367e-01	8.540268e-01	4.263104e+00	2.613233e+00	6.624975e-01	9.488510e-01	4.750899e+00	6.266187e+00	2.944416e+00	1.433049e+00	-8.645774e-01	3.878403e-01	3.126915e-01	7.819353e-01	4.972599e-01	1.077591e+00	-6.451274e-01	2.887371e-01	-6.086742e-01	-4.050264e-02	7.446312e-01	8.740949e-01	1.338088e-01	1.104826e+00	1.812611e+00	2.130296e+00	1.499464e+00	2.509069e+00	2.030609e+00	3.002979e+00	3.580442e+00	4.162086e+00	4.493856e+00	5.118374e+00	4.875771e+00	5.592424e+00	4.659353e+00	5.354611e+00	2.424260e+00	2.599353e+00	4.035230e+00	1.838085e+00	2.466935e+00	3.959879e+00	4.120771e+00	5.541957e+00	3.978251e+00	4.820499e+00	3.524767e+00	3.058232e+00	3.981106e+00	2.886215e+00	2.895815e+00	3.188312e+00	2.643435e+00	3.071928e+00	3.382485e+00	5.826016e+00	1.503007e+00	1.832874e+00	2.983173e+00	2.791202e+00	2.869128e+00	2.979373e+00	2.260789e+00	4.060918e+00	2.683984e+00	3.553695e+00	2.162122e+00	2.609824e+00	1.910399e+00	3.227986e+00	6.748742e+00	2.061602e+00	6.048203e+00	5.673522e+00	3.115638e+00	3.407019e+00	3.768052e+00	3.810547e+00	1.703886e+00	9.631727e-01	8.519025e+00	5.074207e+00	4.338633e+00	3.057866e+00	3.549767e+00	1.682525e+00	3.595642e+00	2.213819e+00	1.934197e+00	3.996545e+00	3.712479e+00	7.509266e+00	2.851781e+00	3.229017e+00	2.458458e+00	1.578938e+00	1.863351e+00	2.284732e+00	7.240815e-01	1.651118e+00	2.436781e+00	2.119413e+00	2.568598e+00	6.328735e+00	7.026165e+00	1.108317e+00	4.427400e+00	4.468941e+00	1.958891e+00	3.410034e+00	3.840383e+00	2.459543e-01	3.336953e-01	-1.876625e-01	-2.166737e-01	-7.294028e-01	4.351836e+00	3.799542e+00	1.723591e+00	5.426284e+00	2.335474e+00	1.681285e+00	1.740937e+00	1.226284e+00	1.223306e+00	2.529364e+00	8.867480e+00	7.903751e+00	9.823307e+00	2.616686e+00	1.488529e+00	2.198366e+00	1.961385e+00	3.482029e+00	1.136722e+00	4.980268e+00	2.570494e+00	3.572617e+00	2.824549e+00	9.891526e+00	1.026459e+01	1.624289e+00	6.284930e-01	8.475509e-01	1.857500e+00	1.407914e+00	4.143043e+00	4.395405e+00	1.122271e-01	6.476514e+00	3.378720e+00	6.928641e-01	1.812944e+00	1.759915e+00	3.983752e+00	-9.163189e-01	7.568380e-01	7.173796e-01	4.739534e+00	5.453787e-01	3.378984e+00	5.975485e-01	1.111303e+00	9.079991e-01	1.345608e+00	1.782069e+00	1.374740e+00	6.448097e+00	4.319797e+00	8.639769e+00	7.943543e+00	4.464718e+00	5.363179e+00	8.199844e-01	8.069306e-01	4.627325e-01	6.688228e-01	-4.773804e-01	1.091091e+00	6.054758e-01	4.074179e-01	6.720410e+00	9.020907e-01	4.664442e+00	4.248720e-01	7.390941e-01	4.982019e-01	4.777037e+00	3.989331e+00	3.224693e+00	4.324525e-01	7.639733e-01	4.281000e+00	3.012321e+00	3.251023e-01	7.270859e+00	1.170322e+00	3.172466e+00	1.353710e+00	5.430546e+00	4.355324e+00	8.067691e-01	4.979871e+00	3.990355e+00	4.949382e+00	1.240939e+00	4.673086e+00	2.003427e+00	3.695391e+00	3.614659e+00	3.259522e+00	2.194546e+00	1.159914e+00	2.525838e+00	8.941282e+00	-9.274806e-01	3.276737e+00	-5.285443e-01	4.297620e+00	2.353319e+00	1.515708e+00	4.657628e+00	1.065994e+01	2.029573e+00	8.866484e-01	1.147598e+00	8.899133e-01	5.583540e+00	1.099889e+00	5.344724e+00	1.244181e+00	1.488079e+00	2.034064e+00	2.643501e+00	1.401360e+00	2.118613e+00	1.297873e+00	1.377219e+00	2.779466e+00	3.076807e+00	5.217697e-01	1.484410e+00	2.332331e+00	3.584036e+00	3.064053e+00	1.221561e+00	1.659156e+00	3.853303e+00	1.925023e+00	3.617893e+00	1.197735e+00	1.435154e+00	6.948207e+00	2.635109e+00	3.967187e+00	1.447171e+00	-5.208462e-01	-4.714632e-01	1.327368e-01	7.802195e+00	9.581597e+00	8.180080e+00	3.879523e+00	7.169547e+00	4.121067e+00	1.709303e+00	1.237563e+00	1.002410e+01	2.214113e+00	1.157043e+00	3.081543e+00	5.468786e+00	1.333784e-01	7.064353e-01	4.251709e+00	4.526822e-01	1.701612e+00	-5.615088e-02	-8.081819e-01	5.321353e-01	1.569833e+00	8.111246e-01	7.136123e+00	1.861198e+00	8.670605e+00	7.209392e-01	4.138013e+00	4.717008e+00	4.076854e-01	1.024780e+00	6.350213e+00	4.341311e+00	6.578939e+00	4.770394e+00	4.708539e+00	1.277821e+00	4.882306e+00	9.177571e-01	2.025323e+00	-5.385460e-01	4.655638e+00	-9.126638e-04	3.361673e+00	8.659926e+00	4.873866e+00	2.861597e+00	
SCALARS Energy float 1
LOOKUP_TABLE default