# vtk DataFile Version 3.0
vtk output
ASCII
DATASET UNSTRUCTURED_GRID
POINTS 394 float
-3.000000e+00	0.000000e+00	0.0	-5.000000e-02	2.980290e-17	0.0	3.551530e-01	1.028119e+00	0.0	4.552106e-01	9.721093e-01	0.0	5.000000e-02	-1.014377e-17	0.0	3.000000e+00	0.000000e+00	0.0	3.000000e+00	4.000000e+00	0.0	-3.000000e+00	4.000000e+00	0.0	-3.000000e+00	3.428571e+00	0.0	-3.000000e+00	2.857143e+00	0.0	-3.000000e+00	2.285714e+00	0.0	-3.000000e+00	1.714286e+00	0.0	-3.000000e+00	1.142857e+00	0.0	-3.000000e+00	5.714286e-01	0.0	-2.473871e+00	0.000000e+00	0.0	-2.029066e+00	0.000000e+00	0.0	-1.653013e+00	0.000000e+00	0.0	-1.335087e+00	0.000000e+00	0.0	-1.066302e+00	0.000000e+00	0.0	-8.390627e-01	0.000000e+00	0.0	-6.469477e-01	0.000000e+00	0.0	-4.845277e-01	0.000000e+00	0.0	-3.472127e-01	0.000000e+00	0.0	-2.311224e-01	0.000000e+00	0.0	-1.329760e-01	0.000000e+00	0.0	-4.516259e-02	8.197439e-02	0.0	-3.347265e-02	1.634515e-01	0.0	-1.523755e-02	2.443139e-01	0.0	8.621733e-03	3.246246e-01	0.0	3.729329e-02	4.044242e-01	0.0	7.000483e-02	4.837332e-01	0.0	1.059986e-01	5.625664e-01	0.0	1.445406e-01	6.409496e-01	0.0	1.849504e-01	7.189323e-01	0.0	2.266492e-01	7.965751e-01	0.0	2.691439e-01	8.739551e-01	0.0	3.121291e-01	9.510903e-01	0.0	4.051822e-01	1.000164e+00	0.0	4.120656e-01	8.952467e-01	0.0	3.691393e-01	8.184811e-01	0.0	3.266318e-01	7.419435e-01	0.0	2.849398e-01	6.656840e-01	0.0	2.445342e-01	5.897719e-01	0.0	2.059974e-01	5.142740e-01	0.0	1.700073e-01	4.392402e-01	0.0	1.372994e-01	3.646974e-01	0.0	1.086308e-01	2.906591e-01	0.0	8.477477e-02	2.171441e-01	0.0	6.654802e-02	1.441855e-01	0.0	5.479525e-02	7.181816e-02	0.0	1.329760e-01	0.000000e+00	0.0	2.311224e-01	0.000000e+00	0.0	3.472127e-01	0.000000e+00	0.0	4.845277e-01	0.000000e+00	0.0	6.469477e-01	0.000000e+00	0.0	8.390627e-01	0.000000e+00	0.0	1.066302e+00	0.000000e+00	0.0	1.335087e+00	0.000000e+00	0.0	1.653013e+00	0.000000e+00	0.0	2.029066e+00	0.000000e+00	0.0	2.473871e+00	0.000000e+00	0.0	3.000000e+00	5.714286e-01	0.0	3.000000e+00	1.142857e+00	0.0	3.000000e+00	1.714286e+00	0.0	3.000000e+00	2.285714e+00	0.0	3.000000e+00	2.857143e+00	0.0	3.000000e+00	3.428571e+00	0.0	2.400000e+00	4.000000e+00	0.0	1.800000e+00	4.000000e+00	0.0	1.200000e+00	4.000000e+00	0.0	6.000000e-01	4.000000e+00	0.0	0.000000e+00	4.000000e+00	0.0	-6.000000e-01	4.000000e+00	0.0	-1.200000e+00	4.000000e+00	0.0	-1.800000e+00	4.000000e+00	0.0	-2.400000e+00	4.000000e+00	0.0	1.930873e-01	9.324086e-01	0.0	4.380297e-01	8.436235e-01	0.0	-1.464170e+00	2.858556e-01	0.0	1.534702e+00	1.897722e-01	0.0	2.695115e-01	5.356351e-01	0.0	3.654280e-02	6.208409e-01	0.0	-7.276327e-01	1.976367e-01	0.0	7.773243e-01	1.220461e-01	0.0	-2.544928e+00	2.102369e+00	0.0	2.597098e+00	1.908856e+00	0.0	-8.375369e-01	3.523292e+00	0.0	1.029222e+00	3.445857e+00	0.0	1.810604e-01	3.183743e-01	0.0	-5.638572e-02	3.751569e-01	0.0	-4.026593e-01	1.349618e-01	0.0	4.335549e-01	8.800715e-02	0.0	3.524915e-01	6.855846e-01	0.0	1.093990e-01	7.786983e-01	0.0	1.475213e-01	1.772736e-01	0.0	-9.796465e-02	2.136724e-01	0.0	2.563739e+00	7.642327e-01	0.0	-2.480467e+00	8.194885e-01	0.0	-2.017882e+00	3.470762e+00	0.0	2.123101e+00	3.418778e+00	0.0	-1.786393e-01	8.471937e-02	0.0	1.908806e-01	6.527300e-02	0.0	2.257412e+00	3.540088e-01	0.0	-2.238880e+00	3.791559e-01	0.0	2.549884e+00	1.351073e+00	0.0	2.220430e+00	1.642441e+00	0.0	2.205571e+00	2.066147e+00	0.0	1.901629e+00	1.794177e+00	0.0	1.872601e+00	1.381937e+00	0.0	1.626865e+00	1.584075e+00	0.0	1.604111e+00	1.941029e+00	0.0	1.385142e+00	1.726483e+00	0.0	1.386143e+00	1.419108e+00	0.0	1.188127e+00	1.543689e+00	0.0	1.186236e+00	1.288408e+00	0.0	1.006406e+00	1.371653e+00	0.0	9.882994e-01	1.644105e+00	0.0	8.321246e-01	1.503128e+00	0.0	7.936723e-01	1.746589e+00	0.0	6.440802e-01	1.634672e+00	0.0	5.919834e-01	1.854446e+00	0.0	4.493490e-01	1.738425e+00	0.0	3.725709e-01	1.963335e+00	0.0	2.183781e-01	1.803731e+00	0.0	1.027321e+00	1.153341e+00	0.0	1.332044e+00	2.074399e+00	0.0	5.743598e-01	2.121770e+00	0.0	1.151366e+00	1.035720e+00	0.0	9.898610e-01	9.630719e-01	0.0	1.136253e-01	2.085943e+00	0.0	-9.757457e-02	1.940020e+00	0.0	1.020198e-02	1.666428e+00	0.0	-3.283328e-01	1.796938e+00	0.0	-2.558716e-01	1.560640e+00	0.0	-5.584093e-01	1.642711e+00	0.0	-5.866042e-01	1.877288e+00	0.0	-5.020437e-01	1.402824e+00	0.0	-8.174460e-01	1.477490e+00	0.0	8.842871e-01	1.050936e+00	0.0	8.472583e-01	8.795717e-01	0.0	9.455916e-01	7.847982e-01	0.0	-1.896946e-01	2.226237e+00	0.0	7.916090e-01	7.068623e-01	0.0	5.025165e-01	1.509309e+00	0.0	4.100347e-01	1.051946e+00	0.0	4.704132e-01	1.018144e+00	0.0	4.392181e-01	1.099445e+00	0.0	5.056481e-01	1.083748e+00	0.0	5.685378e-02	2.397519e+00	0.0	-7.756921e-01	1.215034e+00	0.0	-1.094592e+00	1.290749e+00	0.0	-4.734253e-01	1.142328e+00	0.0	-7.971568e-01	9.348494e-01	0.0	-5.129249e-01	9.131169e-01	0.0	-1.140670e+00	1.588704e+00	0.0	8.900096e-01	6.132523e-01	0.0	1.056119e+00	6.838156e-01	0.0	7.298216e-01	5.536452e-01	0.0	-1.700703e-03	1.435145e+00	0.0	1.559758e+00	2.309182e+00	0.0	3.619158e-01	1.113186e+00	0.0	4.011114e-01	1.176522e+00	0.0	5.269866e-01	9.928682e-01	0.0	5.782938e-01	1.065540e+00	0.0	5.442199e-01	1.158513e+00	0.0	5.960487e-01	9.625375e-01	0.0	9.955885e-01	5.115968e-01	0.0	1.197666e+00	6.005750e-01	0.0	3.024624e-01	1.190509e+00	0.0	-2.753470e-01	1.030121e+00	0.0	-3.054808e-01	8.512465e-01	0.0	-5.045838e-01	7.126263e-01	0.0	-3.019543e-01	6.780380e-01	0.0	-1.438018e+00	1.376419e+00	0.0	6.404550e-01	1.150239e+00	0.0	-2.868451e-01	2.545221e+00	0.0	-1.736229e-02	2.757406e+00	0.0	6.426559e-01	6.315774e-01	0.0	5.781451e-01	4.933592e-01	0.0	3.534249e-01	1.271891e+00	0.0	6.647261e-01	4.162665e-01	0.0	5.129617e-01	3.659053e-01	0.0	1.254270e+00	2.457689e+00	0.0	-1.494531e+00	1.709992e+00	0.0	1.495630e+00	2.701757e+00	0.0	5.952209e-01	2.906620e-01	0.0	1.116553e+00	3.511453e-01	0.0	-1.378178e+00	1.081253e+00	0.0	-4.839127e-01	5.329944e-01	0.0	-6.510013e-01	5.626789e-01	0.0	-3.341573e-01	4.927894e-01	0.0	-9.077303e-02	9.724877e-01	0.0	-8.960897e-02	1.122083e+00	0.0	-1.904569e+00	1.477084e+00	0.0	4.988283e-01	5.697470e-01	0.0	5.735081e-01	7.051550e-01	0.0	7.591055e-01	3.355793e-01	0.0	-1.899837e-01	5.880615e-01	0.0	9.274901e-01	1.924660e+00	0.0	1.340827e+00	5.140743e-01	0.0	1.401594e+00	7.234124e-01	0.0	1.567072e+00	5.874325e-01	0.0	1.642096e+00	8.582203e-01	0.0	1.874437e+00	7.285508e-01	0.0	5.849293e-01	1.258038e+00	0.0	6.971896e-01	1.246528e+00	0.0	-4.707461e-01	3.625707e-01	0.0	-2.413073e-01	1.366778e+00	0.0	-5.538043e-01	2.341576e+00	0.0	-6.761421e-01	2.692608e+00	0.0	-9.719470e-01	2.478268e+00	0.0	-1.090345e+00	2.833496e+00	0.0	-1.470132e+00	2.514179e+00	0.0	-2.045862e-01	4.362400e-01	0.0	2.312623e-01	1.283151e+00	0.0	2.779954e-01	1.385674e+00	0.0	1.864227e-01	1.192269e+00	0.0	3.684654e-01	2.562321e+00	0.0	3.006250e-01	3.024501e+00	0.0	6.676222e-01	2.764571e+00	0.0	-1.184360e+00	1.919902e+00	0.0	7.602091e-01	9.672110e-01	0.0	-1.530235e-01	3.173190e+00	0.0	-1.444346e-01	8.136852e-01	0.0	4.479963e-01	2.500058e-01	0.0	3.526979e-01	3.175721e-01	0.0	3.146588e-01	2.203168e-01	0.0	2.578007e-01	1.121438e+00	0.0	1.504700e-01	1.100603e+00	0.0	1.835479e+00	2.553965e+00	0.0	1.560764e+00	1.265334e+00	0.0	2.531178e+00	2.481357e+00	0.0	1.091080e+00	2.883861e+00	0.0	-1.557953e+00	2.073612e+00	0.0	4.191937e-01	4.363900e-01	0.0	2.976327e-01	3.952180e-01	0.0	1.240142e+00	1.701954e-01	0.0	-3.068337e-03	8.848123e-01	0.0	-1.048594e-01	5.182313e-01	0.0	4.729985e-01	3.520613e+00	0.0	-3.277487e-01	3.389623e-01	0.0	-2.150542e-01	3.038803e-01	0.0	7.080029e-01	8.069349e-01	0.0	2.212507e+00	9.983178e-01	0.0	-1.581639e+00	3.045363e+00	0.0	-1.940121e+00	2.698331e+00	0.0	6.332411e-01	1.375653e+00	0.0	-2.449295e+00	1.340695e+00	0.0	8.508268e-01	1.298887e+00	0.0	-1.175850e+00	2.577565e-01	0.0	-1.264883e+00	5.369916e-01	0.0	-1.554211e+00	5.864256e-01	0.0	-9.908756e-01	5.127003e-01	0.0	-1.072015e+00	7.749399e-01	0.0	1.768871e+00	3.014273e+00	0.0	2.250804e-01	1.618326e+00	0.0	6.104454e-01	8.408998e-01	0.0	9.818193e-02	1.287115e+00	0.0	3.679156e-02	9.738231e-01	0.0	4.940831e-01	7.708136e-01	0.0	-2.328781e-02	7.585501e-01	0.0	-5.446132e-01	1.997180e-01	0.0	5.885029e-01	9.804836e-02	0.0	1.001588e+00	1.582920e-01	0.0	-9.350816e-01	2.293555e-01	0.0	1.860782e+00	2.374222e-01	0.0	3.045441e-01	7.614127e-02	0.0	-2.756351e-01	1.088707e-01	0.0	-1.424845e+00	3.540127e+00	0.0	4.151065e-01	1.373760e+00	0.0	2.566276e+00	3.092857e+00	0.0	3.873522e-01	5.149915e-01	0.0	-1.816129e+00	3.291036e-01	0.0	-1.932015e+00	7.397640e-01	0.0	1.481932e+00	9.883610e-01	0.0	4.114248e-01	6.158953e-01	0.0	5.281735e-01	8.876360e-01	0.0	1.030166e+00	2.209788e+00	0.0	-2.489688e+00	2.548381e+00	0.0	1.529829e+00	3.499485e+00	0.0	-7.066389e-02	6.451337e-01	0.0	4.745848e-01	9.327606e-01	0.0	-2.420010e+00	3.087232e+00	0.0	1.499658e-01	8.546228e-01	0.0	8.887796e-01	2.540310e-01	0.0	7.069024e-01	2.407166e+00	0.0	-7.854364e-01	3.856857e-01	0.0	6.999987e-02	7.003965e-01	0.0	3.948949e-01	7.619439e-01	0.0	-2.095506e+00	1.107314e+00	0.0	3.092132e-01	6.137939e-01	0.0	-4.779973e-03	5.494949e-01	0.0	2.380450e-01	4.618030e-01	0.0	1.248053e+00	8.353801e-01	0.0	2.069873e-01	3.873889e-01	0.0	-7.648872e-02	2.922484e-01	0.0	1.586637e-01	2.474735e-01	0.0	2.457516e-01	2.715136e-01	0.0	-3.547598e-02	4.599519e-01	0.0	2.401305e-01	1.416743e-01	0.0	-1.936985e-01	1.934338e-01	0.0	-7.082506e-01	7.289501e-01	0.0	5.533917e-02	1.178303e+00	0.0	2.180348e+00	6.685088e-01	0.0	7.696294e-01	1.128168e+00	0.0	1.915167e+00	1.058503e+00	0.0	3.586328e-01	1.066813e+00	0.0	8.266683e-01	4.691547e-01	0.0	-6.125551e-01	3.761691e-01	0.0	4.367826e-01	7.100468e-01	0.0	2.273746e-01	1.051936e+00	0.0	1.259912e-01	1.057524e-01	0.0	-1.073382e-01	1.271493e-01	0.0	-1.836820e+00	1.846503e+00	0.0	-1.991009e+00	2.222610e+00	0.0	-2.372707e-01	1.196278e+00	0.0	-7.687053e-01	3.085687e+00	0.0	4.578930e-01	1.248474e+00	0.0	1.339763e+00	1.137844e+00	0.0	-4.014828e-01	2.923021e+00	0.0	1.080393e+00	8.576801e-01	0.0	9.539206e-01	2.544221e+00	0.0	7.194644e-01	3.128020e+00	0.0	-1.080643e+00	1.016053e+00	0.0	2.170157e+00	2.827844e+00	0.0	1.397509e+00	3.110109e+00	0.0	-1.191559e-01	
[...]
POINT_DATA 394

SCALARS Density float 1
LOOKUP_TABLE default
1.223713e+00	1.223952e+00	1.221448e+00	1.221758e+00	1.223246e+00	1.223551e+00	1.223278e+00	1.223583e+00	1.223567e+00	1.223579e+00	1.223622e+00	1.223649e+00	1.223715e+00	1.223721e+00	1.223732e+00	1.223723e+00	1.223754e+00	1.223775e+00	1.223818e+00	1.223845e+00	1.223865e+00	1.223931e+00	1.223904e+00	1.224009e+00	1.223899e+00	1.224047e+00	1.223906e+00	1.223916e+00	1.223903e+00	1.223859e+00	1.223830e+00	1.223773e+00	1.223757e+00	1.223661e+00	1.223746e+00	1.222916e+00	1.224887e+00	1.219543e+00	1.223718e+00	1.223223e+00	1.223248e+00	1.223229e+00	1.223170e+00	1.223137e+00	1.223123e+00	1.223119e+00	1.223135e+00	1.223167e+00	1.223092e+00	1.223313e+00	1.223099e+00	1.223206e+00	1.223135e+00	1.223079e+00	1.223039e+00	1.223010e+00	1.222928e+00	1.222938e+00	1.222954e+00	1.223107e+00	1.222643e+00	1.223287e+00	1.223024e+00	1.222864e+00	1.222812e+00	1.222949e+00	1.223100e+00	1.223105e+00	1.223241e+00	1.223274e+00	1.223356e+00	1.223408e+00	1.223488e+00	1.223541e+00	1.223572e+00	1.223572e+00	1.222936e+00	1.223606e+00	1.223764e+00	1.222896e+00	1.223175e+00	1.223735e+00	1.223843e+00	1.222975e+00	1.223619e+00	1.223290e+00	1.223509e+00	1.223305e+00	1.223137e+00	1.223866e+00	1.223918e+00	1.223081e+00	1.223320e+00	1.223516e+00	1.223218e+00	1.223926e+00	1.222916e+00	1.223714e+00	1.223592e+00	1.223131e+00	1.223965e+00	1.223183e+00	1.223054e+00	1.223706e+00	1.222928e+00	1.222840e+00	1.223091e+00	1.223071e+00	1.222946e+00	1.222964e+00	1.223000e+00	1.223238e+00	1.222743e+00	1.222820e+00	1.222861e+00	1.222993e+00	1.222826e+00	1.223136e+00	1.223110e+00	1.223254e+00	1.223164e+00	1.223227e+00	1.223441e+00	1.223318e+00	1.222799e+00	1.223010e+00	1.223251e+00	1.222653e+00	1.222826e+00	1.223405e+00	1.223494e+00	1.223501e+00	1.223435e+00	1.223579e+00	1.223651e+00	1.223540e+00	1.223625e+00	1.223627e+00	1.222984e+00	1.222880e+00	1.222979e+00	1.223501e+00	1.223008e+00	1.223178e+00	1.221155e+00	1.221518e+00	1.222662e+00	1.222688e+00	1.223407e+00	1.223697e+00	1.223685e+00	1.223736e+00	1.223750e+00	1.223765e+00	1.223645e+00	1.222909e+00	1.222729e+00	1.223013e+00	1.223515e+00	1.223195e+00	1.221580e+00	1.223114e+00	1.222574e+00	1.222627e+00	1.222464e+00	1.222885e+00	1.222946e+00	1.222862e+00	1.223113e+00	1.223710e+00	1.223753e+00	1.223787e+00	1.223761e+00	1.223673e+00	1.222540e+00	1.223466e+00	1.223453e+00	1.223154e+00	1.223066e+00	1.223064e+00	1.223029e+00	1.223086e+00	1.223284e+00	1.223642e+00	1.223174e+00	1.223085e+00	1.222835e+00	1.223720e+00	1.223824e+00	1.223846e+00	1.223924e+00	1.223640e+00	1.223576e+00	1.223681e+00	1.223129e+00	1.223208e+00	1.222968e+00	1.223832e+00	1.223361e+00	1.222720e+00	1.222918e+00	1.222685e+00	1.222684e+00	1.222832e+00	1.222757e+00	1.222738e+00	1.223892e+00	1.223512e+00	1.223525e+00	1.223507e+00	1.223570e+00	1.223552e+00	1.223610e+00	1.223853e+00	1.223118e+00	1.223472e+00	1.223437e+00	1.223329e+00	1.223368e+00	1.223398e+00	1.223616e+00	1.222732e+00	1.223405e+00	1.223797e+00	1.223069e+00	1.223094e+00	1.223134e+00	1.223655e+00	1.223066e+00	1.223096e+00	1.222719e+00	1.223291e+00	1.223294e+00	1.223633e+00	1.223168e+00	1.223046e+00	1.222736e+00	1.223597e+00	1.223947e+00	1.223402e+00	1.223891e+00	1.223925e+00	1.222925e+00	1.222719e+00	1.223547e+00	1.223584e+00	1.222594e+00	1.223660e+00	1.222836e+00	1.223803e+00	1.223823e+00	1.223694e+00	1.223797e+00	1.223724e+00	1.223261e+00	1.223480e+00	1.222997e+00	1.223411e+00	1.223659e+00	1.223272e+00	1.223800e+00	1.223944e+00	1.223054e+00	1.222958e+00	1.223840e+00	1.222751e+00	1.223208e+00	1.223978e+00	1.223550e+00	1.223023e+00	1.223166e+00	1.223213e+00	1.223760e+00	1.223708e+00	1.222815e+00	1.223160e+00	1.222858e+00	1.223219e+00	1.223622e+00	1.223239e+00	1.223746e+00	1.222948e+00	1.223607e+00	1.223997e+00	1.222953e+00	1.223342e+00	1.223807e+00	1.223778e+00	1.223229e+00	1.223678e+00	1.223244e+00	1.223783e+00	1.223159e+00	1.222806e+00	1.223149e+00	1.223910e+00	1.223146e+00	1.223081e+00	1.223803e+00	1.223059e+00	1.223957e+00	1.223763e+00	1.223566e+00	1.222719e+00	1.222823e+00	1.223119e+00	1.225415e+00	1.222992e+00	1.223890e+00	1.223132e+00	1.223402e+00	1.223125e+00	1.223934e+00	1.223627e+00	1.223632e+00	1.223636e+00	1.223507e+00	1.222648e+00	1.222895e+00	1.223467e+00	1.222746e+00	1.223236e+00	1.223280e+00	1.223758e+00	1.223304e+00	1.223245e+00	1.223904e+00	1.223550e+00	1.223503e+00	1.223066e+00	1.223552e+00	1.222727e+00	1.223150e+00	1.223875e+00	1.223031e+00	1.223362e+00	1.223085e+00	1.223364e+00	1.223727e+00	1.222987e+00	1.223299e+00	1.223620e+00	1.222804e+00	1.223730e+00	1.223055e+00	1.222223e+00	1.223739e+00	1.223740e+00	1.223183e+00	1.223380e+00	1.222368e+00	1.223597e+00	1.223074e+00	1.223589e+00	1.223811e+00	1.225519e+00	1.223910e+00	1.223721e+00	1.223075e+00	1.223189e+00	1.223560e+00	1.223414e+00	1.223769e+00	1.223033e+00	1.223927e+00	1.222882e+00	1.222817e+00	1.223570e+00	1.222835e+00	1.223566e+00	1.223290e+00	1.223796e+00	1.223748e+00	1.223684e+00	1.223075e+00	1.223088e+00	1.223962e+00	1.223289e+00	1.223473e+00	1.223139e+00	1.223528e+00	1.222694e+00	1.223395e+00	1.223157e+00	1.223108e+00	1.223462e+00	1.223748e+00	1.222849e+00	1.223243e+00	1.222588e+00	1.223273e+00	1.222879e+00	1.223643e+00	1.222708e+00	
SCALARS X-Momentum float 1
LOOKUP_TABLE default
8.755749e+00	3.834047e-01	6.654707e+00	-3.948137e-01	-6.253213e-01	-4.489589e+00	1.619392e+01	1.036381e+01	1.023012e+01	1.002451e+01	9.770360e+00	9.475531e+00	9.196571e+00	8.933019e+00	8.606417e+00	8.305323e+00	7.849890e+00	7.259552e+00	6.584642e+00	5.810863e+00	4.936257e+00	4.085039e+00	3.102266e+00	2.134260e+00	1.180131e+00	6.034642e-02	3.794574e-01	8.398376e-01	1.368832e+00	1.952580e+00	2.540208e+00	3.110536e+00	3.669836e+00	4.199227e+00	4.591595e+00	4.577018e+00	4.254846e+00	3.903984e+00	6.101056e-01	8.748987e-01	1.386597e+00	1.707848e+00	1.900093e+00	1.965605e+00	1.852715e+00	1.602575e+00	1.273413e+00	8.842647e-01	5.268241e-01	2.500233e-01	-2.022000e+00	-3.649905e+00	-5.009677e+00	-6.204798e+00	-7.161331e+00	-7.869364e+00	-8.361417e+00	-8.589776e+00	-8.085751e+00	-7.150408e+00	-6.165960e+00	-5.859596e-01	4.961392e+00	1.034517e+01	1.417838e+01	1.601236e+01	1.640814e+01	1.550687e+01	1.465046e+01	1.372539e+01	1.295660e+01	1.231241e+01	1.173526e+01	1.121445e+01	1.078400e+01	1.049694e+01	4.969426e+00	1.649374e+00	7.732528e+00	-5.822127e+00	1.897840e+00	4.066348e+00	5.639823e+00	-5.591665e+00	9.702690e+00	1.257326e+01	1.136800e+01	1.383465e+01	9.583588e-01	2.398515e+00	3.710425e+00	-4.204190e+00	1.977931e+00	4.965015e+00	-5.923685e-02	1.436307e+00	1.209528e+00	8.939639e+00	1.048954e+01	1.549735e+01	1.675857e+00	-1.969243e+00	-3.068764e+00	8.620424e+00	7.489425e+00	1.094240e+01	1.408864e+01	1.293499e+01	8.952296e+00	1.167339e+01	1.440762e+01	1.348409e+01	1.030527e+01	1.219670e+01	8.668162e+00	1.042002e+01	1.373550e+01	1.280464e+01	1.458894e+01	1.424605e+01	1.455827e+01	1.413197e+01	1.371239e+01	1.295002e+01	6.733753e+00	1.515693e+01	1.420543e+01	5.049093e+00	4.004544e+00	1.258629e+01	1.172872e+01	1.168102e+01	1.083309e+01	1.041225e+01	1.009206e+01	1.045515e+01	9.485216e+00	9.453051e+00	4.816839e+00	2.846068e+00	2.131083e+00	1.169996e+01	1.733283e+00	1.385850e+01	5.523306e+00	2.096346e+00	6.533577e+00	4.451207e+00	1.240230e+01	8.793578e+00	8.983003e+00	8.591351e+00	7.922752e+00	7.547868e+00	9.504298e+00	6.509836e-01	9.927694e-01	6.868733e-01	1.095014e+01	1.548949e+01	9.663573e+00	1.057729e+01	1.827628e+00	3.855804e+00	7.353811e+00	2.357870e+00	-9.117926e-01	-4.197252e-01	1.161755e+01	8.044829e+00	6.982527e+00	6.601425e+00	5.837679e+00	9.149371e+00	6.344614e+00	1.167939e+01	1.226250e+01	1.748175e+00	8.002341e-01	1.257658e+01	-5.541840e-01	-3.635994e-01	1.528928e+01	9.573616e+00	1.532949e+01	-1.884061e+00	-3.152361e+00	8.675025e+00	5.706383e+00	6.348060e+00	4.879732e+00	7.372036e+00	8.587137e+00	9.286334e+00	1.802336e+00	2.344828e+00	-2.100272e+00	4.813788e+00	1.494577e+01	-1.685521e+00	9.018462e-01	-9.343297e-01	2.405149e+00	7.308469e-01	1.013550e+01	9.167937e+00	4.898476e+00	9.705161e+00	1.108441e+01	1.119600e+01	1.068929e+01	1.081990e+01	1.031857e+01	3.844047e+00	1.204527e+01	1.292534e+01	1.066624e+01	1.314586e+01	1.282670e+01	1.378960e+01	9.950408e+00	3.323745e+00	1.209528e+01	6.309244e+00	-1.527966e+00	-4.411570e-02	-1.008681e+00	1.018091e+01	8.777252e+00	1.561404e+01	7.971660e+00	1.534420e+01	1.449593e+01	9.933425e+00	9.491367e-01	1.051499e+00	-6.029283e+00	6.386979e+00	3.939110e+00	1.294274e+01	4.041678e+00	3.060023e+00	2.395718e+00	3.754897e+00	1.054412e+01	1.019315e+01	1.218341e+01	9.244497e+00	9.612243e+00	7.155261e+00	7.686715e+00	8.164299e+00	7.111851e+00	7.786079e+00	1.532245e+01	1.290219e+01	2.393223e+00	1.091130e+01	6.987811e+00	2.316907e+00	5.439810e+00	4.746121e+00	-5.031976e+00	-5.816947e+00	6.462931e+00	-4.892556e+00	-3.164018e+00	2.664814e+00	1.087068e+01	1.340829e+01	1.611832e+01	1.706573e+00	8.242731e+00	8.638274e+00	4.297151e+00	2.085671e+00	1.967779e+00	1.512037e+01	9.950677e+00	1.462274e+01	4.670039e+00	9.671373e-01	1.021083e+01	5.270783e+00	-3.786546e+00	1.422809e+01	6.327426e+00	4.548293e+00	1.811854e+00	8.996988e+00	1.980253e+00	3.612886e+00	1.673194e+00	2.613221e+00	1.357266e+00	1.858030e+00	4.937344e-01	1.173883e-01	3.004296e+00	-1.405342e+00	2.198696e+00	7.083604e+00	9.515765e+00	7.240781e-02	6.017271e+00	4.847500e+00	8.396672e+00	-7.236456e-01	5.601401e+00	2.254019e+00	7.903525e+00	-5.503869e-01	1.053031e+00	9.642491e+00	9.880605e+00	8.934122e+00	1.128295e+01	1.126211e+01	6.446524e+00	1.167467e+01	2.807294e+00	1.471340e+01	1.352824e+01	8.383948e+00	1.577290e+01	1.474554e+01	3.261924e+00	1.098726e+01	1.192180e+01	1.503144e+01	1.047174e+01	3.643928e+00	1.455527e+01	3.285271e+00	-3.161385e+00	1.481802e+01	-2.462900e+00	1.328269e+01	8.872534e+00	-3.613799e+00	1.349617e+01	9.971191e+00	2.594688e+00	8.189649e+00	-2.880152e+00	-3.068636e+00	8.789492e+00	6.043603e+00	6.610530e+00	1.194189e+01	8.407685e+00	9.728844e+00	1.146930e+01	1.027415e+01	4.195800e+00	5.752439e+00	2.801600e+00	8.512682e+00	-3.705543e-01	1.290377e+01	1.033634e+01	1.238632e+01	5.478020e+00	1.600419e+01	2.281237e+00	-3.682573e+00	-1.996078e+00	1.034209e+01	-2.183955e+00	1.095480e+01	1.235124e+01	6.830849e+00	8.072827e+00	9.529687e+00	7.216273e-01	1.559380e+00	7.803048e-01	-8.781365e-01	1.378757e+01	1.479721e+01	5.638094e+00	1.325234e+01	9.192906e+00	1.550386e+01	1.917947e+00	1.166087e+01	7.342549e+00	7.544814e+00	2.301454e+00	5.553354e+00	1.367826e+01	9.107885e+00	4.756005e+00	7.427005e+00	
SCALARS Y-Momentum float 1
LOOKUP_TABLE default
-1.988479e-02	3.773084e-01	5.886882e+00	-9.438429e-01	5.934281e-01	2.354118e-01	5.942674e-02	-1.249374e-02	1.607920e-02	4.355153e-02	5.982798e-02	7.683362e-02	6.425059e-02	1.161006e-02	-3.792697e-03	-2.204358e-04	6.480097e-03	5.541951e-03	1.126990e-02	1.378809e-02	-1.891271e-03	2.112979e-02	7.221105e-03	7.120268e-03	-3.105622e-02	1.226834e+00	2.216000e+00	3.175649e+00	4.165601e+00	5.092832e+00	5.933820e+00	6.703133e+00	7.443595e+00	8.217877e+00	8.810613e+00	8.992013e+00	9.186505e+00	-2.502974e+00	1.195266e+00	2.054160e+00	2.857900e+00	3.488093e+00	3.897733e+00	4.131502e+00	4.152226e+00	3.976900e+00	3.639312e+00	3.130037e+00	2.487493e+00	1.614835e+00	-1.679558e-03	3.673064e-02	2.676423e-02	8.482739e-03	2.189505e-03	7.390485e-03	1.154154e-02	2.594292e-03	-4.525699e-02	-7.015641e-02	-1.031709e-01	-5.554610e-01	-5.532535e-01	-7.295740e-02	6.179256e-01	8.379266e-01	4.922572e-01	1.182808e-02	-6.111910e-04	-1.113277e-02	-4.081400e-02	-2.621893e-02	-5.088582e-03	-5.196189e-03	2.415688e-03	-3.049206e-03	9.241085e+00	2.531311e+00	5.043739e-01	-2.358041e-01	3.723564e+00	6.482980e+00	8.789094e-01	4.785784e-01	3.907195e-01	2.830764e-01	4.438086e-01	8.207648e-01	3.395990e+00	4.197233e+00	9.645293e-01	6.933893e-01	3.264410e+00	7.825370e+00	2.441035e+00	2.489194e+00	-9.065970e-01	3.287891e-01	2.569802e-01	8.153952e-01	8.275367e-01	9.231535e-01	-6.670524e-01	2.505317e-01	-5.409399e-01	1.544546e-02	8.706269e-01	8.371871e-01	2.843243e-02	8.584626e-01	1.688575e+00	1.764687e+00	1.054772e+00	1.902999e+00	1.397860e+00	2.106774e+00	2.923365e+00	3.262434e+00	3.970849e+00	4.520747e+00	4.541581e+00	5.259499e+00	4.375475e+00	5.034482e+00	1.683579e+00	2.416571e+00	3.782743e+00	1.410874e+00	2.038947e+00	3.630113e+00	3.725166e+00	5.134131e+00	3.537315e+00	4.348437e+00	3.121933e+00	2.661498e+00	3.616454e+00	2.587261e+00	2.209591e+00	2.810851e+00	2.381735e+00	2.712681e+00	3.002499e+00	5.260633e+00	3.280030e-01	4.653547e-01	1.585428e+00	1.323403e+00	2.577377e+00	2.778855e+00	2.054731e+00	3.870666e+00	2.622392e+00	3.590803e+00	1.911008e+00	2.301696e+00	1.769869e+00	2.654256e+00	6.285365e+00	2.030630e+00	5.645267e+00	4.889586e+00	2.080904e+00	2.196334e+00	2.329577e+00	3.098273e+00	1.519082e+00	9.336160e-01	8.272484e+00	4.988383e+00	4.605748e+00	3.336115e+00	4.176379e+00	1.493668e+00	2.264320e+00	1.916461e+00	1.695746e+00	3.303954e+00	2.841694e+00	7.182068e+00	2.180281e+00	2.377746e+00	2.379119e+00	1.380053e+00	1.866621e+00	1.661030e+00	6.417889e-01	1.499184e+00	2.894869e+00	2.385795e+00	3.306659e+00	6.475008e+00	6.706957e+00	9.631953e-01	3.343289e+00	3.658486e+00	1.496897e+00	4.444403e+00	3.455411e+00	2.861815e-01	3.190602e-01	-1.309182e-01	-2.239308e-01	-7.249705e-01	3.063003e+00	2.507162e+00	2.208239e+00	4.950949e+00	2.004043e+00	1.429531e+00	1.480189e+00	1.036179e+00	1.040804e+00	3.578427e+00	8.671090e+00	7.638787e+00	9.640806e+00	2.395201e+00	1.330599e+00	2.058432e+00	1.702817e+00	2.889719e+00	9.708837e-01	5.619100e+00	1.894441e+00	2.688783e+00	2.178877e+00	9.771777e+00	1.014776e+01	1.688632e+00	3.901061e-01	1.040432e+00	1.799073e+00	1.212172e+00	3.059852e+00	3.300302e+00	9.512060e-02	7.164687e+00	4.741449e+00	6.231025e-01	2.501879e+00	2.661856e+00	3.533363e+00	-9.665313e-01	6.357571e-01	6.099749e-01	3.714003e+00	4.615839e-01	2.230403e+00	6.269592e-01	1.102349e+00	8.532921e-01	1.419926e+00	1.748684e+00	1.411004e+00	6.141922e+00	3.733229e+00	8.249035e+00	8.262695e+00	3.364163e+00	6.532280e+00	1.091951e+00	5.650201e-01	3.457472e-01	7.560752e-01	-4.425100e-01	8.687788e-01	9.421181e-01	3.373249e-01	6.253509e+00	1.010859e+00	3.401309e+00	3.914364e-01	6.590849e-01	3.709146e-01	3.423136e+00	3.157999e+00	3.022365e+00	3.638499e-01	7.653929e-01	5.622034e+00	1.904189e+00	2.712042e-01	8.724107e+00	9.115443e-01	2.980899e+00	1.553554e+00	7.137508e+00	2.839229e+00	6.994760e-01	3.542916e+00	5.747459e+00	3.748467e+00	1.101345e+00	3.638887e+00	3.371481e+00	3.009187e+00	2.832241e+00	4.959983e+00	1.770278e+00	1.880694e+00	2.635543e+00	8.544687e+00	-9.532605e-01	2.246009e+00	-5.819505e-01	3.351374e+00	1.923931e+00	1.847284e+00	3.298220e+00	1.077320e+01	1.751419e+00	1.561568e+00	9.907861e-01	7.597307e-01	5.237191e+00	9.262120e-01	4.381318e+00	9.059902e-01	1.265335e+00	1.799764e+00	2.530920e+00	1.303077e+00	1.990006e+00	1.396627e+00	1.376747e+00	4.133599e+00	2.674216e+00	4.341061e-01	1.527686e+00	2.007406e+00	2.702369e+00	2.653804e+00	1.806837e+00	1.188569e+00	3.608730e+00	1.451312e+00	3.353423e+00	1.057617e+00	1.031853e+00	6.642748e+00	2.306960e+00	3.463863e+00	1.361433e+00	-4.699187e-01	-5.124013e-01	1.103325e-01	8.712226e+00	1.000263e+01	7.845642e+00	2.550035e+00	6.674089e+00	2.995573e+00	1.464017e+00	1.713603e+00	1.067259e+01	3.438683e+00	1.050601e+00	2.463277e+00	4.597209e+00	1.080721e-01	6.059375e-01	5.189075e+00	4.852272e-01	2.767425e+00	3.862539e-03	-7.885832e-01	4.468412e-01	1.288984e+00	6.773098e-01	6.792286e+00	2.012805e+00	8.510127e+00	6.163603e-01	3.184860e+00	3.455855e+00	7.157645e-01	9.216135e-01	6.059940e+00	4.014464e+00	7.729691e+00	3.888000e+00	4.343629e+00	1.410265e+00	3.510563e+00	7.658768e-01	2.068905e+00	-5.791725e-01	3.487009e+00	-9.888711e-02	3.135361e+00	8.105069e+00	6.336122e+00	1.892162e+00	
SCALARS Energy float 1
LOOKUP_TABLE default