# vtk DataFile Version 3.0
vtk output
ASCII
DATASET UNSTRUCTURED_GRID
POINTS 394 float
-3.000000e+00	0.000000e+00	0.0	-5.000000e-02	4.675706e-17	0.0	3.931100e-01	1.030854e+00	0.0	4.931626e-01	9.696599e-01	0.0	5.000000e-02	-9.419347e-18	0.0	3.000000e+00	0.000000e+00	0.0	3.000000e+00	4.000000e+00	0.0	-3.000000e+00	4.000000e+00	0.0	-3.000000e+00	3.428571e+00	0.0	-3.000000e+00	2.857143e+00	0.0	-3.000000e+00	2.285714e+00	0.0	-3.000000e+00	1.714286e+00	0.0	-3.000000e+00	1.142857e+00	0.0	-3.000000e+00	5.714286e-01	0.0	-2.473871e+00	0.000000e+00	0.0	-2.029066e+00	0.000000e+00	0.0	-1.653013e+00	0.000000e+00	0.0	-1.335087e+00	0.000000e+00	0.0	-1.066302e+00	0.000000e+00	0.0	-8.390627e-01	0.000000e+00	0.0	-6.469477e-01	0.000000e+00	0.0	-4.845277e-01	0.000000e+00	0.0	-3.472127e-01	0.000000e+00	0.0	-2.311224e-01	0.000000e+00	0.0	-1.329760e-01	0.000000e+00	0.0	-4.460658e-02	8.254597e-02	0.0	-3.162664e-02	1.645069e-01	0.0	-1.145887e-02	2.457502e-01	0.0	1.481329e-02	3.263521e-01	0.0	4.624941e-02	4.063766e-01	0.0	8.199319e-02	4.858675e-01	0.0	1.212394e-01	5.648555e-01	0.0	1.632269e-01	6.433735e-01	0.0	2.072566e-01	7.214731e-01	0.0	2.527316e-01	7.992114e-01	0.0	2.991294e-01	8.766566e-01	0.0	3.460867e-01	9.538207e-01	0.0	4.431363e-01	1.000303e+00	0.0	4.460283e-01	8.928045e-01	0.0	3.991259e-01	8.160708e-01	0.0	3.527141e-01	7.395966e-01	0.0	3.072430e-01	6.634228e-01	0.0	2.632145e-01	5.876081e-01	0.0	2.212298e-01	5.122157e-01	0.0	1.819859e-01	4.373000e-01	0.0	1.462461e-01	3.628987e-01	0.0	1.148148e-01	2.890454e-01	0.0	8.854861e-02	2.157860e-01	0.0	6.839149e-02	1.431778e-01	0.0	5.534372e-02	7.126592e-02	0.0	1.329760e-01	0.000000e+00	0.0	2.311224e-01	0.000000e+00	0.0	3.472127e-01	0.000000e+00	0.0	4.845277e-01	0.000000e+00	0.0	6.469477e-01	0.000000e+00	0.0	8.390627e-01	0.000000e+00	0.0	1.066302e+00	0.000000e+00	0.0	1.335087e+00	0.000000e+00	0.0	1.653013e+00	0.000000e+00	0.0	2.029066e+00	0.000000e+00	0.0	2.473871e+00	0.000000e+00	0.0	3.000000e+00	5.714286e-01	0.0	3.000000e+00	1.142857e+00	0.0	3.000000e+00	1.714286e+00	0.0	3.000000e+00	2.285714e+00	0.0	3.000000e+00	2.857143e+00	0.0	3.000000e+00	3.428571e+00	0.0	2.400000e+00	4.000000e+00	0.0	1.800000e+00	4.000000e+00	0.0	1.200000e+00	4.000000e+00	0.0	6.000000e-01	4.000000e+00	0.0	0.000000e+00	4.000000e+00	0.0	-6.000000e-01	4.000000e+00	0.0	-1.200000e+00	4.000000e+00	0.0	-1.800000e+00	4.000000e+00	0.0	-2.400000e+00	4.000000e+00	0.0	2.231899e-01	9.365455e-01	0.0	4.700931e-01	8.397203e-01	0.0	-1.462625e+00	2.891965e-01	0.0	1.538860e+00	1.862083e-01	0.0	2.864757e-01	5.322374e-01	0.0	5.296615e-02	6.251516e-01	0.0	-7.259633e-01	2.012224e-01	0.0	7.809686e-01	1.188367e-01	0.0	-2.541278e+00	2.104917e+00	0.0	2.605525e+00	1.905889e+00	0.0	-8.292784e-01	3.525166e+00	0.0	1.041325e+00	3.445292e+00	0.0	1.889298e-01	3.157541e-01	0.0	-4.920896e-02	3.783277e-01	0.0	-4.014742e-01	1.375622e-01	0.0	4.357440e-01	8.604866e-02	0.0	3.766591e-01	6.818322e-01	0.0	1.326157e-01	7.832330e-01	0.0	1.509981e-01	1.754246e-01	0.0	-9.499073e-02	2.158344e-01	0.0	2.568808e+00	7.590966e-01	0.0	-2.478574e+00	8.224680e-01	0.0	-2.014396e+00	3.472684e+00	0.0	2.129495e+00	3.417084e+00	0.0	-1.780135e-01	8.590393e-02	0.0	1.918777e-01	6.427321e-02	0.0	2.261675e+00	3.495764e-01	0.0	-2.237970e+00	3.812139e-01	0.0	2.559271e+00	1.346228e+00	0.0	2.235111e+00	1.636362e+00	0.0	2.220544e+00	2.062194e+00	0.0	1.921217e+00	1.788339e+00	0.0	1.891151e+00	1.373570e+00	0.0	1.650478e+00	1.576814e+00	0.0	1.627574e+00	1.935805e+00	0.0	1.412427e+00	1.720564e+00	0.0	1.412756e+00	1.411420e+00	0.0	1.218107e+00	1.537684e+00	0.0	1.215516e+00	1.280804e+00	0.0	1.039356e+00	1.365547e+00	0.0	1.021008e+00	1.640234e+00	0.0	8.677111e-01	1.499824e+00	0.0	8.274624e-01	1.744912e+00	0.0	6.799119e-01	1.633628e+00	0.0	6.259083e-01	1.854351e+00	0.0	4.848192e-01	1.739932e+00	0.0	4.056581e-01	1.964935e+00	0.0	2.530883e-01	1.807033e+00	0.0	1.058277e+00	1.145971e+00	0.0	1.358072e+00	2.070190e+00	0.0	6.056331e-01	2.121939e+00	0.0	1.178470e+00	1.026857e+00	0.0	1.018010e+00	9.551128e-01	0.0	1.438665e-01	2.089181e+00	0.0	-6.834675e-02	1.945641e+00	0.0	4.397766e-02	1.672459e+00	0.0	-3.019898e-01	1.805140e+00	0.0	-2.275318e-01	1.570123e+00	0.0	-5.350465e-01	1.652008e+00	0.0	-5.635798e-01	1.885884e+00	0.0	-4.781112e-01	1.413847e+00	0.0	-7.989354e-01	1.487269e+00	0.0	9.159157e-01	1.044418e+00	0.0	8.760925e-01	8.723649e-01	0.0	9.701473e-01	7.766920e-01	0.0	-1.636116e-01	2.231747e+00	0.0	8.156105e-01	6.991812e-01	0.0	5.397459e-01	1.509886e+00	0.0	4.483870e-01	1.052754e+00	0.0	5.088527e-01	1.016302e+00	0.0	4.776497e-01	1.099835e+00	0.0	5.437857e-01	1.082454e+00	0.0	8.368596e-02	2.401281e+00	0.0	-7.592789e-01	1.225146e+00	0.0	-1.081720e+00	1.300213e+00	0.0	-4.516704e-01	1.153419e+00	0.0	-7.862989e-01	9.450487e-01	0.0	-4.976141e-01	9.241424e-01	0.0	-1.125922e+00	1.597786e+00	0.0	9.097010e-01	6.049322e-01	0.0	1.076670e+00	6.749128e-01	0.0	7.485084e-01	5.459906e-01	0.0	3.210660e-02	1.442666e+00	0.0	1.581517e+00	2.305399e+00	0.0	4.001865e-01	1.115745e+00	0.0	4.394890e-01	1.178058e+00	0.0	5.641286e-01	9.899218e-01	0.0	6.155037e-01	1.062750e+00	0.0	5.824053e-01	1.157165e+00	0.0	6.312578e-01	9.583741e-01	0.0	1.011318e+00	5.028336e-01	0.0	1.214446e+00	5.919553e-01	0.0	3.396540e-01	1.194040e+00	0.0	-2.523086e-01	1.040611e+00	0.0	-2.879370e-01	8.618502e-01	0.0	-4.937680e-01	7.219614e-01	0.0	-2.890902e-01	6.876337e-01	0.0	-1.427682e+00	1.385130e+00	0.0	6.774135e-01	1.147349e+00	0.0	-2.647721e-01	2.550233e+00	0.0	4.058583e-03	2.761421e+00	0.0	6.650121e-01	6.239936e-01	0.0	5.950832e-01	4.865232e-01	0.0	3.911585e-01	1.274556e+00	0.0	6.784210e-01	4.095774e-01	0.0	5.245082e-01	3.601855e-01	0.0	1.278180e+00	2.455283e+00	0.0	-1.482815e+00	1.717849e+00	0.0	1.514788e+00	2.698919e+00	0.0	6.041350e-01	2.853210e-01	0.0	1.126510e+00	3.437822e-01	0.0	-1.369957e+00	1.089792e+00	0.0	-4.767428e-01	5.405575e-01	0.0	-6.442044e-01	5.704492e-01	0.0	-3.266161e-01	5.000087e-01	0.0	-6.514464e-02	9.820447e-01	0.0	-6.086935e-02	1.131234e+00	0.0	-1.897151e+00	1.483730e+00	0.0	5.193456e-01	5.626689e-01	0.0	5.994017e-01	6.979941e-01	0.0	7.698915e-01	3.292536e-01	0.0	-1.779585e-01	5.958850e-01	0.0	9.593667e-01	1.922909e+00	0.0	1.354065e+00	5.063832e-01	0.0	1.418543e+00	7.143604e-01	0.0	1.579607e+00	5.792330e-01	0.0	1.658897e+00	8.495039e-01	0.0	1.886079e+00	7.207234e-01	0.0	6.224755e-01	1.256509e+00	0.0	7.337256e-01	1.243554e+00	0.0	-4.667665e-01	3.682004e-01	0.0	-2.135539e-01	1.377214e+00	0.0	-5.322896e-01	2.347979e+00	0.0	-6.589509e-01	2.697512e+00	0.0	-9.556624e-01	2.484295e+00	0.0	-1.077085e+00	2.837496e+00	0.0	-1.458045e+00	2.519963e+00	0.0	-1.973541e-01	4.423957e-01	0.0	2.674539e-01	1.287802e+00	0.0	3.146825e-01	1.389623e+00	0.0	2.215700e-01	1.197690e+00	0.0	3.955284e-01	2.563633e+00	0.0	3.193686e-01	3.026375e+00	0.0	6.912426e-01	2.764462e+00	0.0	-1.169076e+00	1.927992e+00	0.0	7.929188e-01	9.610545e-01	0.0	-1.388204e-01	3.176728e+00	0.0	-1.250177e-01	8.232579e-01	0.0	4.547441e-01	2.456833e-01	0.0	3.614669e-01	3.124335e-01	0.0	3.200566e-01	2.166147e-01	0.0	2.938903e-01	1.125723e+00	0.0	1.837567e-01	1.106508e+00	0.0	1.852444e+00	2.550354e+00	0.0	1.583378e+00	1.256533e+00	0.0	2.540192e+00	2.479346e+00	0.0	1.111437e+00	2.882425e+00	0.0	-1.546185e+00	2.080822e+00	0.0	4.335614e-01	4.299108e-01	0.0	3.091571e-01	3.905261e-01	0.0	1.244384e+00	1.666051e-01	0.0	2.173114e-02	8.927083e-01	0.0	-9.411327e-02	5.240418e-01	0.0	4.837703e-01	3.521945e+00	0.0	-3.235612e-01	3.440427e-01	0.0	-2.109543e-01	3.082234e-01	0.0	7.372796e-01	8.002202e-01	0.0	2.224298e+00	9.907589e-01	0.0	-1.573579e+00	3.048371e+00	0.0	-1.932815e+00	2.701611e+00	0.0	6.702544e-01	1.373983e+00	0.0	-2.445773e+00	1.344870e+00	0.0	8.854719e-01	1.294203e+00	0.0	-1.174261e+00	2.612740e-01	0.0	-1.260781e+00	5.432570e-01	0.0	-1.550556e+00	5.923090e-01	0.0	-9.862200e-01	5.201688e-01	0.0	-1.065074e+00	7.837211e-01	0.0	1.783051e+00	3.011993e+00	0.0	2.609920e-01	1.622261e+00	0.0	6.418742e-01	8.354200e-01	0.0	1.325891e-01	1.293685e+00	0.0	6.471857e-02	9.814038e-01	0.0	5.227889e-01	7.650132e-01	0.0	-3.394439e-03	7.658305e-01	0.0	-5.430111e-01	2.037035e-01	0.0	5.911415e-01	9.564902e-02	0.0	1.006096e+00	1.541399e-01	0.0	-9.335558e-01	2.331610e-01	0.0	1.864909e+00	2.334555e-01	0.0	3.061680e-01	7.474560e-02	0.0	-2.747290e-01	1.106919e-01	0.0	-1.419339e+00	3.541794e+00	0.0	4.527662e-01	1.375438e+00	0.0	2.571180e+00	3.091894e+00	0.0	4.046976e-01	5.090432e-01	0.0	-1.814900e+00	3.321201e-01	0.0	-1.928429e+00	7.454691e-01	0.0	1.502377e+00	9.795392e-01	0.0	4.331686e-01	6.104023e-01	0.0	5.624384e-01	8.832888e-01	0.0	1.058886e+00	2.208224e+00	0.0	-2.486121e+00	2.550719e+00	0.0	1.539475e+00	3.498483e+00	0.0	-5.504096e-02	6.519713e-01	0.0	5.112902e-01	9.295056e-01	0.0	-2.416514e+00	3.088411e+00	0.0	1.764970e-01	8.589790e-01	0.0	8.966851e-01	2.481710e-01	0.0	7.353740e-01	2.407224e+00	0.0	-7.817499e-01	3.918226e-01	0.0	8.955906e-02	7.049264e-01	0.0	4.226782e-01	7.580872e-01	0.0	-2.090803e+00	1.113120e+00	0.0	3.297640e-01	6.102593e-01	0.0	8.540553e-03	5.538817e-01	0.0	2.517185e-01	4.585114e-01	0.0	1.269772e+00	8.258612e-01	0.0	2.174208e-01	3.844093e-01	0.0	-7.164637e-02	2.948443e-01	0.0	1.640884e-01	2.452760e-01	0.0	2.524910e-01	2.680484e-01	0.0	-2.556312e-02	4.637383e-01	0.0	2.432187e-01	1.393841e-01	0.0	-1.914354e-01	1.961931e-01	0.0	-6.996714e-01	7.380490e-01	0.0	8.778745e-02	1.185738e+00	0.0	2.188242e+00	6.616473e-01	0.0	8.043351e-01	1.123296e+00	0.0	1.931141e+00	1.049967e+00	0.0	3.966623e-01	1.069346e+00	0.0	8.417311e-01	4.615729e-01	0.0	-6.086190e-01	3.822095e-01	0.0	4.626509e-01	7.049322e-01	0.0	2.615383e-01	1.056181e+00	0.0	1.274677e-01	1.046864e-01	0.0	-1.061131e-01	1.284303e-01	0.0	-1.827602e+00	1.853069e+00	0.0	-1.983102e+00	2.228019e+00	0.0	-2.107505e-01	1.206298e+00	0.0	-7.558458e-01	3.088862e+00	0.0	4.963245e-01	1.249234e+00	0.0	1.364827e+00	1.129245e+00	0.0	-3.851541e-01	2.926995e+00	0.0	1.105041e+00	8.487615e-01	0.0	9.793237e-01	2.543126e+00	0.0	7.373072e-01	3.128284e+00	0.0	-1.071045e+00	1.025360e+00	0.0	2.181867e+00	2.824894e+00	0.0	1.412765e+00	3.108125e+00	0.0	-1.110658e-01	4.35
[...]
POINT_DATA 394

SCALARS Density float 1
LOOKUP_TABLE default
1.223715e+00	1.223911e+00	1.221631e+00	1.221995e+00	1.223466e+00	1.223647e+00	1.223275e+00	1.223591e+00	1.223576e+00	1.223587e+00	1.223628e+00	1.223653e+00	1.223717e+00	1.223723e+00	1.223730e+00	1.223716e+00	1.223744e+00	1.223761e+00	1.223800e+00	1.223823e+00	1.223840e+00	1.223904e+00	1.223869e+00	1.223975e+00	1.223856e+00	1.224016e+00	1.223861e+00	1.223868e+00	1.223850e+00	1.223804e+00	1.223773e+00	1.223713e+00	1.223700e+00	1.223608e+00	1.223691e+00	1.222930e+00	1.224756e+00	1.219879e+00	1.223836e+00	1.223362e+00	1.223422e+00	1.223416e+00	1.223377e+00	1.223357e+00	1.223354e+00	1.223354e+00	1.223371e+00	1.223397e+00	1.223330e+00	1.223520e+00	1.223337e+00	1.223430e+00	1.223369e+00	1.223314e+00	1.223271e+00	1.223239e+00	1.223155e+00	1.223150e+00	1.223151e+00	1.223281e+00	1.222810e+00	1.223383e+00	1.223110e+00	1.222923e+00	1.222841e+00	1.222951e+00	1.223087e+00	1.223111e+00	1.223252e+00	1.223291e+00	1.223373e+00	1.223420e+00	1.223494e+00	1.223544e+00	1.223576e+00	1.223579e+00	1.222960e+00	1.223753e+00	1.223752e+00	1.223098e+00	1.223399e+00	1.223687e+00	1.223821e+00	1.223210e+00	1.223623e+00	1.223315e+00	1.223514e+00	1.223306e+00	1.223372e+00	1.223819e+00	1.223889e+00	1.223318e+00	1.223509e+00	1.223492e+00	1.223444e+00	1.223882e+00	1.223045e+00	1.223711e+00	1.223597e+00	1.223123e+00	1.223934e+00	1.223408e+00	1.223208e+00	1.223703e+00	1.223007e+00	1.222910e+00	1.223110e+00	1.223116e+00	1.223054e+00	1.223033e+00	1.223027e+00	1.223283e+00	1.222847e+00	1.222898e+00	1.222989e+00	1.223095e+00	1.222869e+00	1.223151e+00	1.223140e+00	1.223250e+00	1.223170e+00	1.223228e+00	1.223435e+00	1.223320e+00	1.222954e+00	1.223032e+00	1.223251e+00	1.222851e+00	1.223023e+00	1.223404e+00	1.223495e+00	1.223500e+00	1.223435e+00	1.223574e+00	1.223640e+00	1.223538e+00	1.223614e+00	1.223619e+00	1.223143e+00	1.223086e+00	1.223192e+00	1.223505e+00	1.223227e+00	1.223187e+00	1.221320e+00	1.221715e+00	1.222810e+00	1.222814e+00	1.223414e+00	1.223685e+00	1.223674e+00	1.223721e+00	1.223734e+00	1.223743e+00	1.223639e+00	1.223138e+00	1.222962e+00	1.223246e+00	1.223506e+00	1.223193e+00	1.221731e+00	1.223158e+00	1.222712e+00	1.222790e+00	1.222578e+00	1.223048e+00	1.223171e+00	1.223079e+00	1.223146e+00	1.223683e+00	1.223728e+00	1.223759e+00	1.223731e+00	1.223668e+00	1.222675e+00	1.223469e+00	1.223460e+00	1.223368e+00	1.223298e+00	1.223067e+00	1.223263e+00	1.223324e+00	1.223285e+00	1.223638e+00	1.223165e+00	1.223316e+00	1.223068e+00	1.223711e+00	1.223797e+00	1.223821e+00	1.223893e+00	1.223608e+00	1.223555e+00	1.223678e+00	1.223347e+00	1.223421e+00	1.223212e+00	1.223783e+00	1.223357e+00	1.222939e+00	1.223115e+00	1.222892e+00	1.222863e+00	1.223006e+00	1.222847e+00	1.222848e+00	1.223859e+00	1.223511e+00	1.223529e+00	1.223511e+00	1.223569e+00	1.223557e+00	1.223609e+00	1.223813e+00	1.223120e+00	1.223472e+00	1.223428e+00	1.223343e+00	1.223374e+00	1.223390e+00	1.223612e+00	1.222936e+00	1.223413e+00	1.223751e+00	1.223310e+00	1.223328e+00	1.223369e+00	1.223602e+00	1.223093e+00	1.223104e+00	1.222852e+00	1.223289e+00	1.223307e+00	1.223631e+00	1.223395e+00	1.223278e+00	1.222965e+00	1.223574e+00	1.223896e+00	1.223411e+00	1.223860e+00	1.223889e+00	1.223136e+00	1.222851e+00	1.223551e+00	1.223589e+00	1.222655e+00	1.223660e+00	1.222920e+00	1.223786e+00	1.223807e+00	1.223685e+00	1.223780e+00	1.223708e+00	1.223270e+00	1.223452e+00	1.223194e+00	1.223396e+00	1.223647e+00	1.223447e+00	1.223752e+00	1.223918e+00	1.223291e+00	1.223185e+00	1.223819e+00	1.222947e+00	1.223440e+00	1.223946e+00	1.223554e+00	1.223054e+00	1.223167e+00	1.223425e+00	1.223753e+00	1.223703e+00	1.222993e+00	1.223366e+00	1.223047e+00	1.223216e+00	1.223626e+00	1.223245e+00	1.223705e+00	1.223133e+00	1.223611e+00	1.223959e+00	1.223181e+00	1.223350e+00	1.223784e+00	1.223743e+00	1.223397e+00	1.223676e+00	1.223444e+00	1.223732e+00	1.223382e+00	1.223008e+00	1.223386e+00	1.223868e+00	1.223383e+00	1.223317e+00	1.223756e+00	1.223297e+00	1.223918e+00	1.223738e+00	1.223543e+00	1.222878e+00	1.222969e+00	1.223250e+00	1.225373e+00	1.223225e+00	1.223862e+00	1.223322e+00	1.223396e+00	1.223360e+00	1.223896e+00	1.223626e+00	1.223632e+00	1.223606e+00	1.223511e+00	1.222731e+00	1.223051e+00	1.223473e+00	1.222954e+00	1.223240e+00	1.223300e+00	1.223743e+00	1.223300e+00	1.223247e+00	1.223855e+00	1.223551e+00	1.223510e+00	1.223089e+00	1.223551e+00	1.222899e+00	1.223161e+00	1.223840e+00	1.223268e+00	1.223362e+00	1.223321e+00	1.223360e+00	1.223719e+00	1.223225e+00	1.223270e+00	1.223618e+00	1.222999e+00	1.223719e+00	1.223241e+00	1.222379e+00	1.223739e+00	1.223676e+00	1.223176e+00	1.223372e+00	1.222440e+00	1.223590e+00	1.223129e+00	1.223588e+00	1.223775e+00	1.225388e+00	1.223858e+00	1.223713e+00	1.223312e+00	1.223202e+00	1.223569e+00	1.223422e+00	1.223733e+00	1.223042e+00	1.223883e+00	1.223088e+00	1.222988e+00	1.223572e+00	1.223068e+00	1.223566e+00	1.223295e+00	1.223776e+00	1.223713e+00	1.223684e+00	1.223311e+00	1.223312e+00	1.223922e+00	1.223508e+00	1.223496e+00	1.223136e+00	1.223474e+00	1.222747e+00	1.223383e+00	1.223155e+00	1.223332e+00	1.223466e+00	1.223726e+00	1.222961e+00	1.223429e+00	1.222743e+00	1.223287e+00	1.222922e+00	1.223586e+00	1.222848e+00	
SCALARS X-Momentum float 1
LOOKUP_TABLE default
8.717985e+00	4.071967e-01	6.754197e+00	1.380626e-01	-5.539947e-01	-4.225106e+00	1.620754e+01	1.025311e+01	1.012592e+01	9.929226e+00	9.686549e+00	9.406212e+00	9.142952e+00	8.889874e+00	8.570501e+00	8.276493e+00	7.835099e+00	7.263555e+00	6.612819e+00	5.864262e+00	5.012876e+00	4.175846e+00	3.193447e+00	2.213311e+00	1.234235e+00	8.699572e-02	4.671836e-01	1.005241e+00	1.617541e+00	2.281152e+00	2.937790e+00	3.562966e+00	4.167719e+00	4.728595e+00	5.117891e+00	5.094397e+00	4.761711e+00	3.995180e+00	1.174296e+00	1.368994e+00	1.811217e+00	2.054811e+00	2.167466e+00	2.158070e+00	1.990560e+00	1.694656e+00	1.333189e+00	9.211432e-01	5.451334e-01	2.500105e-01	-1.818879e+00	-3.313907e+00	-4.587930e+00	-5.729854e+00	-6.655004e+00	-7.349223e+00	-7.829186e+00	-8.055273e+00	-7.598225e+00	-6.729129e+00	-5.815343e+00	-4.585380e-01	4.905835e+00	1.014836e+01	1.394907e+01	1.585064e+01	1.635291e+01	1.552083e+01	1.463766e+01	1.366388e+01	1.284471e+01	1.216107e+01	1.157320e+01	1.106473e+01	1.065171e+01	1.037883e+01	5.377494e+00	2.129211e+00	7.733181e+00	-5.404008e+00	2.098210e+00	4.459930e+00	5.716620e+00	-5.164729e+00	9.625104e+00	1.228940e+01	1.122202e+01	1.371159e+01	1.058880e+00	2.657609e+00	3.818691e+00	-3.836863e+00	2.304870e+00	5.374725e+00	3.619074e-02	1.570430e+00	1.272598e+00	8.898208e+00	1.037429e+01	1.540384e+01	1.758509e+00	-1.756134e+00	-2.818992e+00	8.588074e+00	7.324330e+00	1.064690e+01	1.375228e+01	1.256454e+01	8.701972e+00	1.130714e+01	1.399762e+01	1.305150e+01	9.988136e+00	1.178299e+01	8.442213e+00	1.008140e+01	1.327145e+01	1.235498e+01	1.415475e+01	1.381900e+01	1.422559e+01	1.383234e+01	1.350129e+01	1.277511e+01	6.646021e+00	1.475815e+01	1.396982e+01	5.052323e+00	4.124207e+00	1.245948e+01	1.162964e+01	1.157922e+01	1.075653e+01	1.035371e+01	1.003520e+01	1.038029e+01	9.457030e+00	9.416349e+00	4.915426e+00	3.098892e+00	2.354402e+00	1.159842e+01	2.006074e+00	1.345437e+01	5.525038e+00	2.400568e+00	6.451038e+00	4.545662e+00	1.228218e+01	8.788709e+00	8.961396e+00	8.612901e+00	7.958445e+00	7.620498e+00	9.457004e+00	8.990801e-01	1.209728e+00	9.265325e-01	1.088234e+01	1.514785e+01	9.440828e+00	1.027311e+01	2.230723e+00	4.038032e+00	7.213468e+00	2.747506e+00	-6.462543e-01	-1.812050e-01	1.135831e+01	8.115749e+00	7.112017e+00	6.711217e+00	6.015555e+00	9.113831e+00	6.298423e+00	1.156200e+01	1.213067e+01	2.007035e+00	1.002552e+00	1.223655e+01	-3.257915e-01	-1.686070e-01	1.501147e+01	9.516817e+00	1.509786e+01	-1.627752e+00	-2.818863e+00	8.660754e+00	5.836737e+00	6.440573e+00	5.057599e+00	7.510374e+00	8.642769e+00	9.236969e+00	2.015773e+00	2.645874e+00	-1.818735e+00	5.052613e+00	1.454603e+01	-1.410412e+00	1.061595e+00	-7.110193e-01	2.467284e+00	8.508240e-01	9.806555e+00	8.903017e+00	5.028897e+00	9.679348e+00	1.098131e+01	1.107556e+01	1.058428e+01	1.070149e+01	1.022102e+01	4.063870e+00	1.184992e+01	1.267389e+01	1.058041e+01	1.300501e+01	1.268548e+01	1.363016e+01	9.880221e+00	3.587746e+00	1.195040e+01	6.511755e+00	-1.301763e+00	1.143578e-01	-8.238563e-01	1.007082e+01	8.844663e+00	1.533767e+01	7.765127e+00	1.508575e+01	1.432062e+01	9.856925e+00	1.112006e+00	1.190603e+00	-5.587121e+00	6.626946e+00	4.221878e+00	1.280420e+01	4.198823e+00	3.233156e+00	2.722499e+00	3.721095e+00	1.043053e+01	1.009524e+01	1.174765e+01	9.191247e+00	9.317891e+00	7.179276e+00	7.703217e+00	8.157914e+00	7.156911e+00	7.814577e+00	1.514956e+01	1.271592e+01	2.790923e+00	1.084231e+01	7.190923e+00	2.686939e+00	5.743476e+00	4.848488e+00	-4.625405e+00	-5.384614e+00	6.513281e+00	-4.537833e+00	-2.858489e+00	2.767560e+00	1.073979e+01	1.301884e+01	1.597765e+01	1.888572e+00	8.224327e+00	8.611872e+00	4.288548e+00	2.329728e+00	2.444625e+00	1.479546e+01	9.861151e+00	1.452307e+01	4.978167e+00	1.503198e+00	1.010873e+01	5.662596e+00	-3.436321e+00	1.402481e+01	6.400640e+00	4.957081e+00	2.208310e+00	8.957585e+00	2.240553e+00	3.972411e+00	1.826791e+00	2.722998e+00	1.478439e+00	2.053389e+00	5.851171e-01	2.490177e-01	3.318787e+00	-1.214562e+00	2.323418e+00	7.155677e+00	9.530885e+00	1.934928e-01	6.018987e+00	4.774714e+00	8.251715e+00	-4.678024e-01	5.702529e+00	2.565212e+00	8.012606e+00	-4.500192e-01	1.132884e+00	9.576767e+00	9.799830e+00	8.949590e+00	1.114810e+01	1.089952e+01	6.341482e+00	1.154015e+01	2.957067e+00	1.449671e+01	1.338629e+01	8.389628e+00	1.556517e+01	1.459191e+01	3.519635e+00	1.089905e+01	1.176679e+01	1.467166e+01	1.038579e+01	3.878947e+00	1.410765e+01	3.415650e+00	-2.850635e+00	1.452432e+01	-2.196100e+00	1.312747e+01	8.843170e+00	-3.277116e+00	1.320954e+01	9.909274e+00	2.962450e+00	8.193949e+00	-2.588024e+00	-2.844369e+00	8.751072e+00	6.336076e+00	6.854068e+00	1.180646e+01	8.200442e+00	9.721394e+00	1.105519e+01	1.018550e+01	4.319901e+00	6.078576e+00	3.015644e+00	8.498103e+00	-2.321897e-01	1.245675e+01	1.022710e+01	1.223687e+01	5.722761e+00	1.595981e+01	2.449044e+00	-3.334936e+00	-1.765844e+00	1.023513e+01	-1.888763e+00	1.082523e+01	1.220294e+01	6.898708e+00	8.184989e+00	9.463736e+00	8.464633e-01	1.724321e+00	8.277751e-01	-7.715148e-01	1.350880e+01	1.445332e+01	5.956471e+00	1.278377e+01	9.183784e+00	1.520424e+01	2.121673e+00	1.151393e+01	7.394461e+00	7.354487e+00	2.569422e+00	5.456557e+00	1.351429e+01	9.007744e+00	5.097876e+00	7.292576e+00	
SCALARS Y-Momentum float 1
LOOKUP_TABLE default
-1.847641e-02	4.019285e-01	5.168817e+00	-7.860776e-01	5.247550e-01	2.294948e-01	6.577750e-02	-1.227275e-02	1.423432e-02	4.062180e-02	5.710116e-02	7.523356e-02	6.383632e-02	1.260105e-02	-3.374923e-03	2.118868e-05	6.903025e-03	5.690244e-03	1.147583e-02	1.356946e-02	-1.479041e-03	2.382299e-02	9.410840e-03	8.031401e-03	-3.202881e-02	1.302050e+00	2.330985e+00	3.301117e+00	4.275898e+00	5.167791e+00	5.952429e+00	6.641416e+00	7.273105e+00	7.913174e+00	8.340614e+00	8.364212e+00	8.376776e+00	-2.430106e+00	1.120832e+00	1.888561e+00	2.604618e+00	3.151632e+00	3.495331e+00	3.682126e+00	3.689127e+00	3.519301e+00	3.208061e+00	2.753362e+00	2.188191e+00	1.423879e+00	-4.958123e-04	3.473773e-02	2.595832e-02	9.552706e-03	3.678874e-03	8.230653e-03	1.113349e-02	2.825489e-03	-4.269627e-02	-6.681177e-02	-1.009531e-01	-4.975973e-01	-4.402677e-01	5.242376e-02	7.145695e-01	8.958303e-01	5.158841e-01	1.075128e-02	8.041987e-04	-6.278810e-03	-3.743180e-02	-2.500219e-02	-4.600633e-03	-5.674270e-03	1.726373e-03	-3.200681e-03	8.657846e+00	2.329111e+00	4.916974e-01	-2.088366e-01	3.338551e+00	6.396945e+00	8.699586e-01	4.497925e-01	3.749210e-01	3.992297e-01	4.321716e-01	8.551982e-01	3.022639e+00	4.281118e+00	9.803088e-01	6.425343e-01	2.958449e+00	7.545576e+00	2.167434e+00	2.590568e+00	-7.978350e-01	3.199854e-01	2.445595e-01	8.430084e-01	8.609263e-01	8.321261e-01	-6.030441e-01	2.446901e-01	-4.019064e-01	1.457085e-01	9.601058e-01	9.244534e-01	1.476850e-01	9.309725e-01	1.721597e+00	1.768568e+00	1.099373e+00	1.874584e+00	1.411270e+00	2.046748e+00	2.798578e+00	3.074455e+00	3.773908e+00	4.260429e+00	4.362471e+00	5.029799e+00	4.270702e+00	4.893399e+00	1.671533e+00	2.398150e+00	3.699669e+00	1.413262e+00	1.983719e+00	3.590413e+00	3.681269e+00	5.013264e+00	3.492346e+00	4.276428e+00	3.068043e+00	2.616017e+00	3.547088e+00	2.519851e+00	2.158157e+00	2.681593e+00	2.258075e+00	2.695935e+00	2.804975e+00	4.913679e+00	1.871140e-01	4.412045e-01	1.337889e+00	1.200221e+00	2.573412e+00	2.704436e+00	1.985875e+00	3.788077e+00	2.549734e+00	3.513418e+00	1.845408e+00	2.142818e+00	1.679563e+00	2.447834e+00	6.095678e+00	2.056486e+00	5.039858e+00	4.373259e+00	1.995767e+00	2.083169e+00	2.103592e+00	2.959311e+00	1.417735e+00	8.978108e-01	7.579134e+00	4.884956e+00	4.516899e+00	3.276125e+00	4.124980e+00	1.437703e+00	2.126806e+00	1.905934e+00	1.706720e+00	3.049072e+00	2.605132e+00	6.589600e+00	2.003072e+00	2.175335e+00	2.382361e+00	1.326738e+00	1.902109e+00	1.528947e+00	6.071998e-01	1.445367e+00	2.864583e+00	2.344194e+00	3.302104e+00	6.297474e+00	6.513718e+00	9.270262e-01	3.059666e+00	3.379871e+00	1.382864e+00	4.428931e+00	3.329072e+00	2.947812e-01	3.501840e-01	-7.442028e-02	-1.314251e-01	-6.163714e-01	2.787247e+00	2.344150e+00	2.205501e+00	4.850959e+00	1.973552e+00	1.399828e+00	1.434527e+00	9.996797e-01	9.983178e-01	3.615015e+00	8.117493e+00	7.171059e+00	9.034835e+00	2.406931e+00	1.357147e+00	2.083623e+00	1.643349e+00	2.779484e+00	9.781656e-01	5.505303e+00	1.735574e+00	2.442720e+00	1.978694e+00	8.976935e+00	9.536121e+00	1.734088e+00	4.802206e-01	1.109818e+00	1.832356e+00	1.163200e+00	2.785639e+00	2.974719e+00	9.532506e-02	6.942537e+00	4.756198e+00	6.488138e-01	2.525414e+00	2.719115e+00	3.319777e+00	-8.244888e-01	6.082880e-01	5.828561e-01	3.426550e+00	4.463557e-01	2.133550e+00	6.121741e-01	1.071577e+00	8.286787e-01	1.385078e+00	1.694979e+00	1.457799e+00	5.902029e+00	3.506722e+00	7.875314e+00	7.940275e+00	3.094110e+00	6.384059e+00	1.093459e+00	5.279286e-01	3.258606e-01	7.418898e-01	-3.958043e-01	7.943278e-01	9.691060e-01	3.231263e-01	5.780139e+00	1.047573e+00	3.090519e+00	3.814716e-01	6.395228e-01	4.355851e-01	3.108891e+00	2.968782e+00	2.966638e+00	3.475296e-01	7.985068e-01	5.570168e+00	1.821004e+00	2.582172e-01	8.289888e+00	8.510360e-01	2.958349e+00	1.526619e+00	6.962651e+00	2.588498e+00	6.762259e-01	3.193581e+00	5.732007e+00	3.351780e+00	1.095450e+00	3.248251e+00	3.476215e+00	2.673644e+00	2.546514e+00	5.004327e+00	1.596559e+00	1.944422e+00	2.573831e+00	8.172536e+00	-8.377475e-01	2.169981e+00	-4.518920e-01	2.867136e+00	1.775676e+00	1.829305e+00	3.002582e+00	9.937185e+00	1.557163e+00	1.637761e+00	9.510405e-01	7.275668e-01	5.124706e+00	9.032935e-01	3.949680e+00	9.543148e-01	1.255015e+00	1.741230e+00	2.532866e+00	1.343209e+00	1.924635e+00	1.444436e+00	1.423315e+00	4.190413e+00	2.642273e+00	4.342505e-01	1.581515e+00	1.958063e+00	2.599187e+00	2.585828e+00	1.842795e+00	1.099265e+00	3.512967e+00	1.329787e+00	3.321721e+00	1.019636e+00	9.580350e-01	6.273948e+00	2.246851e+00	3.304466e+00	1.316797e+00	-4.072772e-01	-4.669443e-01	1.084764e-01	8.317807e+00	9.427474e+00	7.472948e+00	2.238154e+00	6.474197e+00	2.795778e+00	1.410313e+00	1.729512e+00	9.844062e+00	3.516608e+00	1.015565e+00	2.209691e+00	4.202879e+00	1.025176e-01	6.206485e-01	5.125542e+00	5.002366e-01	2.855243e+00	2.567296e-02	-6.990309e-01	4.258920e-01	1.195643e+00	6.518495e-01	6.517251e+00	1.968179e+00	8.157827e+00	5.927928e-01	2.862436e+00	3.115749e+00	7.529151e-01	8.203045e-01	5.767201e+00	3.870625e+00	7.466426e+00	3.619579e+00	4.261472e+00	1.469679e+00	3.168860e+00	7.565625e-01	2.012109e+00	-4.346811e-01	3.191896e+00	1.019352e-02	3.115089e+00	7.299127e+00	6.238211e+00	1.859388e+00	
SCALARS Energy float 1
LOOKUP_TABLE default