# vtk DataFile Version 3.0
vtk output
ASCII
DATASET UNSTRUCTURED_GRID
POINTS 394 float
-3.000000e+00	0.000000e+00	0.0	-5.000000e-02	1.819408e-17	0.0	1.170633e-01	1.011498e+00	0.0	2.171054e-01	9.885589e-01	0.0	5.000000e-02	-2.559798e-18	0.0	3.000000e+00	0.000000e+00	0.0	3.000000e+00	4.000000e+00	0.0	-3.000000e+00	4.000000e+00	0.0	-3.000000e+00	3.428571e+00	0.0	-3.000000e+00	2.857143e+00	0.0	-3.000000e+00	2.285714e+00	0.0	-3.000000e+00	1.714286e+00	0.0	-3.000000e+00	1.142857e+00	0.0	-3.000000e+00	5.714286e-01	0.0	-2.473871e+00	0.000000e+00	0.0	-2.029066e+00	0.000000e+00	0.0	-1.653013e+00	0.000000e+00	0.0	-1.335087e+00	0.000000e+00	0.0	-1.066302e+00	0.000000e+00	0.0	-8.390627e-01	0.000000e+00	0.0	-6.469477e-01	0.000000e+00	0.0	-4.845277e-01	0.000000e+00	0.0	-3.472127e-01	0.000000e+00	0.0	-2.311224e-01	0.000000e+00	0.0	-1.329760e-01	0.000000e+00	0.0	-4.797867e-02	7.900459e-02	0.0	-4.313232e-02	1.577980e-01	0.0	-3.557720e-02	2.363422e-01	0.0	-2.569004e-02	3.146612e-01	0.0	-1.381136e-02	3.927654e-01	0.0	-2.764899e-04	4.706595e-01	0.0	1.458743e-02	5.483574e-01	0.0	3.048862e-02	6.258790e-01	0.0	4.715863e-02	7.032359e-01	0.0	6.434430e-02	7.804430e-01	0.0	8.180984e-02	8.575402e-01	0.0	9.946997e-02	9.345428e-01	0.0	1.670838e-01	1.000068e+00	0.0	1.994080e-01	9.116433e-01	0.0	1.817994e-01	8.347527e-01	0.0	1.643216e-01	7.579563e-01	0.0	1.471422e-01	6.812818e-01	0.0	1.304739e-01	6.047658e-01	0.0	1.145753e-01	5.284243e-01	0.0	9.971350e-02	4.522684e-01	0.0	8.618122e-02	3.763186e-01	0.0	7.430465e-02	3.005887e-01	0.0	6.442024e-02	2.250846e-01	0.0	5.687146e-02	1.498143e-01	0.0	5.199770e-02	7.478936e-02	0.0	1.329760e-01	0.000000e+00	0.0	2.311224e-01	0.000000e+00	0.0	3.472127e-01	0.000000e+00	0.0	4.845277e-01	0.000000e+00	0.0	6.469477e-01	0.000000e+00	0.0	8.390627e-01	0.000000e+00	0.0	1.066302e+00	0.000000e+00	0.0	1.335087e+00	0.000000e+00	0.0	1.653013e+00	0.000000e+00	0.0	2.029066e+00	0.000000e+00	0.0	2.473871e+00	0.000000e+00	0.0	3.000000e+00	5.714286e-01	0.0	3.000000e+00	1.142857e+00	0.0	3.000000e+00	1.714286e+00	0.0	3.000000e+00	2.285714e+00	0.0	3.000000e+00	2.857143e+00	0.0	3.000000e+00	3.428571e+00	0.0	2.400000e+00	4.000000e+00	0.0	1.800000e+00	4.000000e+00	0.0	1.200000e+00	4.000000e+00	0.0	6.000000e-01	4.000000e+00	0.0	0.000000e+00	4.000000e+00	0.0	-6.000000e-01	4.000000e+00	0.0	-1.200000e+00	4.000000e+00	0.0	-1.800000e+00	4.000000e+00	0.0	-2.400000e+00	4.000000e+00	0.0	3.485708e-03	9.056734e-01	0.0	2.379981e-01	8.697148e-01	0.0	-1.475631e+00	2.637194e-01	0.0	1.511357e+00	2.132814e-01	0.0	1.669714e-01	5.585657e-01	0.0	-6.373869e-02	5.935813e-01	0.0	-7.393537e-01	1.749926e-01	0.0	7.563762e-01	1.446943e-01	0.0	-2.570781e+00	2.086092e+00	0.0	2.545150e+00	1.931068e+00	0.0	-8.945395e-01	3.513152e+00	0.0	9.536623e-01	3.453203e+00	0.0	1.361670e-01	3.356053e-01	0.0	-9.838127e-02	3.561437e-01	0.0	-4.104101e-01	1.190033e-01	0.0	4.211346e-01	1.015408e-01	0.0	2.033155e-01	7.109694e-01	0.0	-3.499214e-02	7.496034e-01	0.0	1.286121e-01	1.891048e-01	0.0	-1.149067e-01	2.010642e-01	0.0	2.536046e+00	7.970571e-01	0.0	-2.494737e+00	7.993431e-01	0.0	-2.042921e+00	3.458505e+00	0.0	2.084684e+00	3.430933e+00	0.0	-1.823988e-01	7.784875e-02	0.0	1.856552e-01	7.165900e-02	0.0	2.234108e+00	3.821285e-01	0.0	-2.245979e+00	3.650335e-01	0.0	2.494068e+00	1.385048e+00	0.0	2.132182e+00	1.685500e+00	0.0	2.113761e+00	2.096323e+00	0.0	1.782984e+00	1.836980e+00	0.0	1.762254e+00	1.439431e+00	0.0	1.483764e+00	1.636266e+00	0.0	1.460323e+00	1.980899e+00	0.0	1.217573e+00	1.771174e+00	0.0	1.224127e+00	1.474172e+00	0.0	1.003304e+00	1.588794e+00	0.0	1.007060e+00	1.343315e+00	0.0	8.023272e-01	1.417307e+00	0.0	7.843777e-01	1.675723e+00	0.0	6.092511e-01	1.530765e+00	0.0	5.810867e-01	1.764213e+00	0.0	4.178460e-01	1.647861e+00	0.0	3.770059e-01	1.861808e+00	0.0	2.233624e-01	1.734791e+00	0.0	1.615530e-01	1.959180e+00	0.0	-4.135876e-03	1.787706e+00	0.0	8.371047e-01	1.206560e+00	0.0	1.170848e+00	2.108254e+00	0.0	3.757156e-01	2.127334e+00	0.0	9.867035e-01	1.098294e+00	0.0	8.184728e-01	1.019538e+00	0.0	-8.141443e-02	2.070642e+00	0.0	-2.881016e-01	1.908536e+00	0.0	-2.077648e-01	1.631541e+00	0.0	-5.024606e-01	1.748015e+00	0.0	-4.420326e-01	1.502480e+00	0.0	-7.138663e-01	1.585212e+00	0.0	-7.404523e-01	1.825011e+00	0.0	-6.601643e-01	1.332740e+00	0.0	-9.427934e-01	1.415074e+00	0.0	6.897340e-01	1.098093e+00	0.0	6.713532e-01	9.309549e-01	0.0	7.976658e-01	8.420028e-01	0.0	-3.610810e-01	2.196322e+00	0.0	6.465673e-01	7.610078e-01	0.0	2.665417e-01	1.510882e+00	0.0	1.689847e-01	1.048212e+00	0.0	2.291365e-01	1.031032e+00	0.0	1.972786e-01	1.099299e+00	0.0	2.662462e-01	1.094519e+00	0.0	-1.174984e-01	2.379417e+00	0.0	-8.873286e-01	1.149795e+00	0.0	-1.184032e+00	1.229528e+00	0.0	-6.165265e-01	1.071537e+00	0.0	-8.721016e-01	8.686066e-01	0.0	-6.139282e-01	8.424733e-01	0.0	-1.242653e+00	1.530570e+00	0.0	7.723291e-01	6.709049e-01	0.0	9.334668e-01	7.460110e-01	0.0	6.174592e-01	6.066544e-01	0.0	-2.194123e-01	1.388996e+00	0.0	1.425407e+00	2.339524e+00	0.0	1.207153e-01	1.098341e+00	0.0	1.588897e-01	1.169286e+00	0.0	2.951323e-01	1.013804e+00	0.0	3.456743e-01	1.086649e+00	0.0	3.042873e-01	1.170693e+00	0.0	3.774992e-01	9.925517e-01	0.0	9.024394e-01	5.716461e-01	0.0	1.098740e+00	6.602185e-01	0.0	6.650774e-02	1.169508e+00	0.0	-4.244684e-01	9.628253e-01	0.0	-4.183375e-01	7.833553e-01	0.0	-5.763486e-01	6.529919e-01	0.0	-3.836186e-01	6.166752e-01	0.0	-1.510903e+00	1.319726e+00	0.0	4.094357e-01	1.173188e+00	0.0	-4.333779e-01	2.518452e+00	0.0	-1.584905e-01	2.737314e+00	0.0	5.060132e-01	6.841968e-01	0.0	4.761156e-01	5.409243e-01	0.0	1.138535e-01	1.257594e+00	0.0	5.834820e-01	4.626553e-01	0.0	4.446563e-01	4.053582e-01	0.0	1.105227e+00	2.479629e+00	0.0	-1.576643e+00	1.659691e+00	0.0	1.377281e+00	2.725189e+00	0.0	5.429947e-01	3.276503e-01	0.0	1.058567e+00	4.010558e-01	0.0	-1.436594e+00	1.025459e+00	0.0	-5.314385e-01	4.847341e-01	0.0	-6.973840e-01	5.127727e-01	0.0	-3.822231e-01	4.472365e-01	0.0	-2.539099e-01	9.103562e-01	0.0	-2.743378e-01	1.063707e+00	0.0	-1.957673e+00	1.433800e+00	0.0	3.729512e-01	6.188846e-01	0.0	4.134866e-01	7.545036e-01	0.0	6.956941e-01	3.795225e-01	0.0	-2.646156e-01	5.384184e-01	0.0	7.269324e-01	1.943070e+00	0.0	1.263638e+00	5.667121e-01	0.0	1.301958e+00	7.848227e-01	0.0	1.494383e+00	6.421297e-01	0.0	1.543160e+00	9.174605e-01	0.0	1.807421e+00	7.802323e-01	0.0	3.490458e-01	1.272311e+00	0.0	4.686902e-01	1.270665e+00	0.0	-4.969881e-01	3.270075e-01	0.0	-4.226941e-01	1.301213e+00	0.0	-6.979864e-01	2.304827e+00	0.0	-7.925715e-01	2.664982e+00	0.0	-1.083308e+00	2.442197e+00	0.0	-1.181201e+00	2.810505e+00	0.0	-1.554135e+00	2.478371e+00	0.0	-2.485207e-01	3.980180e-01	0.0	2.397837e-04	1.255332e+00	0.0	4.364895e-02	1.363475e+00	0.0	-3.776947e-02	1.158366e+00	0.0	1.947899e-01	2.559952e+00	0.0	1.788700e-01	3.017638e+00	0.0	5.177175e-01	2.770962e+00	0.0	-1.289835e+00	1.868936e+00	0.0	5.581564e-01	1.011624e+00	0.0	-2.485317e-01	3.154482e+00	0.0	-2.668668e-01	7.519892e-01	0.0	4.087341e-01	2.793942e-01	0.0	3.014444e-01	3.521303e-01	0.0	2.840635e-01	2.449724e-01	0.0	2.889819e-02	1.094499e+00	0.0	-6.154038e-02	1.062789e+00	0.0	1.731139e+00	2.581735e+00	0.0	1.425033e+00	1.326397e+00	0.0	2.474984e+00	2.497031e+00	0.0	9.636477e-01	2.898346e+00	0.0	-1.640262e+00	2.027728e+00	0.0	3.326134e-01	4.809844e-01	0.0	2.292722e-01	4.267455e-01	0.0	1.216069e+00	1.940568e-01	0.0	-1.592245e-01	8.333755e-01	0.0	-1.700349e-01	4.820189e-01	0.0	4.026043e-01	3.515557e+00	0.0	-3.542371e-01	3.074411e-01	0.0	-2.396865e-01	2.773900e-01	0.0	5.281867e-01	8.551173e-01	0.0	2.144208e+00	1.048625e+00	0.0	-1.637914e+00	3.027413e+00	0.0	-1.991361e+00	2.678195e+00	0.0	4.004555e-01	1.391616e+00	0.0	-2.475038e+00	1.313121e+00	0.0	6.353238e-01	1.334819e+00	0.0	-1.187463e+00	2.346495e-01	0.0	-1.294068e+00	4.959384e-01	0.0	-1.580634e+00	5.475242e-01	0.0	-1.023408e+00	4.639996e-01	0.0	-1.120833e+00	7.175571e-01	0.0	1.681581e+00	3.032476e+00	0.0	-5.066450e-03	1.597478e+00	0.0	4.170285e-01	8.801304e-01	0.0	-1.222886e-01	1.246295e+00	0.0	-1.403604e-01	9.245554e-01	0.0	3.160505e-01	8.101210e-01	0.0	-1.471502e-01	7.118422e-01	0.0	-5.553023e-01	1.747181e-01	0.0	5.732831e-01	1.149318e-01	0.0	9.758550e-01	1.866929e-01	0.0	-9.460556e-01	2.047249e-01	0.0	1.837797e+00	2.630310e-01	0.0	2.956405e-01	8.553717e-02	0.0	-2.813384e-01	9.793260e-02	0.0	-1.463691e+00	3.530375e+00	0.0	1.760987e-01	1.366929e+00	0.0	2.536122e+00	3.100047e+00	0.0	2.818139e-01	5.555093e-01	0.0	-1.825492e+00	3.087834e-01	0.0	-1.958262e+00	7.017260e-01	0.0	1.360419e+00	1.049201e+00	0.0	2.779189e-01	6.535031e-01	0.0	3.159213e-01	9.180134e-01	0.0	8.494152e-01	2.226955e+00	0.0	-2.514803e+00	2.533455e+00	0.0	1.470729e+00	3.508439e+00	0.0	-1.669195e-01	6.014557e-01	0.0	2.455232e-01	9.546683e-01	0.0	-2.444542e+00	3.080225e+00	0.0	-1.627476e-02	8.266174e-01	0.0	8.427459e-01	2.946263e-01	0.0	5.256979e-01	2.413389e+00	0.0	-8.110287e-01	3.463147e-01	0.0	-5.069043e-02	6.716921e-01	0.0	2.222782e-01	7.880334e-01	0.0	-2.129694e+00	1.068918e+00	0.0	1.833791e-01	6.377249e-01	0.0	-8.515562e-02	5.220592e-01	0.0	1.566379e-01	4.838681e-01	0.0	1.118203e+00	9.012809e-01	0.0	1.461135e-01	4.071532e-01	0.0	-1.044328e-01	2.769417e-01	0.0	1.284869e-01	2.616769e-01	0.0	2.073309e-01	2.945435e-01	0.0	-9.447075e-02	4.368068e-01	0.0	2.232357e-01	1.568219e-01	0.0	-2.070954e-01	1.768806e-01	0.0	-7.671445e-01	6.701877e-01	0.0	-1.524073e-01	1.131104e+00	0.0	2.135854e+00	7.128839e-01	0.0	5.540632e-01	1.164567e+00	0.0	1.821162e+00	1.116088e+00	0.0	1.197607e-01	1.051898e+00	0.0	7.372431e-01	5.214804e-01	0.0	-6.393203e-01	3.377035e-01	0.0	2.767582e-01	7.449409e-01	0.0	1.085022e-02	1.024719e+00	0.0	1.181870e-01	1.123242e-01	0.0	-1.142956e-01	1.199289e-01	0.0	-1.902003e+00	1.804314e+00	0.0	-2.046912e+00	2.187862e+00	0.0	-4.098302e-01	1.132768e+00	0.0	-8.562843e-01	3.068357e+00	0.0	2.150302e-01	1.246996e+00	0.0	1.188346e+00	1.198332e+00	0.0	-5.114531e-01	2.901803e+00	0.0	9.316547e-01	9.202459e-01	0.0	7.937965e-01	2.557611e+00	0.0	6.059621e-01	3.131093e+00	0.0	-1.148111e+00	9.556371e-01	0.0	2.098170e+00	2.849699e+00	0.0	1.303410e+00	3.126947e+00	0
[...]
POINT_DATA 394

SCALARS Density float 1
LOOKUP_TABLE default
1.223744e+00	1.223939e+00	1.222165e+00	1.222021e+00	1.223533e+00	1.223744e+00	1.223261e+00	1.223609e+00	1.223592e+00	1.223606e+00	1.223652e+00	1.223680e+00	1.223753e+00	1.223758e+00	1.223767e+00	1.223748e+00	1.223779e+00	1.223799e+00	1.223836e+00	1.223858e+00	1.223879e+00	1.223925e+00	1.223900e+00	1.223973e+00	1.223892e+00	1.223990e+00	1.223895e+00	1.223909e+00	1.223905e+00	1.223884e+00	1.223866e+00	1.223824e+00	1.223817e+00	1.223731e+00	1.223811e+00	1.223037e+00	1.224812e+00	1.220469e+00	1.223867e+00	1.223471e+00	1.223507e+00	1.223472e+00	1.223431e+00	1.223409e+00	1.223412e+00	1.223418e+00	1.223439e+00	1.223467e+00	1.223405e+00	1.223615e+00	1.223408e+00	1.223509e+00	1.223433e+00	1.223370e+00	1.223327e+00	1.223299e+00	1.223209e+00	1.223243e+00	1.223238e+00	1.223362e+00	1.222892e+00	1.223477e+00	1.223168e+00	1.222968e+00	1.222851e+00	1.222946e+00	1.223081e+00	1.223109e+00	1.223240e+00	1.223283e+00	1.223370e+00	1.223426e+00	1.223504e+00	1.223558e+00	1.223592e+00	1.223594e+00	1.223257e+00	1.223734e+00	1.223788e+00	1.223181e+00	1.223455e+00	1.223778e+00	1.223845e+00	1.223289e+00	1.223648e+00	1.223308e+00	1.223530e+00	1.223312e+00	1.223441e+00	1.223869e+00	1.223905e+00	1.223400e+00	1.223560e+00	1.223611e+00	1.223521e+00	1.223914e+00	1.223051e+00	1.223743e+00	1.223616e+00	1.223116e+00	1.223938e+00	1.223490e+00	1.223284e+00	1.223736e+00	1.222990e+00	1.222963e+00	1.223127e+00	1.223128e+00	1.223090e+00	1.223066e+00	1.223052e+00	1.223291e+00	1.222951e+00	1.222984e+00	1.223037e+00	1.223177e+00	1.222936e+00	1.223209e+00	1.223169e+00	1.223271e+00	1.223209e+00	1.223257e+00	1.223469e+00	1.223354e+00	1.223145e+00	1.223046e+00	1.223278e+00	1.222979e+00	1.223168e+00	1.223434e+00	1.223526e+00	1.223542e+00	1.223485e+00	1.223625e+00	1.223683e+00	1.223582e+00	1.223671e+00	1.223659e+00	1.223263e+00	1.223243e+00	1.223294e+00	1.223546e+00	1.223326e+00	1.223246e+00	1.222129e+00	1.222108e+00	1.222864e+00	1.223035e+00	1.223431e+00	1.223721e+00	1.223718e+00	1.223768e+00	1.223769e+00	1.223785e+00	1.223681e+00	1.223223e+00	1.223066e+00	1.223325e+00	1.223548e+00	1.223207e+00	1.221940e+00	1.223261e+00	1.223080e+00	1.223017e+00	1.222806e+00	1.223241e+00	1.223240e+00	1.223157e+00	1.223178e+00	1.223742e+00	1.223759e+00	1.223814e+00	1.223793e+00	1.223692e+00	1.222924e+00	1.223502e+00	1.223486e+00	1.223440e+00	1.223370e+00	1.223144e+00	1.223323e+00	1.223376e+00	1.223287e+00	1.223671e+00	1.223156e+00	1.223409e+00	1.223100e+00	1.223745e+00	1.223841e+00	1.223863e+00	1.223904e+00	1.223738e+00	1.223647e+00	1.223707e+00	1.223411e+00	1.223469e+00	1.223263e+00	1.223868e+00	1.223351e+00	1.223035e+00	1.223178e+00	1.222959e+00	1.222947e+00	1.223056e+00	1.223000e+00	1.222979e+00	1.223915e+00	1.223586e+00	1.223550e+00	1.223535e+00	1.223598e+00	1.223577e+00	1.223638e+00	1.223863e+00	1.223203e+00	1.223498e+00	1.223488e+00	1.223369e+00	1.223391e+00	1.223409e+00	1.223642e+00	1.223144e+00	1.223422e+00	1.223839e+00	1.223375e+00	1.223400e+00	1.223434e+00	1.223714e+00	1.223098e+00	1.223103e+00	1.222940e+00	1.223305e+00	1.223311e+00	1.223660e+00	1.223449e+00	1.223363e+00	1.223027e+00	1.223692e+00	1.223948e+00	1.223416e+00	1.223874e+00	1.223914e+00	1.223284e+00	1.222943e+00	1.223569e+00	1.223607e+00	1.222772e+00	1.223690e+00	1.223094e+00	1.223819e+00	1.223848e+00	1.223720e+00	1.223815e+00	1.223757e+00	1.223276e+00	1.223509e+00	1.223333e+00	1.223450e+00	1.223695e+00	1.223536e+00	1.223831e+00	1.223929e+00	1.223357e+00	1.223253e+00	1.223849e+00	1.223005e+00	1.223514e+00	1.223954e+00	1.223568e+00	1.223121e+00	1.223168e+00	1.223485e+00	1.223786e+00	1.223732e+00	1.223048e+00	1.223432e+00	1.223220e+00	1.223228e+00	1.223647e+00	1.223243e+00	1.223788e+00	1.223270e+00	1.223632e+00	1.223966e+00	1.223248e+00	1.223353e+00	1.223834e+00	1.223825e+00	1.223512e+00	1.223706e+00	1.223505e+00	1.223817e+00	1.223438e+00	1.223105e+00	1.223450e+00	1.223901e+00	1.223455e+00	1.223404e+00	1.223825e+00	1.223379e+00	1.223943e+00	1.223810e+00	1.223636e+00	1.222981e+00	1.223116e+00	1.223310e+00	1.224583e+00	1.223301e+00	1.223910e+00	1.223428e+00	1.223467e+00	1.223443e+00	1.223916e+00	1.223656e+00	1.223660e+00	1.223694e+00	1.223533e+00	1.222851e+00	1.223136e+00	1.223490e+00	1.223080e+00	1.223252e+00	1.223314e+00	1.223791e+00	1.223310e+00	1.223246e+00	1.223924e+00	1.223589e+00	1.223524e+00	1.223092e+00	1.223585e+00	1.223138e+00	1.223191e+00	1.223873e+00	1.223327e+00	1.223369e+00	1.223379e+00	1.223378e+00	1.223762e+00	1.223269e+00	1.223316e+00	1.223648e+00	1.223205e+00	1.223753e+00	1.223322e+00	1.222484e+00	1.223779e+00	1.223803e+00	1.223401e+00	1.223451e+00	1.222795e+00	1.223641e+00	1.223184e+00	1.223620e+00	1.223848e+00	1.224992e+00	1.223920e+00	1.223752e+00	1.223375e+00	1.223300e+00	1.223580e+00	1.223440e+00	1.223823e+00	1.223040e+00	1.223929e+00	1.223169e+00	1.223075e+00	1.223599e+00	1.223180e+00	1.223591e+00	1.223343e+00	1.223818e+00	1.223802e+00	1.223711e+00	1.223367e+00	1.223368e+00	1.223945e+00	1.223577e+00	1.223502e+00	1.223155e+00	1.223637e+00	1.222909e+00	1.223468e+00	1.223165e+00	1.223396e+00	1.223492e+00	1.223775e+00	1.223006e+00	1.223488e+00	1.222829e+00	1.223326e+00	1.223084e+00	1.223736e+00	1.223008e+00	
SCALARS X-Momentum float 1
LOOKUP_TABLE default
8.170867e+00	2.793314e-01	5.227283e+00	5.676863e-01	-5.880009e-01	-4.977168e+00	1.646144e+01	1.002124e+01	9.869048e+00	9.637485e+00	9.353649e+00	9.023861e+00	8.702533e+00	8.386009e+00	7.998275e+00	7.665530e+00	7.164819e+00	6.536655e+00	5.834606e+00	5.051755e+00	4.203056e+00	3.403785e+00	2.529635e+00	1.701609e+00	9.144624e-01	-6.448520e-03	1.225534e-01	3.123122e-01	5.170456e-01	7.525777e-01	1.003943e+00	1.260886e+00	1.530362e+00	1.798364e+00	1.996337e+00	2.023010e+00	1.853191e+00	4.624032e+00	9.261820e-01	9.304873e-01	1.104254e+00	1.158289e+00	1.163004e+00	1.118258e+00	9.962262e-01	8.173076e-01	6.257097e-01	4.144245e-01	2.460198e-01	1.411966e-01	-1.847517e+00	-3.352058e+00	-4.660004e+00	-5.880405e+00	-6.903315e+00	-7.671166e+00	-8.236104e+00	-8.522052e+00	-8.070089e+00	-7.271564e+00	-6.464225e+00	-1.289992e+00	4.092385e+00	9.539210e+00	1.365821e+01	1.584643e+01	1.652446e+01	1.578904e+01	1.486437e+01	1.383326e+01	1.295565e+01	1.221072e+01	1.154645e+01	1.096249e+01	1.048873e+01	1.017190e+01	2.577665e+00	1.565996e+00	7.032307e+00	-5.811291e+00	1.130433e+00	2.177650e+00	4.829668e+00	-5.513815e+00	9.268699e+00	1.202999e+01	1.108575e+01	1.378501e+01	3.230846e-01	1.349301e+00	2.992533e+00	-4.073545e+00	1.461685e+00	2.658004e+00	-3.535816e-01	8.965810e-01	7.227456e-01	8.393436e+00	1.014328e+01	1.558496e+01	1.257961e+00	-1.900176e+00	-3.320778e+00	8.023304e+00	6.918694e+00	1.050452e+01	1.369693e+01	1.253121e+01	8.660661e+00	1.133664e+01	1.398769e+01	1.303700e+01	1.006306e+01	1.176359e+01	8.581043e+00	1.008803e+01	1.303089e+01	1.201196e+01	1.370534e+01	1.319389e+01	1.368397e+01	1.310946e+01	1.296641e+01	1.209233e+01	6.843240e+00	1.468592e+01	1.359297e+01	5.238420e+00	4.215749e+00	1.200007e+01	1.108603e+01	1.078019e+01	1.013986e+01	9.520747e+00	9.364875e+00	9.850281e+00	8.566003e+00	8.744214e+00	5.060578e+00	2.998436e+00	2.193771e+00	1.121240e+01	1.555108e+00	1.259648e+01	5.470453e+00	2.637279e+00	6.263641e+00	4.605597e+00	1.197234e+01	7.973932e+00	8.315460e+00	7.505244e+00	7.028443e+00	6.408331e+00	8.914264e+00	4.945770e-01	1.044313e+00	2.869189e-01	9.777812e+00	1.515006e+01	8.358122e+00	9.295460e+00	2.271857e+00	4.137225e+00	7.012665e+00	2.631996e+00	-9.857373e-01	-3.727480e-01	9.889147e+00	6.622764e+00	5.524839e+00	5.472103e+00	4.460907e+00	8.571009e+00	6.329638e+00	1.128287e+01	1.192702e+01	1.266164e+00	2.299050e-01	1.096513e+01	-9.666820e-01	-8.474609e-01	1.496265e+01	9.054898e+00	1.513661e+01	-2.162839e+00	-3.160540e+00	8.035214e+00	4.660274e+00	5.404540e+00	3.743801e+00	5.550114e+00	6.971336e+00	8.767855e+00	1.156970e+00	1.856837e+00	-2.330602e+00	3.396799e+00	1.424179e+01	-1.663800e+00	9.477542e-01	-9.452559e-01	2.352049e+00	5.880825e-01	9.368878e+00	8.747991e+00	3.968645e+00	8.602682e+00	1.063029e+01	1.081029e+01	1.025941e+01	1.043871e+01	9.897372e+00	2.698085e+00	1.040872e+01	1.144501e+01	8.850854e+00	1.277790e+01	1.258444e+01	1.352648e+01	9.433526e+00	3.601684e+00	1.182572e+01	4.539955e+00	-1.824685e+00	-5.515497e-01	-1.302541e+00	8.246362e+00	6.760044e+00	1.539765e+01	7.831704e+00	1.505375e+01	1.431951e+01	9.465348e+00	3.016222e-01	3.603164e-01	-5.989956e+00	4.279541e+00	2.530171e+00	1.281864e+01	3.105805e+00	2.185292e+00	2.268929e+00	3.445919e+00	1.017392e+01	9.794188e+00	1.117410e+01	8.746804e+00	9.263907e+00	6.405667e+00	6.957512e+00	7.498288e+00	6.305949e+00	7.010657e+00	1.525762e+01	1.183425e+01	2.239142e+00	9.381374e+00	4.796280e+00	1.939558e+00	3.445281e+00	3.936659e+00	-4.927473e+00	-5.746397e+00	5.669280e+00	-4.967800e+00	-3.042981e+00	2.077405e+00	1.055271e+01	1.191377e+01	1.611026e+01	9.912339e-01	7.595857e+00	8.038234e+00	4.304506e+00	1.438855e+00	1.960269e+00	1.461252e+01	9.542935e+00	1.466599e+01	2.960976e+00	1.247253e+00	9.834483e+00	2.798710e+00	-3.842151e+00	1.380573e+01	5.471352e+00	2.438989e+00	1.521197e+00	8.452760e+00	1.311157e+00	1.982676e+00	8.810232e-01	2.753722e+00	6.123008e-01	1.082067e+00	1.356129e-02	-3.623773e-01	1.666479e+00	-1.524796e+00	1.584378e+00	6.127139e+00	7.797737e+00	-1.618159e-01	6.148613e+00	4.644076e+00	7.439306e+00	-9.930650e-01	4.707653e+00	1.741201e+00	5.746023e+00	-6.663559e-01	7.136127e-01	9.165133e+00	9.442476e+00	7.645195e+00	1.094696e+01	1.006319e+01	6.466476e+00	1.134227e+01	2.994484e+00	1.439286e+01	1.336879e+01	7.649867e+00	1.566626e+01	1.467089e+01	2.078037e+00	1.043825e+01	1.169734e+01	1.468304e+01	9.961637e+00	3.965556e+00	1.396091e+01	2.531167e+00	-3.244262e+00	1.423016e+01	-2.544795e+00	1.275432e+01	8.293101e+00	-3.698919e+00	1.217642e+01	9.370519e+00	2.753865e+00	7.497570e+00	-2.927565e+00	-3.514118e+00	8.213042e+00	3.656361e+00	4.368944e+00	1.053806e+01	7.727229e+00	8.345217e+00	1.072166e+01	9.811414e+00	3.365321e+00	3.386786e+00	1.832370e+00	7.882307e+00	-6.976736e-01	1.159253e+01	9.985207e+00	1.219244e+01	3.817597e+00	1.618332e+01	1.521632e+00	-3.681440e+00	-2.140463e+00	9.967778e+00	-2.315845e+00	1.061291e+01	1.114894e+01	5.951738e+00	6.107606e+00	9.063242e+00	9.571988e-02	8.207490e-01	5.652748e-01	-8.642007e-01	1.264233e+01	1.405810e+01	3.379338e+00	1.221388e+01	8.086654e+00	1.523839e+01	1.193543e+00	1.137279e+01	6.487173e+00	7.181883e+00	1.718886e+00	5.445171e+00	1.322029e+01	7.484994e+00	2.835952e+00	7.454672e+00	
SCALARS Y-Momentum float 1
LOOKUP_TABLE default
-2.259393e-02	2.748970e-01	6.606485e+00	-5.084547e-01	5.638182e-01	2.236629e-01	6.862955e-02	-1.308389e-02	1.921801e-02	4.821018e-02	6.823838e-02	8.959139e-02	7.780995e-02	1.856559e-02	-3.826363e-03	1.447624e-04	5.986975e-03	4.005785e-03	9.668222e-03	1.120205e-02	-7.971936e-03	7.020492e-03	-3.809967e-04	6.729905e-03	-2.217304e-02	8.752802e-01	1.576722e+00	2.303218e+00	3.106335e+00	3.922395e+00	4.716856e+00	5.493706e+00	6.276288e+00	7.107471e+00	7.801207e+00	8.104229e+00	8.553549e+00	-1.070912e+00	1.870150e+00	2.829939e+00	3.642019e+00	4.208411e+00	4.530414e+00	4.652559e+00	4.555714e+00	4.257197e+00	3.813432e+00	3.217918e+00	2.497605e+00	1.576836e+00	-3.464809e-03	2.809548e-02	2.830121e-02	1.132383e-02	7.986349e-03	1.715645e-02	1.924953e-02	2.189114e-03	-5.195274e-02	-7.318547e-02	-9.860535e-02	-4.853589e-01	-4.980342e-01	-1.071739e-01	5.316108e-01	7.715573e-01	4.725220e-01	1.464810e-02	5.121660e-03	-2.010984e-03	-3.658202e-02	-2.312024e-02	-2.088348e-03	-4.759766e-03	3.794602e-03	-2.044381e-03	8.544247e+00	3.189344e+00	5.007090e-01	-2.184800e-01	4.346275e+00	5.495222e+00	7.642193e-01	5.982697e-01	4.231819e-01	2.913304e-01	5.020942e-01	8.937308e-01	3.697664e+00	3.268183e+00	7.682117e-01	8.312495e-01	4.010424e+00	6.944001e+00	2.572026e+00	1.840837e+00	-7.671044e-01	3.569013e-01	2.851679e-01	8.430343e-01	6.199162e-01	9.619327e-01	-5.827046e-01	2.688145e-01	-4.316041e-01	1.585302e-01	9.339219e-01	1.038679e+00	3.046993e-01	1.217166e+00	1.920258e+00	2.156312e+00	1.541002e+00	2.439032e+00	1.985013e+00	2.803705e+00	3.405343e+00	3.854172e+00	4.286706e+00	4.837869e+00	4.711660e+00	5.381244e+00	4.527764e+00	5.165500e+00	2.313229e+00	2.644121e+00	3.948367e+00	1.844492e+00	2.426071e+00	3.831161e+00	3.944102e+00	5.295711e+00	3.765544e+00	4.551807e+00	3.313488e+00	2.870859e+00	3.755760e+00	2.712197e+00	2.757659e+00	3.098023e+00	2.594860e+00	2.937314e+00	3.234163e+00	5.496169e+00	1.245927e+00	1.156166e+00	2.481233e+00	2.171067e+00	2.782176e+00	2.833630e+00	2.129946e+00	3.889149e+00	2.599618e+00	3.494915e+00	2.019557e+00	2.500679e+00	1.912970e+00	2.982042e+00	6.401377e+00	2.170778e+00	6.009638e+00	5.297780e+00	2.605988e+00	2.908720e+00	3.179796e+00	3.492275e+00	1.656087e+00	1.022009e+00	8.207376e+00	4.921139e+00	4.374595e+00	3.119173e+00	3.770539e+00	1.571163e+00	3.102487e+00	2.112934e+00	1.877838e+00	3.685715e+00	3.311424e+00	7.189609e+00	2.558070e+00	2.827012e+00	2.520897e+00	1.467374e+00	1.963048e+00	2.012010e+00	7.271259e-01	1.555061e+00	2.588279e+00	2.188176e+00	2.846294e+00	6.250516e+00	6.694153e+00	1.026895e+00	3.911617e+00	4.101029e+00	1.772277e+00	3.826040e+00	3.729483e+00	3.431458e-01	4.591569e-01	-4.678248e-02	-4.261707e-02	-5.732474e-01	3.819745e+00	3.349419e+00	1.893504e+00	5.113872e+00	2.200645e+00	1.580670e+00	1.621411e+00	1.140160e+00	1.131122e+00	2.948030e+00	8.516102e+00	7.569763e+00	9.421179e+00	2.582224e+00	1.478184e+00	2.213238e+00	1.824710e+00	3.306108e+00	1.099860e+00	5.193577e+00	2.242378e+00	3.101170e+00	2.462335e+00	9.582609e+00	9.847774e+00	1.758661e+00	7.594364e-01	1.020131e+00	1.916287e+00	1.302853e+00	3.599592e+00	3.794468e+00	1.314344e-01	6.683966e+00	3.951636e+00	7.045352e-01	2.070575e+00	2.110190e+00	3.802072e+00	-7.583174e-01	6.979707e-01	6.605320e-01	4.307791e+00	5.005983e-01	3.050957e+00	5.983689e-01	1.086246e+00	8.695792e-01	1.348582e+00	1.730165e+00	1.475961e+00	6.198815e+00	4.056364e+00	8.208639e+00	7.888970e+00	3.943626e+00	5.848002e+00	9.123198e-01	7.082712e-01	4.306168e-01	6.912764e-01	-4.098430e-01	9.659905e-01	7.267025e-01	3.760343e-01	6.362855e+00	1.004892e+00	4.032637e+00	4.046264e-01	6.934720e-01	6.358795e-01	4.111545e+00	3.574591e+00	3.211231e+00	3.949297e-01	8.153315e-01	4.850114e+00	2.352686e+00	2.965123e-01	7.875365e+00	1.078039e+00	3.151244e+00	1.408057e+00	6.199209e+00	3.596791e+00	7.477104e-01	4.247849e+00	4.760670e+00	4.272658e+00	1.318804e+00	4.047027e+00	2.550441e+00	3.214325e+00	3.140781e+00	3.986170e+00	1.926746e+00	1.431271e+00	2.520068e+00	8.472759e+00	-8.006407e-01	2.973396e+00	-3.487511e-01	4.262404e+00	2.182229e+00	1.622283e+00	4.001964e+00	1.034983e+01	1.795048e+00	1.143066e+00	1.060928e+00	8.191972e-01	5.302398e+00	1.032462e+00	4.879158e+00	1.318420e+00	1.416180e+00	2.048728e+00	2.674277e+00	1.430840e+00	2.020656e+00	1.425154e+00	1.458608e+00	3.336428e+00	2.904871e+00	5.004882e-01	1.637058e+00	2.179895e+00	3.264364e+00	3.010557e+00	1.436085e+00	1.450069e+00	3.784471e+00	1.683684e+00	3.536257e+00	1.116879e+00	1.272583e+00	6.654723e+00	2.464498e+00	3.768792e+00	1.383024e+00	-4.103546e-01	-4.411147e-01	1.217650e-01	8.073385e+00	9.474911e+00	7.807983e+00	3.337490e+00	6.764750e+00	3.724706e+00	1.585695e+00	1.406010e+00	1.002419e+01	2.705084e+00	1.091160e+00	2.686321e+00	5.023502e+00	1.205247e-01	6.958564e-01	4.620910e+00	4.923782e-01	2.116043e+00	2.890940e-02	-6.921810e-01	4.881248e-01	1.471583e+00	7.527796e-01	6.831851e+00	1.885106e+00	8.326392e+00	6.634661e-01	3.582793e+00	4.054620e+00	5.243198e-01	9.186069e-01	6.103535e+00	4.214774e+00	7.019977e+00	4.407050e+00	4.453957e+00	1.441895e+00	4.184252e+00	8.704342e-01	1.999740e+00	-3.565911e-01	4.100344e+00	1.710783e-01	3.314000e+00	8.390837e+00	5.512999e+00	2.647065e+00	
SCALARS Energy float 1
LOOKUP_TABLE default