# vtk DataFile Version 3.0
vtk output
ASCII
DATASET UNSTRUCTURED_GRID
POINTS 394 float
-3.000000e+00	0.000000e+00	0.0	-5.000000e-02	2.875494e-17	0.0	1.648880e-01	1.014368e+00	0.0	2.649325e-01	9.863420e-01	0.0	5.000000e-02	-3.376616e-18	0.0	3.000000e+00	0.000000e+00	0.0	3.000000e+00	4.000000e+00	0.0	-3.000000e+00	4.000000e+00	0.0	-3.000000e+00	3.428571e+00	0.0	-3.000000e+00	2.857143e+00	0.0	-3.000000e+00	2.285714e+00	0.0	-3.000000e+00	1.714286e+00	0.0	-3.000000e+00	1.142857e+00	0.0	-3.000000e+00	5.714286e-01	0.0	-2.473871e+00	0.000000e+00	0.0	-2.029066e+00	0.000000e+00	0.0	-1.653013e+00	0.000000e+00	0.0	-1.335087e+00	0.000000e+00	0.0	-1.066302e+00	0.000000e+00	0.0	-8.390627e-01	0.000000e+00	0.0	-6.469477e-01	0.000000e+00	0.0	-4.845277e-01	0.000000e+00	0.0	-3.472127e-01	0.000000e+00	0.0	-2.311224e-01	0.000000e+00	0.0	-1.329760e-01	0.000000e+00	0.0	-4.675280e-02	8.019774e-02	0.0	-3.932514e-02	1.598689e-01	0.0	-2.818525e-02	2.389769e-01	0.0	-1.415310e-02	3.176000e-01	0.0	2.087868e-03	3.958109e-01	0.0	1.996354e-02	4.736860e-01	0.0	3.902472e-02	5.513067e-01	0.0	5.894771e-02	6.287446e-01	0.0	7.950260e-02	7.060521e-01	0.0	1.005211e-01	7.832555e-01	0.0	1.218363e-01	8.603762e-01	0.0	1.433843e-01	9.374006e-01	0.0	2.149099e-01	1.000396e+00	0.0	2.433209e-01	9.094336e-01	0.0	2.218226e-01	8.325559e-01	0.0	2.004931e-01	7.557676e-01	0.0	1.794797e-01	6.790723e-01	0.0	1.589260e-01	6.024866e-01	0.0	1.390049e-01	5.260352e-01	0.0	1.199447e-01	4.497657e-01	0.0	1.020703e-01	3.737466e-01	0.0	8.582981e-02	2.980576e-01	0.0	7.179826e-02	2.227747e-01	0.0	6.066335e-02	1.479688e-01	0.0	5.319333e-02	7.370546e-02	0.0	1.329760e-01	0.000000e+00	0.0	2.311224e-01	0.000000e+00	0.0	3.472127e-01	0.000000e+00	0.0	4.845277e-01	0.000000e+00	0.0	6.469477e-01	0.000000e+00	0.0	8.390627e-01	0.000000e+00	0.0	1.066302e+00	0.000000e+00	0.0	1.335087e+00	0.000000e+00	0.0	1.653013e+00	0.000000e+00	0.0	2.029066e+00	0.000000e+00	0.0	2.473871e+00	0.000000e+00	0.0	3.000000e+00	5.714286e-01	0.0	3.000000e+00	1.142857e+00	0.0	3.000000e+00	1.714286e+00	0.0	3.000000e+00	2.285714e+00	0.0	3.000000e+00	2.857143e+00	0.0	3.000000e+00	3.428571e+00	0.0	2.400000e+00	4.000000e+00	0.0	1.800000e+00	4.000000e+00	0.0	1.200000e+00	4.000000e+00	0.0	6.000000e-01	4.000000e+00	0.0	0.000000e+00	4.000000e+00	0.0	-6.000000e-01	4.000000e+00	0.0	-1.200000e+00	4.000000e+00	0.0	-1.800000e+00	4.000000e+00	0.0	-2.400000e+00	4.000000e+00	0.0	4.391268e-02	9.104427e-01	0.0	2.798743e-01	8.658477e-01	0.0	-1.472566e+00	2.685305e-01	0.0	1.516045e+00	2.086095e-01	0.0	1.931264e-01	5.545543e-01	0.0	-3.837067e-02	5.990236e-01	0.0	-7.358959e-01	1.801029e-01	0.0	7.612201e-01	1.397672e-01	0.0	-2.564893e+00	2.089249e+00	0.0	2.555424e+00	1.926422e+00	0.0	-8.823417e-01	3.514646e+00	0.0	9.685615e-01	3.451217e+00	0.0	1.499468e-01	3.315712e-01	0.0	-8.552740e-02	3.608913e-01	0.0	-4.077875e-01	1.229407e-01	0.0	4.245639e-01	9.824110e-02	0.0	2.372608e-01	7.070117e-01	0.0	-1.921085e-03	7.549853e-01	0.0	1.350192e-01	1.858629e-01	0.0	-1.089953e-01	2.046056e-01	0.0	2.541330e+00	7.906329e-01	0.0	-2.491161e+00	8.036217e-01	0.0	-2.037302e+00	3.460841e+00	0.0	2.092091e+00	3.428391e+00	0.0	-1.809485e-01	7.987285e-02	0.0	1.874285e-01	6.978022e-02	0.0	2.238611e+00	3.766462e-01	0.0	-2.244096e+00	3.681212e-01	0.0	2.504987e+00	1.378170e+00	0.0	2.149464e+00	1.676751e+00	0.0	2.131796e+00	2.089981e+00	0.0	1.806192e+00	1.828187e+00	0.0	1.783853e+00	1.427974e+00	0.0	1.511834e+00	1.625712e+00	0.0	1.488541e+00	1.972545e+00	0.0	1.250533e+00	1.761931e+00	0.0	1.256063e+00	1.463162e+00	0.0	1.039802e+00	1.579593e+00	0.0	1.042535e+00	1.332455e+00	0.0	8.427631e-01	1.408202e+00	0.0	8.247346e-01	1.669004e+00	0.0	6.534150e-01	1.524935e+00	0.0	6.233211e-01	1.759998e+00	0.0	4.628735e-01	1.644498e+00	0.0	4.199110e-01	1.859356e+00	0.0	2.686498e-01	1.734393e+00	0.0	2.039224e-01	1.958816e+00	0.0	4.076876e-02	1.789540e+00	0.0	8.749714e-01	1.196235e+00	0.0	1.202606e+00	2.100928e+00	0.0	4.154451e-01	2.125181e+00	0.0	1.019602e+00	1.086119e+00	0.0	8.528998e-01	1.008706e+00	0.0	-4.175662e-02	2.072396e+00	0.0	-2.487772e-01	1.913422e+00	0.0	-1.631935e-01	1.636949e+00	0.0	-4.656832e-01	1.756382e+00	0.0	-4.026438e-01	1.512567e+00	0.0	-6.804167e-01	1.595498e+00	0.0	-7.075319e-01	1.834231e+00	0.0	-6.258101e-01	1.345528e+00	0.0	-9.150260e-01	1.426879e+00	0.0	7.286607e-01	1.089149e+00	0.0	7.069823e-01	9.213495e-01	0.0	8.277928e-01	8.310122e-01	0.0	-3.255498e-01	2.200886e+00	0.0	6.767685e-01	7.507629e-01	0.0	3.136798e-01	1.509774e+00	0.0	2.172737e-01	1.048930e+00	0.0	2.773945e-01	1.029216e+00	0.0	2.456773e-01	1.099266e+00	0.0	3.140626e-01	1.092701e+00	0.0	-8.187470e-02	2.381700e+00	0.0	-8.620059e-01	1.162471e+00	0.0	-1.163457e+00	1.241670e+00	0.0	-5.847782e-01	1.084676e+00	0.0	-8.539978e-01	8.822770e-01	0.0	-5.901869e-01	8.564655e-01	0.0	-1.219714e+00	1.541777e+00	0.0	7.969682e-01	6.596970e-01	0.0	9.585864e-01	7.338391e-01	0.0	6.418191e-01	5.964231e-01	0.0	-1.745036e-01	1.396649e+00	0.0	1.451808e+00	2.332934e+00	0.0	1.691216e-01	1.100751e+00	0.0	2.074049e-01	1.170279e+00	0.0	3.416177e-01	1.010508e+00	0.0	3.921532e-01	1.082979e+00	0.0	3.521050e-01	1.168364e+00	0.0	4.215180e-01	9.874618e-01	0.0	9.220576e-01	5.597426e-01	0.0	1.118921e+00	6.484396e-01	0.0	1.142376e-01	1.172879e+00	0.0	-3.913026e-01	9.752447e-01	0.0	-3.917330e-01	7.965376e-01	0.0	-5.584662e-01	6.653637e-01	0.0	-3.629196e-01	6.292367e-01	0.0	-1.493974e+00	1.331100e+00	0.0	4.554583e-01	1.168870e+00	0.0	-4.028254e-01	2.522499e+00	0.0	-1.293719e-01	2.740136e+00	0.0	5.357492e-01	6.744656e-01	0.0	4.994112e-01	5.317186e-01	0.0	1.620673e-01	1.259659e+00	0.0	6.018400e-01	4.533212e-01	0.0	4.612173e-01	3.971580e-01	0.0	1.134635e+00	2.474524e+00	0.0	-1.558013e+00	1.669452e+00	0.0	1.400500e+00	2.719959e+00	0.0	5.554452e-01	3.197594e-01	0.0	1.070834e+00	3.909834e-01	0.0	-1.422633e+00	1.036923e+00	0.0	-5.187692e-01	4.953490e-01	0.0	-6.852965e-01	5.235353e-01	0.0	-3.689321e-01	4.574027e-01	0.0	-2.178685e-01	9.215552e-01	0.0	-2.347750e-01	1.073930e+00	0.0	-1.945263e+00	1.442500e+00	0.0	4.019632e-01	6.099492e-01	0.0	4.481115e-01	7.458402e-01	0.0	7.098786e-01	3.704966e-01	0.0	-2.449778e-01	5.487993e-01	0.0	7.667493e-01	1.938642e+00	0.0	1.279277e+00	5.562768e-01	0.0	1.321931e+00	7.727562e-01	0.0	1.508922e+00	6.313575e-01	0.0	1.562750e+00	9.057811e-01	0.0	1.820588e+00	7.700726e-01	0.0	3.960320e-01	1.269339e+00	0.0	5.141362e-01	1.265893e+00	0.0	-4.894178e-01	3.353166e-01	0.0	-3.839072e-01	1.312870e+00	0.0	-6.674771e-01	2.310896e+00	0.0	-7.678173e-01	2.669449e+00	0.0	-1.059248e+00	2.448499e+00	0.0	-1.161652e+00	2.814273e+00	0.0	-1.535631e+00	2.484935e+00	0.0	-2.355831e-01	4.069387e-01	0.0	4.727050e-02	1.259779e+00	0.0	9.109931e-02	1.366784e+00	0.0	8.253699e-03	1.164019e+00	0.0	2.297831e-01	2.559289e+00	0.0	2.036502e-01	3.018075e+00	0.0	5.476567e-01	2.768780e+00	0.0	-1.266466e+00	1.878507e+00	0.0	5.988673e-01	1.003534e+00	0.0	-2.285226e-01	3.157380e+00	0.0	-2.379914e-01	7.638188e-01	0.0	4.190096e-01	2.726795e-01	0.0	3.157383e-01	3.442784e-01	0.0	2.930841e-01	2.389201e-01	0.0	7.558031e-02	1.099022e+00	0.0	-1.742899e-02	1.069258e+00	0.0	1.751586e+00	2.575792e+00	0.0	1.451764e+00	1.314298e+00	0.0	2.486095e+00	2.493691e+00	0.0	9.888423e-01	2.894755e+00	0.0	-1.621807e+00	2.036511e+00	0.0	3.545086e-01	4.721239e-01	0.0	2.480392e-01	4.200585e-01	0.0	1.221073e+00	1.892478e-01	0.0	-1.242935e-01	8.427035e-01	0.0	-1.520890e-01	4.900321e-01	0.0	4.169477e-01	3.515984e+00	0.0	-3.462462e-01	3.150571e-01	0.0	-2.317536e-01	2.841189e-01	0.0	5.652200e-01	8.464419e-01	0.0	2.157514e+00	1.038689e+00	0.0	-1.625591e+00	3.030541e+00	0.0	-1.980001e+00	2.681847e+00	0.0	4.467846e-01	1.388104e+00	0.0	-2.468861e+00	1.318789e+00	0.0	6.781247e-01	1.327686e+00	0.0	-1.184272e+00	2.397392e-01	0.0	-1.286611e+00	5.047091e-01	0.0	-1.573941e+00	5.558091e-01	0.0	-1.014840e+00	4.745156e-01	0.0	-1.108634e+00	7.296860e-01	0.0	1.698658e+00	3.028480e+00	0.0	4.146930e-02	1.600292e+00	0.0	4.567688e-01	8.733610e-01	0.0	-7.685431e-02	1.253085e+00	0.0	-1.018900e-01	9.333139e-01	0.0	3.541553e-01	8.036334e-01	0.0	-1.177405e-01	7.207571e-01	0.0	-5.518478e-01	1.806783e-01	0.0	5.771173e-01	1.110454e-01	0.0	9.814857e-01	1.807823e-01	0.0	-9.428663e-01	2.102362e-01	0.0	1.842329e+00	2.579913e-01	0.0	2.983248e-01	8.308173e-02	0.0	-2.792837e-01	1.008427e-01	0.0	-1.455190e+00	3.531990e+00	0.0	2.240264e-01	1.367517e+00	0.0	2.542028e+00	3.098536e+00	0.0	3.077816e-01	5.479551e-01	0.0	-1.822979e+00	3.132133e-01	0.0	-1.951693e+00	7.097786e-01	0.0	1.384478e+00	1.037207e+00	0.0	3.088225e-01	6.469415e-01	0.0	3.591822e-01	9.131846e-01	0.0	8.852808e-01	2.222699e+00	0.0	-2.509152e+00	2.536346e+00	0.0	1.482233e+00	3.506357e+00	0.0	-1.426643e-01	6.101303e-01	0.0	2.917864e-01	9.515313e-01	0.0	-2.439128e+00	3.081413e+00	0.0	2.039446e-02	8.317070e-01	0.0	8.529181e-01	2.862137e-01	0.0	5.619388e-01	2.411134e+00	0.0	-8.040109e-01	3.549856e-01	0.0	-2.163822e-02	6.772402e-01	0.0	2.599049e-01	7.840222e-01	0.0	-2.121428e+00	1.076873e+00	0.0	2.135609e-01	6.338073e-01	0.0	-6.367775e-02	5.278474e-01	0.0	1.787501e-01	4.796291e-01	0.0	1.144315e+00	8.883965e-01	0.0	1.637790e-01	4.028804e-01	0.0	-9.530568e-02	2.810248e-01	0.0	1.382716e-01	2.580302e-01	0.0	2.189144e-01	2.889846e-01	0.0	-7.758969e-02	4.421598e-01	0.0	2.286128e-01	1.528359e-01	0.0	-2.024241e-01	1.813278e-01	0.0	-7.523410e-01	6.826127e-01	0.0	-1.089780e-01	1.139171e+00	0.0	2.144520e+00	7.041737e-01	0.0	5.970760e-01	1.157687e+00	0.0	1.839612e+00	1.104726e+00	0.0	1.677263e-01	1.054373e+00	0.0	7.565590e-01	5.110773e-01	0.0	-6.318012e-01	3.463908e-01	0.0	3.120564e-01	7.391681e-01	0.0	5.559134e-02	1.029427e+00	0.0	1.209829e-01	1.103019e-01	0.0	-1.116868e-01	1.221660e-01	0.0	-1.887137e+00	1.812546e+00	0.0	-2.034251e+00	2.194615e+00	0.0	-3.725494e-01	1.144102e+00	0.0	-8.376506e-01	3.071009e+00	0.0	2.635557e-01	1.246866e+00	0.0	1.218356e+00	1.186425e+00	0.0	-4.883067e-01	2.905041e+00	0.0	9.616916e-01	9.081217e-01	0.0	8.256060e-01	2.554082e+00	0.0	6.286675e-01	3.129731e+00	0.0	-1.131962e+00	9.680355e-01	0.0	2.112269e+00	2.845092e+00	0.0	1.321832e+00	3.123096e+00	0.0	-1.
[...]
POINT_DATA 394

SCALARS Density float 1
LOOKUP_TABLE default
1.223739e+00	1.223935e+00	1.222083e+00	1.222007e+00	1.223520e+00	1.223726e+00	1.223266e+00	1.223607e+00	1.223591e+00	1.223604e+00	1.223648e+00	1.223676e+00	1.223747e+00	1.223752e+00	1.223760e+00	1.223743e+00	1.223773e+00	1.223792e+00	1.223829e+00	1.223851e+00	1.223871e+00	1.223921e+00	1.223894e+00	1.223974e+00	1.223883e+00	1.223996e+00	1.223888e+00	1.223903e+00	1.223897e+00	1.223873e+00	1.223856e+00	1.223812e+00	1.223804e+00	1.223718e+00	1.223795e+00	1.223018e+00	1.224797e+00	1.220372e+00	1.223851e+00	1.223449e+00	1.223490e+00	1.223458e+00	1.223418e+00	1.223396e+00	1.223398e+00	1.223402e+00	1.223424e+00	1.223453e+00	1.223392e+00	1.223591e+00	1.223396e+00	1.223493e+00	1.223423e+00	1.223362e+00	1.223320e+00	1.223293e+00	1.223204e+00	1.223232e+00	1.223228e+00	1.223353e+00	1.222883e+00	1.223463e+00	1.223160e+00	1.222963e+00	1.222851e+00	1.222948e+00	1.223081e+00	1.223110e+00	1.223244e+00	1.223286e+00	1.223373e+00	1.223426e+00	1.223503e+00	1.223557e+00	1.223590e+00	1.223593e+00	1.223211e+00	1.223724e+00	1.223781e+00	1.223172e+00	1.223443e+00	1.223766e+00	1.223840e+00	1.223278e+00	1.223645e+00	1.223310e+00	1.223528e+00	1.223312e+00	1.223426e+00	1.223861e+00	1.223902e+00	1.223384e+00	1.223546e+00	1.223594e+00	1.223504e+00	1.223910e+00	1.223054e+00	1.223738e+00	1.223613e+00	1.223118e+00	1.223938e+00	1.223471e+00	1.223276e+00	1.223730e+00	1.222997e+00	1.222957e+00	1.223125e+00	1.223128e+00	1.223088e+00	1.223063e+00	1.223050e+00	1.223289e+00	1.222937e+00	1.222970e+00	1.223029e+00	1.223161e+00	1.222925e+00	1.223200e+00	1.223164e+00	1.223269e+00	1.223204e+00	1.223254e+00	1.223465e+00	1.223350e+00	1.223112e+00	1.223046e+00	1.223275e+00	1.222958e+00	1.223141e+00	1.223431e+00	1.223522e+00	1.223536e+00	1.223477e+00	1.223617e+00	1.223677e+00	1.223576e+00	1.223662e+00	1.223653e+00	1.223238e+00	1.223214e+00	1.223276e+00	1.223540e+00	1.223307e+00	1.223237e+00	1.222016e+00	1.222047e+00	1.222847e+00	1.222996e+00	1.223430e+00	1.223715e+00	1.223711e+00	1.223760e+00	1.223763e+00	1.223778e+00	1.223674e+00	1.223209e+00	1.223050e+00	1.223311e+00	1.223542e+00	1.223206e+00	1.221902e+00	1.223243e+00	1.223021e+00	1.222974e+00	1.222768e+00	1.223206e+00	1.223230e+00	1.223147e+00	1.223171e+00	1.223734e+00	1.223754e+00	1.223806e+00	1.223782e+00	1.223688e+00	1.222882e+00	1.223498e+00	1.223482e+00	1.223424e+00	1.223357e+00	1.223132e+00	1.223312e+00	1.223368e+00	1.223288e+00	1.223666e+00	1.223159e+00	1.223392e+00	1.223099e+00	1.223739e+00	1.223835e+00	1.223855e+00	1.223900e+00	1.223717e+00	1.223632e+00	1.223703e+00	1.223396e+00	1.223453e+00	1.223255e+00	1.223856e+00	1.223353e+00	1.223024e+00	1.223171e+00	1.222955e+00	1.222939e+00	1.223053e+00	1.222972e+00	1.222955e+00	1.223905e+00	1.223574e+00	1.223547e+00	1.223532e+00	1.223594e+00	1.223574e+00	1.223634e+00	1.223853e+00	1.223191e+00	1.223494e+00	1.223478e+00	1.223366e+00	1.223390e+00	1.223407e+00	1.223638e+00	1.223106e+00	1.223422e+00	1.223825e+00	1.223364e+00	1.223387e+00	1.223419e+00	1.223700e+00	1.223095e+00	1.223106e+00	1.222928e+00	1.223301e+00	1.223312e+00	1.223656e+00	1.223436e+00	1.223345e+00	1.223022e+00	1.223674e+00	1.223941e+00	1.223416e+00	1.223874e+00	1.223910e+00	1.223255e+00	1.222933e+00	1.223567e+00	1.223605e+00	1.222754e+00	1.223685e+00	1.223063e+00	1.223813e+00	1.223841e+00	1.223714e+00	1.223808e+00	1.223749e+00	1.223276e+00	1.223504e+00	1.223306e+00	1.223443e+00	1.223687e+00	1.223513e+00	1.223820e+00	1.223927e+00	1.223346e+00	1.223245e+00	1.223843e+00	1.223001e+00	1.223499e+00	1.223953e+00	1.223566e+00	1.223110e+00	1.223169e+00	1.223471e+00	1.223780e+00	1.223727e+00	1.223041e+00	1.223417e+00	1.223182e+00	1.223227e+00	1.223644e+00	1.223245e+00	1.223777e+00	1.223240e+00	1.223629e+00	1.223964e+00	1.223239e+00	1.223355e+00	1.223825e+00	1.223812e+00	1.223490e+00	1.223701e+00	1.223491e+00	1.223804e+00	1.223426e+00	1.223093e+00	1.223436e+00	1.223895e+00	1.223440e+00	1.223386e+00	1.223815e+00	1.223365e+00	1.223937e+00	1.223798e+00	1.223622e+00	1.222971e+00	1.223087e+00	1.223305e+00	1.224697e+00	1.223288e+00	1.223901e+00	1.223408e+00	1.223450e+00	1.223427e+00	1.223912e+00	1.223651e+00	1.223655e+00	1.223683e+00	1.223530e+00	1.222829e+00	1.223124e+00	1.223489e+00	1.223058e+00	1.223252e+00	1.223314e+00	1.223783e+00	1.223309e+00	1.223248e+00	1.223916e+00	1.223583e+00	1.223523e+00	1.223094e+00	1.223580e+00	1.223093e+00	1.223187e+00	1.223867e+00	1.223319e+00	1.223370e+00	1.223369e+00	1.223377e+00	1.223754e+00	1.223263e+00	1.223312e+00	1.223644e+00	1.223167e+00	1.223747e+00	1.223314e+00	1.222470e+00	1.223772e+00	1.223788e+00	1.223365e+00	1.223441e+00	1.222745e+00	1.223632e+00	1.223172e+00	1.223616e+00	1.223834e+00	1.225043e+00	1.223911e+00	1.223745e+00	1.223363e+00	1.223283e+00	1.223579e+00	1.223439e+00	1.223808e+00	1.223041e+00	1.223921e+00	1.223161e+00	1.223065e+00	1.223595e+00	1.223163e+00	1.223587e+00	1.223337e+00	1.223811e+00	1.223791e+00	1.223707e+00	1.223352e+00	1.223354e+00	1.223941e+00	1.223562e+00	1.223500e+00	1.223155e+00	1.223618e+00	1.222885e+00	1.223456e+00	1.223163e+00	1.223384e+00	1.223489e+00	1.223766e+00	1.223002e+00	1.223473e+00	1.222821e+00	1.223322e+00	1.223057e+00	1.223722e+00	1.222979e+00	
SCALARS X-Momentum float 1
LOOKUP_TABLE default
8.266055e+00	3.077735e-01	5.520705e+00	5.537077e-01	-5.695908e-01	-4.833775e+00	1.641092e+01	1.004317e+01	9.896826e+00	9.673559e+00	9.399481e+00	9.081473e+00	8.773480e+00	8.471320e+00	8.099369e+00	7.775904e+00	7.289243e+00	6.675094e+00	5.986280e+00	5.213440e+00	4.366667e+00	3.561408e+00	2.666127e+00	1.807419e+00	9.804490e-01	2.223376e-02	2.116790e-01	4.715705e-01	7.435792e-01	1.035590e+00	1.328490e+00	1.616587e+00	1.911721e+00	2.204243e+00	2.428878e+00	2.459268e+00	2.295231e+00	4.619021e+00	1.011452e+00	1.044660e+00	1.255485e+00	1.342099e+00	1.375671e+00	1.352673e+00	1.239694e+00	1.054536e+00	8.385347e-01	5.829839e-01	3.538270e-01	1.820557e-01	-1.822919e+00	-3.315239e+00	-4.609706e+00	-5.812728e+00	-6.817576e+00	-7.572188e+00	-8.120691e+00	-8.396563e+00	-7.946192e+00	-7.142087e+00	-6.325711e+00	-1.144031e+00	4.224575e+00	9.628261e+00	1.368897e+01	1.583119e+01	1.648561e+01	1.572955e+01	1.480537e+01	1.377912e+01	1.290913e+01	1.217448e+01	1.152455e+01	1.095618e+01	1.049554e+01	1.018829e+01	2.994354e+00	1.691172e+00	7.162220e+00	-5.699296e+00	1.340674e+00	2.530698e+00	5.003736e+00	-5.414398e+00	9.319748e+00	1.205114e+01	1.108601e+01	1.374086e+01	5.269940e-01	1.600506e+00	3.159626e+00	-3.992072e+00	1.632458e+00	3.051269e+00	-2.255800e-01	1.043576e+00	8.285968e-01	8.478613e+00	1.016510e+01	1.552796e+01	1.363259e+00	-1.842601e+00	-3.206926e+00	8.122342e+00	6.982069e+00	1.051162e+01	1.367436e+01	1.251104e+01	8.664104e+00	1.131637e+01	1.395642e+01	1.301768e+01	1.004756e+01	1.176031e+01	8.568808e+00	1.010053e+01	1.306136e+01	1.207461e+01	1.376478e+01	1.328866e+01	1.375303e+01	1.321205e+01	1.303264e+01	1.218702e+01	6.833956e+00	1.466250e+01	1.362890e+01	5.227610e+00	4.223972e+00	1.205523e+01	1.115962e+01	1.089779e+01	1.023098e+01	9.650729e+00	9.469481e+00	9.928403e+00	8.711518e+00	8.853542e+00	5.066553e+00	3.037299e+00	2.241004e+00	1.125816e+01	1.646446e+00	1.273459e+01	5.547790e+00	2.660428e+00	6.355286e+00	4.657391e+00	1.200114e+01	8.112417e+00	8.424341e+00	7.691463e+00	7.192900e+00	6.618581e+00	9.001152e+00	5.830092e-01	1.095443e+00	4.145306e-01	9.949053e+00	1.510826e+01	8.570542e+00	9.483856e+00	2.313128e+00	4.175087e+00	7.097904e+00	2.684974e+00	-9.013731e-01	-3.098974e-01	1.013779e+01	6.870632e+00	5.792289e+00	5.693954e+00	4.729635e+00	8.660667e+00	6.374624e+00	1.130940e+01	1.193685e+01	1.405173e+00	3.855816e-01	1.117977e+01	-8.293646e-01	-6.953472e-01	1.493104e+01	9.126900e+00	1.508923e+01	-2.035429e+00	-3.067137e+00	8.143247e+00	4.879340e+00	5.598323e+00	3.985103e+00	5.863841e+00	7.241805e+00	8.843220e+00	1.324806e+00	2.001799e+00	-2.212340e+00	3.680707e+00	1.426773e+01	-1.584494e+00	9.980372e-01	-8.695196e-01	2.398072e+00	6.612870e-01	9.475919e+00	8.810537e+00	4.173920e+00	8.776633e+00	1.067286e+01	1.083644e+01	1.029929e+01	1.046604e+01	9.938896e+00	2.948750e+00	1.063904e+01	1.163901e+01	9.127495e+00	1.278804e+01	1.257277e+01	1.351106e+01	9.500205e+00	3.628908e+00	1.182146e+01	4.857420e+00	-1.692819e+00	-3.884759e-01	-1.169498e+00	8.548989e+00	7.091786e+00	1.534651e+01	7.825271e+00	1.502890e+01	1.428305e+01	9.521984e+00	4.768539e-01	5.572401e-01	-5.878937e+00	4.640082e+00	2.822548e+00	1.278658e+01	3.317658e+00	2.391866e+00	2.359920e+00	3.506373e+00	1.020103e+01	9.831750e+00	1.128746e+01	8.818064e+00	9.300180e+00	6.552157e+00	7.094919e+00	7.617208e+00	6.465383e+00	7.156698e+00	1.520285e+01	1.196412e+01	2.345778e+00	9.611371e+00	5.167183e+00	2.083629e+00	3.798389e+00	4.117591e+00	-4.835148e+00	-5.644407e+00	5.832225e+00	-4.856215e+00	-2.972464e+00	2.219379e+00	1.056451e+01	1.209716e+01	1.606372e+01	1.177745e+00	7.709256e+00	8.138176e+00	4.322214e+00	1.617545e+00	2.063644e+00	1.460920e+01	9.584919e+00	1.461163e+01	3.286115e+00	1.326345e+00	9.866213e+00	3.214570e+00	-3.737914e+00	1.381100e+01	5.648957e+00	2.813155e+00	1.666360e+00	8.537125e+00	1.503212e+00	2.308920e+00	1.101546e+00	2.772977e+00	8.314916e-01	1.282914e+00	1.865205e-01	-1.934789e-01	1.959048e+00	-1.424953e+00	1.737501e+00	6.314218e+00	8.073864e+00	-7.642373e-02	6.166254e+00	4.681698e+00	7.628096e+00	-8.789927e-01	4.899234e+00	1.903881e+00	6.112285e+00	-5.899521e-01	8.071980e-01	9.227361e+00	9.492814e+00	7.859980e+00	1.096030e+01	1.022669e+01	6.459245e+00	1.135355e+01	3.010008e+00	1.437386e+01	1.333939e+01	7.779741e+00	1.561385e+01	1.462124e+01	2.342860e+00	1.050106e+01	1.168324e+01	1.464305e+01	1.002087e+01	3.992849e+00	1.396117e+01	2.709760e+00	-3.136722e+00	1.424958e+01	-2.441674e+00	1.279121e+01	8.386457e+00	-3.589810e+00	1.233623e+01	9.453148e+00	2.812887e+00	7.622122e+00	-2.831189e+00	-3.381202e+00	8.306088e+00	4.059683e+00	4.754736e+00	1.073461e+01	7.852617e+00	8.565880e+00	1.079854e+01	9.862844e+00	3.555200e+00	3.807073e+00	2.061610e+00	7.990433e+00	-5.571302e-01	1.174785e+01	1.000947e+01	1.217232e+01	4.128302e+00	1.612904e+01	1.710799e+00	-3.582380e+00	-2.043648e+00	9.997794e+00	-2.213265e+00	1.062964e+01	1.130835e+01	6.128899e+00	6.436950e+00	9.124034e+00	2.887609e-01	1.020077e+00	6.228936e-01	-8.262083e-01	1.277105e+01	1.409914e+01	3.762958e+00	1.231490e+01	8.267264e+00	1.519418e+01	1.388337e+00	1.137312e+01	6.653845e+00	7.211439e+00	1.881444e+00	5.461451e+00	1.324089e+01	7.757857e+00	3.188086e+00	7.457728e+00	
SCALARS Y-Momentum float 1
LOOKUP_TABLE default
-2.167144e-02	3.036424e-01	6.459282e+00	-5.606347e-01	5.449412e-01	2.248234e-01	6.947185e-02	-1.289281e-02	1.807586e-02	4.649480e-02	6.586182e-02	8.657440e-02	7.481520e-02	1.721950e-02	-3.776898e-03	9.497929e-05	6.064710e-03	4.256438e-03	9.939256e-03	1.161215e-02	-6.550973e-03	1.045831e-02	1.684125e-03	7.477317e-03	-2.408413e-02	9.642098e-01	1.723224e+00	2.485385e+00	3.306911e+00	4.125177e+00	4.911931e+00	5.676983e+00	6.449509e+00	7.272129e+00	7.949391e+00	8.228819e+00	8.620785e+00	-1.277166e+00	1.761027e+00	2.697488e+00	3.502151e+00	4.072319e+00	4.399697e+00	4.524442e+00	4.429149e+00	4.134072e+00	3.692970e+00	3.105287e+00	2.404720e+00	1.518679e+00	-2.958208e-03	2.851618e-02	2.682558e-02	1.024668e-02	6.497243e-03	1.491374e-02	1.736270e-02	2.209221e-03	-5.051030e-02	-7.251271e-02	-9.930522e-02	-4.744132e-01	-4.594353e-01	-4.349858e-02	5.967604e-01	8.160425e-01	4.901383e-01	1.395680e-02	4.272249e-03	-2.413281e-03	-3.646830e-02	-2.330785e-02	-2.384863e-03	-4.896828e-03	3.356375e-03	-2.285074e-03	8.628728e+00	3.069330e+00	4.972251e-01	-2.154442e-01	4.211942e+00	5.643989e+00	7.827454e-01	5.704649e-01	4.125296e-01	3.419720e-01	4.880874e-01	8.893700e-01	3.577189e+00	3.439091e+00	8.089659e-01	7.914843e-01	3.869735e+00	7.072301e+00	2.473439e+00	1.981636e+00	-7.533632e-01	3.484075e-01	2.764606e-01	8.499793e-01	6.685464e-01	9.256646e-01	-5.781291e-01	2.630490e-01	-3.963574e-01	1.847721e-01	9.630970e-01	1.037591e+00	2.967234e-01	1.177096e+00	1.893805e+00	2.090264e+00	1.463330e+00	2.337063e+00	1.874574e+00	2.665701e+00	3.297378e+00	3.722150e+00	4.196406e+00	4.741964e+00	4.647574e+00	5.318954e+00	4.477058e+00	5.112944e+00	2.183601e+00	2.601771e+00	3.899698e+00	1.749406e+00	2.324522e+00	3.781617e+00	3.889776e+00	5.240991e+00	3.708794e+00	4.496251e+00	3.261052e+00	2.817010e+00	3.711194e+00	2.669460e+00	2.633324e+00	3.003815e+00	2.514692e+00	2.887041e+00	3.148487e+00	5.406899e+00	1.103030e+00	1.054330e+00	2.333227e+00	2.035362e+00	2.739494e+00	2.802802e+00	2.096705e+00	3.865232e+00	2.584845e+00	3.494615e+00	1.980974e+00	2.426614e+00	1.854319e+00	2.890123e+00	6.347275e+00	2.157466e+00	5.900269e+00	5.186255e+00	2.511130e+00	2.779307e+00	3.028464e+00	3.397874e+00	1.604198e+00	9.896809e-01	8.139060e+00	4.913799e+00	4.400962e+00	3.145051e+00	3.833906e+00	1.540929e+00	2.947797e+00	2.070296e+00	1.843566e+00	3.583978e+00	3.202672e+00	7.116907e+00	2.465725e+00	2.722079e+00	2.497472e+00	1.436219e+00	1.958163e+00	1.928732e+00	7.015096e-01	1.529300e+00	2.636039e+00	2.212733e+00	2.927881e+00	6.268968e+00	6.668416e+00	1.004429e+00	3.789565e+00	3.992189e+00	1.703821e+00	3.930145e+00	3.655938e+00	3.312906e-01	4.371066e-01	-4.832464e-02	-5.008599e-02	-5.674407e-01	3.669920e+00	3.188483e+00	1.949904e+00	5.063578e+00	2.153198e+00	1.543071e+00	1.582072e+00	1.110628e+00	1.102676e+00	3.065985e+00	8.466092e+00	7.513495e+00	9.379212e+00	2.547580e+00	1.455534e+00	2.188980e+00	1.785413e+00	3.197361e+00	1.076227e+00	5.254539e+00	2.151330e+00	2.991297e+00	2.367986e+00	9.526553e+00	9.826012e+00	1.766374e+00	7.166541e-01	1.059463e+00	1.903155e+00	1.272506e+00	3.479532e+00	3.670243e+00	1.243738e-01	6.747989e+00	4.085075e+00	6.955255e-01	2.154998e+00	2.223066e+00	3.710594e+00	-7.460790e-01	6.788596e-01	6.435765e-01	4.173716e+00	4.884523e-01	2.892560e+00	5.991390e-01	1.079825e+00	8.586906e-01	1.351497e+00	1.718322e+00	1.481439e+00	6.146141e+00	3.963671e+00	8.159854e+00	7.924651e+00	3.823933e+00	5.949643e+00	9.457706e-01	6.731131e-01	4.104368e-01	6.990297e-01	-4.032254e-01	9.252170e-01	7.747469e-01	3.649976e-01	6.283111e+00	1.026327e+00	3.901826e+00	3.986345e-01	6.805950e-01	6.006463e-01	3.975630e+00	3.482418e+00	3.165212e+00	3.844874e-01	8.166959e-01	4.970747e+00	2.274604e+00	2.880966e-01	7.992597e+00	1.035724e+00	3.113474e+00	1.427014e+00	6.338896e+00	3.458631e+00	7.313777e-01	4.109907e+00	4.916578e+00	4.141592e+00	1.265519e+00	3.921203e+00	2.715082e+00	3.101598e+00	3.030103e+00	4.151782e+00	1.849714e+00	1.530357e+00	2.525452e+00	8.434121e+00	-7.911874e-01	2.828698e+00	-3.476669e-01	4.091870e+00	2.108265e+00	1.658254e+00	3.865908e+00	1.033603e+01	1.725472e+00	1.241531e+00	1.036630e+00	7.991056e-01	5.268528e+00	1.005918e+00	4.757745e+00	1.246759e+00	1.383514e+00	1.971995e+00	2.647575e+00	1.416408e+00	1.996755e+00	1.442858e+00	1.457438e+00	3.480727e+00	2.850078e+00	4.879123e-01	1.642245e+00	2.132932e+00	3.143900e+00	2.933707e+00	1.513751e+00	1.383448e+00	3.732217e+00	1.611060e+00	3.492609e+00	1.094549e+00	1.215590e+00	6.595303e+00	2.417478e+00	3.676234e+00	1.365881e+00	-4.045931e-01	-4.384361e-01	1.186322e-01	8.154356e+00	9.510999e+00	7.756431e+00	3.195274e+00	6.716621e+00	3.573962e+00	1.548198e+00	1.466379e+00	1.006679e+01	2.848062e+00	1.072931e+00	2.584789e+00	4.907884e+00	1.165806e-01	6.822270e-01	4.710578e+00	4.994818e-01	2.251814e+00	2.789538e-02	-6.836023e-01	4.746122e-01	1.418800e+00	7.317997e-01	6.778298e+00	1.895774e+00	8.317782e+00	6.477478e-01	3.462599e+00	3.922650e+00	5.719809e-01	8.850368e-01	6.046367e+00	4.150356e+00	7.119855e+00	4.281839e+00	4.414079e+00	1.465571e+00	4.047514e+00	8.479397e-01	1.996936e+00	-3.424682e-01	3.973818e+00	1.546540e-01	3.274004e+00	8.277141e+00	5.637361e+00	2.498537e+00	
SCALARS Energy float 1
LOOKUP_TABLE default