# vtk DataFile Version 3.0
vtk output
ASCII
DATASET UNSTRUCTURED_GRID
POINTS 394 float
-3.000000e+00	0.000000e+00	0.0	-5.000000e-02	5.692585e-18	0.0	-4.479321e-02	1.000013e+00	0.0	5.522926e-02	1.000823e+00	0.0	5.000000e-02	-5.418512e-19	0.0	3.000000e+00	0.000000e+00	0.0	3.000000e+00	4.000000e+00	0.0	-3.000000e+00	4.000000e+00	0.0	-3.000000e+00	3.428571e+00	0.0	-3.000000e+00	2.857143e+00	0.0	-3.000000e+00	2.285714e+00	0.0	-3.000000e+00	1.714286e+00	0.0	-3.000000e+00	1.142857e+00	0.0	-3.000000e+00	5.714286e-01	0.0	-2.473871e+00	0.000000e+00	0.0	-2.029066e+00	0.000000e+00	0.0	-1.653013e+00	0.000000e+00	0.0	-1.335087e+00	0.000000e+00	0.0	-1.066302e+00	0.000000e+00	0.0	-8.390627e-01	0.000000e+00	0.0	-6.469477e-01	0.000000e+00	0.0	-4.845277e-01	0.000000e+00	0.0	-3.472127e-01	0.000000e+00	0.0	-2.311224e-01	0.000000e+00	0.0	-1.329760e-01	0.000000e+00	0.0	-4.926271e-02	7.755355e-02	0.0	-4.797189e-02	1.548342e-01	0.0	-4.641319e-02	2.318853e-01	0.0	-4.490268e-02	3.087610e-01	0.0	-4.365103e-02	3.855209e-01	0.0	-4.278568e-02	4.622264e-01	0.0	-4.235332e-02	5.389292e-01	0.0	-4.230827e-02	6.156650e-01	0.0	-4.256394e-02	6.924562e-01	0.0	-4.300198e-02	7.693000e-01	0.0	-4.356168e-02	8.461843e-01	0.0	-4.411510e-02	9.230957e-01	0.0	5.218422e-03	1.000453e+00	0.0	5.582243e-02	9.238798e-01	0.0	5.642888e-02	8.469111e-01	0.0	5.696937e-02	7.699219e-01	0.0	5.740561e-02	6.928851e-01	0.0	5.765409e-02	6.157811e-01	0.0	5.760648e-02	5.386050e-01	0.0	5.717061e-02	4.613837e-01	0.0	5.631056e-02	3.841631e-01	0.0	5.506058e-02	3.069987e-01	0.0	5.354645e-02	2.299424e-01	0.0	5.199087e-02	1.530514e-01	0.0	5.068922e-02	7.638563e-02	0.0	1.329760e-01	0.000000e+00	0.0	2.311224e-01	0.000000e+00	0.0	3.472127e-01	0.000000e+00	0.0	4.845277e-01	0.000000e+00	0.0	6.469477e-01	0.000000e+00	0.0	8.390627e-01	0.000000e+00	0.0	1.066302e+00	0.000000e+00	0.0	1.335087e+00	0.000000e+00	0.0	1.653013e+00	0.000000e+00	0.0	2.029066e+00	0.000000e+00	0.0	2.473871e+00	0.000000e+00	0.0	3.000000e+00	5.714286e-01	0.0	3.000000e+00	1.142857e+00	0.0	3.000000e+00	1.714286e+00	0.0	3.000000e+00	2.285714e+00	0.0	3.000000e+00	2.857143e+00	0.0	3.000000e+00	3.428571e+00	0.0	2.400000e+00	4.000000e+00	0.0	1.800000e+00	4.000000e+00	0.0	1.200000e+00	4.000000e+00	0.0	6.000000e-01	4.000000e+00	0.0	0.000000e+00	4.000000e+00	0.0	-6.000000e-01	4.000000e+00	0.0	-1.200000e+00	4.000000e+00	0.0	-1.800000e+00	4.000000e+00	0.0	-2.400000e+00	4.000000e+00	0.0	-1.095548e-01	8.878076e-01	0.0	1.209365e-01	8.883064e-01	0.0	-1.483859e+00	2.494192e-01	0.0	1.500259e+00	2.278351e-01	0.0	1.151376e-01	5.734187e-01	0.0	-1.166173e-01	5.769231e-01	0.0	-7.468484e-01	1.615795e-01	0.0	7.467660e-01	1.592205e-01	0.0	-2.588894e+00	2.076202e+00	0.0	2.516144e+00	1.947581e+00	0.0	-9.330139e-01	3.509250e+00	0.0	9.096046e-01	3.461623e+00	0.0	1.171758e-01	3.453095e-01	0.0	-1.176381e-01	3.461538e-01	0.0	-4.145464e-01	1.102721e-01	0.0	4.158702e-01	1.097277e-01	0.0	1.211039e-01	7.285624e-01	0.0	-1.166173e-01	7.307692e-01	0.0	1.217259e-01	1.951647e-01	0.0	-1.219004e-01	1.949409e-01	0.0	2.523336e+00	8.167529e-01	0.0	-2.505450e+00	7.859659e-01	0.0	-2.060813e+00	3.451225e+00	0.0	2.063561e+00	3.439799e+00	0.0	-1.839749e-01	7.462933e-02	0.0	1.839181e-01	7.485312e-02	0.0	2.223383e+00	3.988647e-01	0.0	-2.251469e+00	3.554420e-01	0.0	2.464585e+00	1.408185e+00	0.0	2.084360e+00	1.715536e+00	0.0	2.062368e+00	2.119428e+00	0.0	1.717456e+00	1.868364e+00	0.0	1.703162e+00	1.478255e+00	0.0	1.404436e+00	1.673942e+00	0.0	1.379059e+00	2.011826e+00	0.0	1.122275e+00	1.805700e+00	0.0	1.133471e+00	1.514067e+00	0.0	8.972874e-01	1.623762e+00	0.0	9.058741e-01	1.383676e+00	0.0	6.842001e-01	1.452796e+00	0.0	6.646868e-01	1.702928e+00	0.0	4.770905e-01	1.555424e+00	0.0	4.540791e-01	1.782960e+00	0.0	2.815546e-01	1.663644e+00	0.0	2.468385e-01	1.874145e+00	0.0	8.495255e-02	1.739613e+00	0.0	3.220584e-02	1.963777e+00	0.0	-1.420447e-01	1.783981e+00	0.0	7.288711e-01	1.245864e+00	0.0	1.077857e+00	2.136341e+00	0.0	2.551298e-01	2.138445e+00	0.0	8.954243e-01	1.142527e+00	0.0	7.229085e-01	1.059814e+00	0.0	-2.030321e-01	2.067609e+00	0.0	-4.089797e-01	1.894294e+00	0.0	-3.445145e-01	1.614442e+00	0.0	-6.150363e-01	1.721608e+00	0.0	-5.614456e-01	1.469073e+00	0.0	-8.152713e-01	1.551780e+00	0.0	-8.412690e-01	1.795758e+00	0.0	-7.621668e-01	1.289715e+00	0.0	-1.026166e+00	1.376679e+00	0.0	5.786315e-01	1.133181e+00	0.0	5.729769e-01	9.679372e-01	0.0	7.172900e-01	8.817742e-01	0.0	-4.706077e-01	2.183860e+00	0.0	5.679375e-01	7.985285e-01	0.0	1.228546e-01	1.518204e+00	0.0	2.279691e-02	1.047289e+00	0.0	8.320521e-02	1.041063e+00	0.0	5.033468e-02	1.101913e+00	0.0	1.219691e-01	1.104509e+00	0.0	-2.270250e-01	2.375087e+00	0.0	-9.617590e-01	1.108784e+00	0.0	-1.245187e+00	1.191051e+00	0.0	-7.079931e-01	1.027579e+00	0.0	-9.221295e-01	8.266544e-01	0.0	-6.775202e-01	7.984572e-01	0.0	-1.312202e+00	1.494832e+00	0.0	7.101723e-01	7.094472e-01	0.0	8.684597e-01	7.881516e-01	0.0	5.583553e-01	6.419675e-01	0.0	-3.558236e-01	1.362627e+00	0.0	1.348529e+00	2.364476e+00	0.0	-2.630234e-02	1.090302e+00	0.0	1.117829e-02	1.167717e+00	0.0	1.571133e-01	1.029943e+00	0.0	2.071370e-01	1.104065e+00	0.0	1.597519e-01	1.182734e+00	0.0	2.496705e-01	1.015521e+00	0.0	8.544827e-01	6.108496e-01	0.0	1.047555e+00	6.998655e-01	0.0	-7.847310e-02	1.158033e+00	0.0	-5.171348e-01	9.204152e-01	0.0	-4.863658e-01	7.410581e-01	0.0	-6.210221e-01	6.162069e-01	0.0	-4.304165e-01	5.790980e-01	0.0	-1.561645e+00	1.283922e+00	0.0	2.721982e-01	1.192937e+00	0.0	-5.279951e-01	2.507900e+00	0.0	-2.485216e-01	2.731250e+00	0.0	4.318698e-01	7.203270e-01	0.0	4.233758e-01	5.725091e-01	0.0	-3.335265e-02	1.251950e+00	0.0	5.424962e-01	4.927149e-01	0.0	4.112126e-01	4.303540e-01	0.0	1.018241e+00	2.500118e+00	0.0	-1.633552e+00	1.628891e+00	0.0	1.309393e+00	2.745135e+00	0.0	5.177841e-01	3.509866e-01	0.0	1.029850e+00	4.328609e-01	0.0	-1.477416e+00	9.899497e-01	0.0	-5.601504e-01	4.553761e-01	0.0	-7.270539e-01	4.819428e-01	0.0	-4.090902e-01	4.203457e-01	0.0	-3.522791e-01	8.700653e-01	0.0	-3.889332e-01	1.027066e+00	0.0	-1.995353e+00	1.406583e+00	0.0	3.058598e-01	6.525576e-01	0.0	3.242700e-01	7.890326e-01	0.0	6.642582e-01	4.078662e-01	0.0	-3.050955e-01	5.085933e-01	0.0	6.073747e-01	1.962519e+00	0.0	1.224429e+00	6.011520e-01	0.0	1.250184e+00	8.250911e-01	0.0	1.457536e+00	6.770896e-01	0.0	1.491338e+00	9.566090e-01	0.0	1.773625e+00	8.129378e-01	0.0	2.073828e-01	1.286702e+00	0.0	3.329952e-01	1.291810e+00	0.0	-5.121868e-01	3.061387e-01	0.0	-5.380612e-01	1.261514e+00	0.0	-7.924608e-01	2.286933e+00	0.0	-8.696866e-01	2.652326e+00	0.0	-1.158131e+00	2.423026e+00	0.0	-1.242246e+00	2.799469e+00	0.0	-1.611716e+00	2.457963e+00	0.0	-2.704602e-01	3.766037e-01	0.0	-1.427840e-01	1.240183e+00	0.0	-1.014268e-01	1.353312e+00	0.0	-1.763546e-01	1.137806e+00	0.0	8.783725e-02	2.565590e+00	0.0	1.029681e-01	3.019180e+00	0.0	4.272249e-01	2.781426e+00	0.0	-1.361638e+00	1.838642e+00	0.0	4.419215e-01	1.044947e+00	0.0	-3.108847e-01	3.147482e+00	0.0	-3.376796e-01	7.131312e-01	0.0	3.905654e-01	2.971765e-01	0.0	2.782915e-01	3.728023e-01	0.0	2.712444e-01	2.590314e-01	0.0	-1.115764e-01	1.077712e+00	0.0	-1.918797e-01	1.038577e+00	0.0	1.672005e+00	2.603574e+00	0.0	1.351136e+00	1.368437e+00	0.0	2.442785e+00	2.509530e+00	0.0	8.886710e-01	2.913113e+00	0.0	-1.697169e+00	2.000053e+00	0.0	2.897750e-01	5.099332e-01	0.0	1.971068e-01	4.461399e-01	0.0	1.204570e+00	2.088856e-01	0.0	-2.509004e-01	7.997219e-01	0.0	-2.031816e-01	4.612449e-01	0.0	3.587496e-01	3.516320e+00	0.0	-3.683082e-01	2.897439e-01	0.0	-2.513200e-01	2.632515e-01	0.0	4.269022e-01	8.903973e-01	0.0	2.109340e+00	1.080852e+00	0.0	-1.676617e+00	3.018022e+00	0.0	-2.026846e+00	2.666903e+00	0.0	2.607158e-01	1.407890e+00	0.0	-2.493719e+00	1.295472e+00	0.0	5.091525e-01	1.363902e+00	0.0	-1.195527e+00	2.199189e-01	0.0	-1.314128e+00	4.697507e-01	0.0	-1.599290e+00	5.224038e-01	0.0	-1.044962e+00	4.332833e-01	0.0	-1.153999e+00	6.810762e-01	0.0	1.631869e+00	3.047538e+00	0.0	-1.479044e-01	1.589819e+00	0.0	3.069713e-01	9.091070e-01	0.0	-2.594272e-01	1.222158e+00	0.0	-2.468802e-01	8.922655e-01	0.0	2.148670e-01	8.375987e-01	0.0	-2.166457e-01	6.824956e-01	0.0	-5.613393e-01	1.604002e-01	0.0	5.664728e-01	1.255855e-01	0.0	9.638304e-01	2.045637e-01	0.0	-9.533785e-01	1.895011e-01	0.0	1.826954e+00	2.785964e-01	0.0	2.921698e-01	9.086346e-02	0.0	-2.840612e-01	9.229685e-02	0.0	-1.490751e+00	3.525634e+00	0.0	2.972107e-02	1.367432e+00	0.0	2.519001e+00	3.105668e+00	0.0	2.275446e-01	5.821961e-01	0.0	-1.832465e+00	2.953506e-01	0.0	-1.977202e+00	6.768975e-01	0.0	1.295565e+00	1.090381e+00	0.0	2.060326e-01	6.790669e-01	0.0	1.924197e-01	9.403358e-01	0.0	7.418665e-01	2.245468e+00	0.0	-2.532269e+00	2.524420e+00	0.0	1.437226e+00	3.516627e+00	0.0	-2.189186e-01	5.745803e-01	0.0	1.089458e-01	9.704541e-01	0.0	-2.461547e+00	3.076565e+00	0.0	-1.130174e-01	8.082243e-01	0.0	8.204452e-01	3.206647e-01	0.0	4.156693e-01	2.424846e+00	0.0	-8.275684e-01	3.222250e-01	0.0	-1.166173e-01	6.538462e-01	0.0	1.240439e-01	8.065138e-01	0.0	-2.154304e+00	1.044185e+00	0.0	1.166173e-01	6.538462e-01	0.0	-1.258892e-01	5.059709e-01	0.0	1.175714e-01	4.975748e-01	0.0	1.048701e+00	9.459876e-01	0.0	1.186418e-01	4.187835e-01	0.0	-1.166173e-01	2.692308e-01	0.0	1.166173e-01	2.692308e-01	0.0	1.911633e-01	3.076923e-01	0.0	-1.230149e-01	4.240231e-01	0.0	2.168732e-01	1.650969e-01	0.0	-2.130153e-01	1.684055e-01	0.0	-8.055871e-01	6.334177e-01	0.0	-2.811060e-01	1.101705e+00	0.0	2.114262e+00	7.400841e-01	0.0	4.281373e-01	1.193306e+00	0.0	1.771809e+00	1.153906e+00	0.0	-2.500000e-02	1.043301e+00	0.0	6.913395e-01	5.556832e-01	0.0	-6.558579e-01	3.146104e-01	0.0	1.873560e-01	7.692308e-01	0.0	-1.213880e-01	1.006983e+00	0.0	1.155948e-01	1.153846e-01	0.0	-1.169921e-01	1.167516e-01	0.0	-1.947655e+00	1.778423e+00	0.0	-2.086024e+00	2.166615e+00	0.0	-5.187853e-01	1.093553e+00	0.0	-9.145482e-01	3.061229e+00	0.0	6.700572e-02	1.250202e+00	0.0	1.105028e+00	1.240846e+00	0.0	-5.835849e-01	2.893561e+00	0.0	8.505567e-01	9.636509e-01	0.0	6.983346e-01	2.572994e+00	0.0	5.374437e-01	3.138332e+00	0.0	-1.194511e+00	9.174719e-01	0.0	2.057508e+00	2.866260e+00	0.0	1.249515e+0
[...]
POINT_DATA 394

SCALARS Density float 1
LOOKUP_TABLE default
1.223757e+00	1.223973e+00	1.222565e+00	1.222385e+00	1.223563e+00	1.223807e+00	1.223242e+00	1.223612e+00	1.223593e+00	1.223609e+00	1.223658e+00	1.223690e+00	1.223770e+00	1.223776e+00	1.223788e+00	1.223768e+00	1.223803e+00	1.223828e+00	1.223866e+00	1.223890e+00	1.223914e+00	1.223952e+00	1.223935e+00	1.223993e+00	1.223933e+00	1.224003e+00	1.223936e+00	1.223953e+00	1.223956e+00	1.223945e+00	1.223939e+00	1.223903e+00	1.223909e+00	1.223809e+00	1.223908e+00	1.223079e+00	1.224984e+00	1.220519e+00	1.223967e+00	1.223499e+00	1.223581e+00	1.223491e+00	1.223441e+00	1.223405e+00	1.223406e+00	1.223417e+00	1.223448e+00	1.223482e+00	1.223426e+00	1.223665e+00	1.223433e+00	1.223551e+00	1.223461e+00	1.223391e+00	1.223344e+00	1.223313e+00	1.223219e+00	1.223274e+00	1.223270e+00	1.223399e+00	1.222931e+00	1.223525e+00	1.223191e+00	1.222980e+00	1.222852e+00	1.222944e+00	1.223082e+00	1.223101e+00	1.223222e+00	1.223263e+00	1.223351e+00	1.223411e+00	1.223496e+00	1.223555e+00	1.223592e+00	1.223594e+00	1.223573e+00	1.223668e+00	1.223814e+00	1.223208e+00	1.223458e+00	1.223875e+00	1.223873e+00	1.223314e+00	1.223657e+00	1.223301e+00	1.223527e+00	1.223303e+00	1.223448e+00	1.223931e+00	1.223935e+00	1.223433e+00	1.223579e+00	1.223742e+00	1.223542e+00	1.223959e+00	1.223059e+00	1.223760e+00	1.223617e+00	1.223108e+00	1.223962e+00	1.223530e+00	1.223317e+00	1.223755e+00	1.222989e+00	1.222981e+00	1.223130e+00	1.223117e+00	1.223079e+00	1.223057e+00	1.223039e+00	1.223262e+00	1.222962e+00	1.222976e+00	1.223009e+00	1.223171e+00	1.222925e+00	1.223213e+00	1.223144e+00	1.223250e+00	1.223203e+00	1.223246e+00	1.223471e+00	1.223351e+00	1.223198e+00	1.223024e+00	1.223271e+00	1.222985e+00	1.223205e+00	1.223435e+00	1.223534e+00	1.223554e+00	1.223498e+00	1.223650e+00	1.223702e+00	1.223597e+00	1.223702e+00	1.223681e+00	1.223285e+00	1.223279e+00	1.223318e+00	1.223554e+00	1.223360e+00	1.223244e+00	1.222543e+00	1.222384e+00	1.222804e+00	1.223139e+00	1.223428e+00	1.223745e+00	1.223744e+00	1.223804e+00	1.223794e+00	1.223824e+00	1.223701e+00	1.223248e+00	1.223088e+00	1.223345e+00	1.223554e+00	1.223197e+00	1.222269e+00	1.223163e+00	1.223251e+00	1.223132e+00	1.222879e+00	1.223348e+00	1.223257e+00	1.223167e+00	1.223028e+00	1.223787e+00	1.223791e+00	1.223856e+00	1.223845e+00	1.223705e+00	1.223006e+00	1.223507e+00	1.223484e+00	1.223469e+00	1.223397e+00	1.223137e+00	1.223338e+00	1.223394e+00	1.223269e+00	1.223687e+00	1.223143e+00	1.223438e+00	1.223096e+00	1.223765e+00	1.223886e+00	1.223898e+00	1.223917e+00	1.223814e+00	1.223693e+00	1.223722e+00	1.223435e+00	1.223465e+00	1.223279e+00	1.223940e+00	1.223331e+00	1.223054e+00	1.223182e+00	1.222963e+00	1.222970e+00	1.223061e+00	1.223018e+00	1.222996e+00	1.223964e+00	1.223632e+00	1.223550e+00	1.223537e+00	1.223606e+00	1.223577e+00	1.223647e+00	1.223927e+00	1.223220e+00	1.223470e+00	1.223491e+00	1.223363e+00	1.223386e+00	1.223411e+00	1.223654e+00	1.223217e+00	1.223413e+00	1.223898e+00	1.223401e+00	1.223419e+00	1.223448e+00	1.223638e+00	1.223012e+00	1.223080e+00	1.222941e+00	1.223305e+00	1.223290e+00	1.223671e+00	1.223457e+00	1.223394e+00	1.223041e+00	1.223825e+00	1.223964e+00	1.223406e+00	1.223900e+00	1.223956e+00	1.223343e+00	1.222982e+00	1.223570e+00	1.223608e+00	1.222761e+00	1.223704e+00	1.223132e+00	1.223845e+00	1.223879e+00	1.223744e+00	1.223844e+00	1.223791e+00	1.223258e+00	1.223513e+00	1.223431e+00	1.223427e+00	1.223763e+00	1.223591e+00	1.223869e+00	1.223952e+00	1.223382e+00	1.223269e+00	1.223875e+00	1.223022e+00	1.223546e+00	1.223981e+00	1.223565e+00	1.223107e+00	1.223155e+00	1.223493e+00	1.223808e+00	1.223748e+00	1.223040e+00	1.223461e+00	1.223323e+00	1.223216e+00	1.223651e+00	1.223227e+00	1.223848e+00	1.223420e+00	1.223635e+00	1.223963e+00	1.223260e+00	1.223337e+00	1.223877e+00	1.223917e+00	1.223614e+00	1.223723e+00	1.223523e+00	1.223903e+00	1.223438e+00	1.223111e+00	1.223447e+00	1.223951e+00	1.223465e+00	1.223434e+00	1.223903e+00	1.223412e+00	1.223975e+00	1.223862e+00	1.223672e+00	1.223021e+00	1.223137e+00	1.223326e+00	1.222895e+00	1.223322e+00	1.223946e+00	1.223456e+00	1.223540e+00	1.223473e+00	1.223952e+00	1.223668e+00	1.223671e+00	1.223737e+00	1.223532e+00	1.222886e+00	1.223141e+00	1.223486e+00	1.223103e+00	1.223237e+00	1.223294e+00	1.223822e+00	1.223303e+00	1.223231e+00	1.223961e+00	1.223600e+00	1.223518e+00	1.223070e+00	1.223596e+00	1.223225e+00	1.223181e+00	1.223908e+00	1.223342e+00	1.223350e+00	1.223401e+00	1.223374e+00	1.223787e+00	1.223281e+00	1.223313e+00	1.223661e+00	1.223289e+00	1.223776e+00	1.223348e+00	1.222531e+00	1.223802e+00	1.223817e+00	1.223486e+00	1.223458e+00	1.222916e+00	1.223677e+00	1.223169e+00	1.223630e+00	1.223902e+00	1.224905e+00	1.223964e+00	1.223777e+00	1.223404e+00	1.223294e+00	1.223576e+00	1.223433e+00	1.223906e+00	1.223030e+00	1.223957e+00	1.223192e+00	1.223114e+00	1.223607e+00	1.223212e+00	1.223594e+00	1.223338e+00	1.223855e+00	1.223880e+00	1.223723e+00	1.223384e+00	1.223382e+00	1.223980e+00	1.223604e+00	1.223486e+00	1.223138e+00	1.223686e+00	1.222935e+00	1.223501e+00	1.223159e+00	1.223410e+00	1.223491e+00	1.223809e+00	1.223021e+00	1.223516e+00	1.222839e+00	1.223320e+00	1.222989e+00	1.223783e+00	1.223033e+00	
SCALARS X-Momentum float 1
LOOKUP_TABLE default
7.894665e+00	2.110521e-01	4.041711e+00	7.715435e-02	-6.470721e-01	-5.214537e+00	1.641498e+01	1.001833e+01	9.845030e+00	9.582787e+00	9.260289e+00	8.884235e+00	8.511519e+00	8.144641e+00	7.701494e+00	7.337051e+00	6.788954e+00	6.115254e+00	5.370321e+00	4.558227e+00	3.708025e+00	2.929066e+00	2.119631e+00	1.384721e+00	7.206217e-01	-2.904306e-02	1.568854e-02	6.907521e-02	9.076041e-02	1.018946e-01	1.015179e-01	9.286199e-02	7.068640e-02	5.749344e-02	-8.693823e-03	-2.347621e-02	-3.814866e-01	3.665169e+00	2.358615e-01	6.256954e-02	8.419614e-02	6.537436e-02	7.829717e-02	1.062948e-01	1.196744e-01	1.208162e-01	1.229913e-01	9.485720e-02	8.592710e-02	9.621155e-02	-1.996137e+00	-3.585319e+00	-4.955597e+00	-6.230881e+00	-7.293318e+00	-8.077655e+00	-8.654517e+00	-8.918198e+00	-8.398120e+00	-7.552586e+00	-6.715910e+00	-1.523957e+00	3.885514e+00	9.393050e+00	1.357788e+01	1.579967e+01	1.647691e+01	1.578374e+01	1.489915e+01	1.391370e+01	1.306890e+01	1.233790e+01	1.166049e+01	1.104274e+01	1.053362e+01	1.018723e+01	4.418642e-01	7.649266e-01	6.632705e+00	-6.116864e+00	1.244520e-01	8.339668e-01	4.290079e+00	-5.929893e+00	9.155515e+00	1.206948e+01	1.114546e+01	1.388962e+01	-2.927153e-01	7.156508e-01	2.500518e+00	-4.449217e+00	4.190579e-01	8.444194e-01	-6.686924e-01	5.855885e-01	6.055902e-01	8.150058e+00	1.014016e+01	1.563421e+01	9.772525e-01	-2.131633e+00	-3.504397e+00	7.731344e+00	6.915989e+00	1.065518e+01	1.385544e+01	1.276542e+01	8.859505e+00	1.163530e+01	1.426604e+01	1.336478e+01	1.037727e+01	1.210351e+01	8.878820e+00	1.039539e+01	1.330227e+01	1.221512e+01	1.386367e+01	1.326267e+01	1.374994e+01	1.308013e+01	1.296477e+01	1.200629e+01	7.070596e+00	1.494690e+01	1.366298e+01	5.392108e+00	4.218205e+00	1.196700e+01	1.098590e+01	1.058095e+01	9.955003e+00	9.208569e+00	9.098827e+00	9.677894e+00	8.136445e+00	8.431211e+00	5.121361e+00	2.774707e+00	1.948487e+00	1.116550e+01	1.057752e+00	1.251793e+01	4.451777e+00	2.314761e+00	5.782024e+00	4.389389e+00	1.197753e+01	7.538616e+00	7.987688e+00	6.881109e+00	6.480754e+00	5.661733e+00	8.674529e+00	6.678935e-02	8.290843e-01	-3.350506e-01	9.387013e+00	1.536717e+01	7.583785e+00	8.753457e+00	2.056891e+00	4.051586e+00	6.863449e+00	2.341437e+00	-1.339125e+00	-5.752853e-01	9.210610e+00	5.703390e+00	4.505085e+00	4.692317e+00	3.483136e+00	8.312385e+00	6.373409e+00	1.127655e+01	1.196461e+01	5.153408e-01	-5.191062e-01	1.050825e+01	-1.575532e+00	-1.498197e+00	1.514121e+01	8.865678e+00	1.528774e+01	-2.698396e+00	-3.495817e+00	7.706096e+00	3.932319e+00	4.762654e+00	2.955739e+00	4.235336e+00	5.964185e+00	8.561443e+00	2.569878e-01	1.007357e+00	-2.830626e+00	2.412658e+00	1.443850e+01	-1.883847e+00	8.659547e-01	-1.091287e+00	2.357300e+00	5.191792e-01	9.319313e+00	8.872795e+00	3.329593e+00	8.100034e+00	1.057299e+01	1.079803e+01	1.020048e+01	1.041951e+01	9.826773e+00	1.936564e+00	9.897572e+00	1.110439e+01	8.070165e+00	1.282901e+01	1.266456e+01	1.362560e+01	9.272672e+00	3.467953e+00	1.189280e+01	3.234900e+00	-2.353093e+00	-1.184859e+00	-1.776662e+00	7.300044e+00	5.523931e+00	1.555735e+01	8.070872e+00	1.511277e+01	1.444414e+01	9.336404e+00	-4.997229e-01	-4.287264e-01	-6.356355e+00	2.662636e+00	1.574077e+00	1.292687e+01	2.469019e+00	1.620771e+00	1.744144e+00	3.461004e+00	1.015372e+01	9.736076e+00	1.119661e+01	8.554170e+00	9.500145e+00	5.948986e+00	6.525668e+00	7.133017e+00	5.795426e+00	6.540780e+00	1.536662e+01	1.167305e+01	1.604665e+00	8.786867e+00	3.116912e+00	1.035620e+00	1.931427e+00	3.385521e+00	-5.340155e+00	-6.138575e+00	5.159264e+00	-5.208737e+00	-3.359078e+00	1.675567e+00	1.058107e+01	1.164351e+01	1.613391e+01	5.273847e-02	7.253171e+00	7.740669e+00	4.396056e+00	4.305731e-01	1.354826e+00	1.479592e+01	9.466270e+00	1.474852e+01	1.736449e+00	8.010718e-01	9.796996e+00	7.788399e-01	-4.262738e+00	1.390471e+01	4.905354e+00	8.577347e-01	5.566150e-01	8.211106e+00	2.577309e-01	8.899496e-01	-2.737870e-02	2.753047e+00	-1.604325e-01	6.321041e-01	-4.438253e-01	-9.103201e-01	8.150620e-01	-1.862740e+00	1.190954e+00	5.492632e+00	6.878118e+00	-2.408604e-01	6.269618e+00	4.726295e+00	6.519650e+00	-1.500507e+00	4.098675e+00	7.308634e-01	4.323176e+00	-8.620397e-01	5.111938e-01	9.010534e+00	9.334467e+00	6.924254e+00	1.097091e+01	9.744424e+00	6.669619e+00	1.137247e+01	2.948526e+00	1.452868e+01	1.347377e+01	7.239021e+00	1.576216e+01	1.478471e+01	1.301053e+00	1.032914e+01	1.178917e+01	1.489356e+01	9.841024e+00	3.905180e+00	1.425021e+01	2.024635e+00	-3.699138e+00	1.436231e+01	-2.958649e+00	1.277324e+01	8.018264e+00	-4.158418e+00	1.197341e+01	9.162446e+00	2.425015e+00	7.108276e+00	-3.132062e+00	-3.721035e+00	7.943266e+00	1.696190e+00	2.556803e+00	1.013791e+01	7.315639e+00	7.678077e+00	1.088092e+01	9.707863e+00	2.800156e+00	1.355351e+00	1.220417e+00	7.553465e+00	-1.122506e+00	1.144984e+01	9.974121e+00	1.228990e+01	2.617293e+00	1.617998e+01	1.050754e+00	-3.960040e+00	-2.294220e+00	9.937352e+00	-2.739204e+00	1.062681e+01	1.088203e+01	5.372145e+00	4.751069e+00	8.912240e+00	-5.854601e-01	-9.085960e-02	4.253688e-01	-9.874404e-01	1.252996e+01	1.418791e+01	1.570859e+00	1.230445e+01	7.516686e+00	1.538251e+01	1.976980e-01	1.143168e+01	5.938246e+00	7.298486e+00	7.426594e-01	5.587378e+00	1.327311e+01	6.870836e+00	1.380786e+00	7.697650e+00	
SCALARS Y-Momentum float 1
LOOKUP_TABLE default
-2.608411e-02	2.077865e-01	7.446706e+00	4.654610e-01	6.244749e-01	2.231119e-01	6.223847e-02	-1.395640e-02	2.393410e-02	5.608797e-02	7.926477e-02	1.032655e-01	9.117214e-02	2.477202e-02	-4.164116e-03	2.705578e-04	5.258860e-03	2.958679e-03	8.815523e-03	1.012540e-02	-9.328077e-03	1.207297e-03	-2.726192e-03	6.709295e-03	-1.659001e-02	6.549890e-01	1.174627e+00	1.728557e+00	2.368399e+00	3.052544e+00	3.762869e+00	4.499202e+00	5.284082e+00	6.148198e+00	6.941856e+00	7.366453e+00	8.212051e+00	-3.776441e-01	2.818201e+00	3.724115e+00	4.473392e+00	4.963715e+00	5.252203e+00	5.353708e+00	5.231138e+00	4.893796e+00	4.386660e+00	3.696068e+00	2.846768e+00	1.771527e+00	-7.104542e-03	2.506484e-02	2.948879e-02	1.307706e-02	1.113983e-02	2.369219e-02	2.438322e-02	1.512514e-03	-5.720231e-02	-7.677781e-02	-9.582293e-02	-5.201741e-01	-6.179910e-01	-3.042360e-01	3.234048e-01	6.224872e-01	4.081941e-01	1.710470e-02	6.755958e-03	-3.206878e-03	-3.714293e-02	-2.328666e-02	-2.714609e-03	-4.954927e-03	5.126528e-03	-1.284234e-03	8.221903e+00	3.880707e+00	5.132641e-01	-2.731829e-01	5.049592e+00	4.710655e+00	7.121986e-01	6.669313e-01	4.633267e-01	8.116606e-02	5.358134e-01	8.535868e-01	4.262645e+00	2.608306e+00	6.623222e-01	9.490207e-01	4.742524e+00	6.278699e+00	2.947652e+00	1.428315e+00	-8.654841e-01	3.882681e-01	3.128861e-01	7.815110e-01	4.961076e-01	1.078881e+00	-6.458008e-01	2.890454e-01	-6.099843e-01	-4.236290e-02	7.430655e-01	8.718399e-01	1.311299e-01	1.101820e+00	1.810232e+00	2.127351e+00	1.495854e+00	2.505778e+00	2.026656e+00	2.999726e+00	3.577582e+00	4.159159e+00	4.491199e+00	5.115385e+00	4.873648e+00	5.590352e+00	4.658567e+00	5.354930e+00	2.420232e+00	2.597105e+00	4.033939e+00	1.833519e+00	2.462359e+00	3.960549e+00	4.123027e+00	5.545373e+00	3.982232e+00	4.826967e+00	3.529522e+00	3.061530e+00	3.987786e+00	2.890395e+00	2.892315e+00	3.184083e+00	2.638758e+00	3.073400e+00	3.377995e+00	5.821616e+00	1.475597e+00	1.845578e+00	2.969004e+00	2.793834e+00	2.869567e+00	2.984219e+00	2.263895e+00	4.068862e+00	2.688410e+00	3.560428e+00	2.164754e+00	2.605626e+00	1.906062e+00	3.224080e+00	6.755852e+00	2.059798e+00	6.003277e+00	5.653165e+00	3.123805e+00	3.409658e+00	3.765527e+00	3.812180e+00	1.700395e+00	9.595641e-01	8.500415e+00	5.085309e+00	4.347334e+00	3.062850e+00	3.555103e+00	1.684519e+00	3.595072e+00	2.214667e+00	1.934391e+00	3.992258e+00	3.708885e+00	7.494988e+00	2.848937e+00	3.226727e+00	2.456851e+00	1.580636e+00	1.862078e+00	2.283147e+00	7.218187e-01	1.653186e+00	2.439778e+00	2.122159e+00	2.570790e+00	6.342326e+00	7.041029e+00	1.109501e+00	4.422836e+00	4.464968e+00	1.956743e+00	3.413382e+00	3.838015e+00	2.431242e-01	3.302038e-01	-1.902195e-01	-2.197282e-01	-7.314928e-01	4.348042e+00	3.797379e+00	1.724771e+00	5.435707e+00	2.337009e+00	1.682184e+00	1.742207e+00	1.227027e+00	1.224256e+00	2.529619e+00	8.862424e+00	7.899240e+00	9.822840e+00	2.616315e+00	1.488256e+00	2.197587e+00	1.963432e+00	3.479415e+00	1.136815e+00	4.989897e+00	2.569780e+00	3.571165e+00	2.825085e+00	9.874026e+00	1.027274e+01	1.622953e+00	6.249655e-01	8.465996e-01	1.856508e+00	1.409254e+00	4.139353e+00	4.392252e+00	1.112251e-01	6.488949e+00	3.379222e+00	6.926214e-01	1.813128e+00	1.758222e+00	3.979993e+00	-9.180695e-01	7.573164e-01	7.179283e-01	4.735649e+00	5.459562e-01	3.376334e+00	5.981839e-01	1.112624e+00	9.090293e-01	1.347239e+00	1.784493e+00	1.373861e+00	6.447997e+00	4.317999e+00	8.646881e+00	7.959119e+00	4.463310e+00	5.372492e+00	8.203429e-01	8.066509e-01	4.618118e-01	6.694626e-01	-4.781234e-01	1.091811e+00	6.047904e-01	4.076188e-01	6.712692e+00	9.015412e-01	4.659317e+00	4.253250e-01	7.399076e-01	4.944473e-01	4.770721e+00	3.993186e+00	3.222809e+00	4.328229e-01	7.635534e-01	4.285710e+00	3.028805e+00	3.253425e-01	7.280793e+00	1.168705e+00	3.171287e+00	1.355166e+00	5.436725e+00	4.353136e+00	8.076395e-01	4.969607e+00	3.989805e+00	4.942906e+00	1.236670e+00	4.670010e+00	1.997578e+00	3.697284e+00	3.614843e+00	3.256149e+00	2.196229e+00	1.157830e+00	2.529727e+00	8.954854e+00	-9.288378e-01	3.274808e+00	-5.310898e-01	4.233626e+00	2.350085e+00	1.517071e+00	4.652337e+00	1.065900e+01	2.032982e+00	8.834251e-01	1.148732e+00	8.907119e-01	5.595131e+00	1.100362e+00	5.334176e+00	1.240049e+00	1.488540e+00	2.029329e+00	2.642193e+00	1.400787e+00	2.121637e+00	1.296961e+00	1.376400e+00	2.778005e+00	3.079283e+00	5.218234e-01	1.482635e+00	2.334494e+00	3.584065e+00	3.061384e+00	1.220973e+00	1.658697e+00	3.851512e+00	1.925458e+00	3.617578e+00	1.199091e+00	1.434057e+00	6.944964e+00	2.638245e+00	3.965798e+00	1.448970e+00	-5.224363e-01	-4.718014e-01	1.328820e-01	7.814504e+00	9.592214e+00	8.182456e+00	3.870198e+00	7.181979e+00	4.118103e+00	1.710817e+00	1.237817e+00	1.002487e+01	2.211403e+00	1.158386e+00	3.083100e+00	5.462788e+00	1.334651e-01	7.063530e-01	4.258495e+00	4.524510e-01	1.698298e+00	-5.800710e-02	-8.095055e-01	5.324970e-01	1.567272e+00	8.115229e-01	7.137649e+00	1.863641e+00	8.686926e+00	7.216553e-01	4.136628e+00	4.711677e+00	4.060777e-01	1.026792e+00	6.347946e+00	4.339270e+00	6.592816e+00	4.766903e+00	4.717583e+00	1.276526e+00	4.875023e+00	9.179910e-01	2.028189e+00	-5.406005e-01	4.651329e+00	-4.099413e-03	3.360890e+00	8.618987e+00	4.880510e+00	2.858441e+00	
SCALARS Energy float 1
LOOKUP_TABLE default