# vtk DataFile Version 3.0
vtk output
ASCII
DATASET UNSTRUCTURED_GRID
POINTS 394 float
-3.000000e+00	0.000000e+00	0.0	-5.000000e-02	2.886525e-17	0.0	3.607474e-01	1.028696e+00	0.0	4.608049e-01	9.716834e-01	0.0	5.000000e-02	-9.241630e-18	0.0	3.000000e+00	0.000000e+00	0.0	3.000000e+00	4.000000e+00	0.0	-3.000000e+00	4.000000e+00	0.0	-3.000000e+00	3.428571e+00	0.0	-3.000000e+00	2.857143e+00	0.0	-3.000000e+00	2.285714e+00	0.0	-3.000000e+00	1.714286e+00	0.0	-3.000000e+00	1.142857e+00	0.0	-3.000000e+00	5.714286e-01	0.0	-2.473871e+00	0.000000e+00	0.0	-2.029066e+00	0.000000e+00	0.0	-1.653013e+00	0.000000e+00	0.0	-1.335087e+00	0.000000e+00	0.0	-1.066302e+00	0.000000e+00	0.0	-8.390627e-01	0.000000e+00	0.0	-6.469477e-01	0.000000e+00	0.0	-4.845277e-01	0.000000e+00	0.0	-3.472127e-01	0.000000e+00	0.0	-2.311224e-01	0.000000e+00	0.0	-1.329760e-01	0.000000e+00	0.0	-4.510860e-02	8.204054e-02	0.0	-3.331527e-02	1.635741e-01	0.0	-1.492665e-02	2.444870e-01	0.0	9.135578e-03	3.248459e-01	0.0	3.806374e-02	4.046933e-01	0.0	7.109342e-02	4.840532e-01	0.0	1.074841e-01	5.629457e-01	0.0	1.465244e-01	6.413950e-01	0.0	1.875435e-01	7.194392e-01	0.0	2.299441e-01	7.971254e-01	0.0	2.731938e-01	8.745261e-01	0.0	3.169508e-01	9.516659e-01	0.0	4.107765e-01	1.000239e+00	0.0	4.168882e-01	8.948225e-01	0.0	3.731912e-01	8.180648e-01	0.0	3.299294e-01	7.415528e-01	0.0	2.875356e-01	6.653427e-01	0.0	2.465197e-01	5.894978e-01	0.0	2.074828e-01	5.140688e-01	0.0	1.710937e-01	4.390915e-01	0.0	1.380653e-01	3.645890e-01	0.0	1.091377e-01	2.905790e-01	0.0	8.507671e-02	2.170845e-01	0.0	6.669501e-02	1.441418e-01	0.0	5.483735e-02	7.179194e-02	0.0	1.329760e-01	0.000000e+00	0.0	2.311224e-01	0.000000e+00	0.0	3.472127e-01	0.000000e+00	0.0	4.845277e-01	0.000000e+00	0.0	6.469477e-01	0.000000e+00	0.0	8.390627e-01	0.000000e+00	0.0	1.066302e+00	0.000000e+00	0.0	1.335087e+00	0.000000e+00	0.0	1.653013e+00	0.000000e+00	0.0	2.029066e+00	0.000000e+00	0.0	2.473871e+00	0.000000e+00	0.0	3.000000e+00	5.714286e-01	0.0	3.000000e+00	1.142857e+00	0.0	3.000000e+00	1.714286e+00	0.0	3.000000e+00	2.285714e+00	0.0	3.000000e+00	2.857143e+00	0.0	3.000000e+00	3.428571e+00	0.0	2.400000e+00	4.000000e+00	0.0	1.800000e+00	4.000000e+00	0.0	1.200000e+00	4.000000e+00	0.0	6.000000e-01	4.000000e+00	0.0	0.000000e+00	4.000000e+00	0.0	-6.000000e-01	4.000000e+00	0.0	-1.200000e+00	4.000000e+00	0.0	-1.800000e+00	4.000000e+00	0.0	-2.400000e+00	4.000000e+00	0.0	1.971984e-01	9.332150e-01	0.0	4.424912e-01	8.429417e-01	0.0	-1.464002e+00	2.863293e-01	0.0	1.535280e+00	1.892357e-01	0.0	2.712808e-01	5.352049e-01	0.0	3.830186e-02	6.215426e-01	0.0	-7.274812e-01	1.981099e-01	0.0	7.777707e-01	1.215912e-01	0.0	-2.544426e+00	2.102771e+00	0.0	2.598354e+00	1.908408e+00	0.0	-8.363229e-01	3.523628e+00	0.0	1.031031e+00	3.445814e+00	0.0	1.817540e-01	3.181509e-01	0.0	-5.574289e-02	3.755717e-01	0.0	-4.025728e-01	1.352767e-01	0.0	4.337800e-01	8.777830e-02	0.0	3.554564e-01	6.849831e-01	0.0	1.122472e-01	7.795226e-01	0.0	1.478137e-01	1.771314e-01	0.0	-9.771857e-02	2.139298e-01	0.0	2.564466e+00	7.634625e-01	0.0	-2.480232e+00	8.199302e-01	0.0	-2.017385e+00	3.471073e+00	0.0	2.124057e+00	3.418538e+00	0.0	-1.785957e-01	8.485000e-02	0.0	1.909685e-01	6.518747e-02	0.0	2.258018e+00	3.533447e-01	0.0	-2.238776e+00	3.794542e-01	0.0	2.551267e+00	1.350336e+00	0.0	2.222603e+00	1.641524e+00	0.0	2.207803e+00	2.065559e+00	0.0	1.904539e+00	1.793303e+00	0.0	1.875331e+00	1.380670e+00	0.0	1.630367e+00	1.582981e+00	0.0	1.607609e+00	1.940262e+00	0.0	1.389207e+00	1.725608e+00	0.0	1.390083e+00	1.417942e+00	0.0	1.192589e+00	1.542797e+00	0.0	1.190565e+00	1.287242e+00	0.0	1.011309e+00	1.370730e+00	0.0	9.931869e-01	1.643567e+00	0.0	8.374492e-01	1.502679e+00	0.0	7.987248e-01	1.746421e+00	0.0	6.494381e-01	1.634616e+00	0.0	5.970511e-01	1.854555e+00	0.0	4.546376e-01	1.738811e+00	0.0	3.774983e-01	1.963735e+00	0.0	2.235298e-01	1.804429e+00	0.0	1.031884e+00	1.152193e+00	0.0	1.335934e+00	2.073806e+00	0.0	5.790296e-01	2.121919e+00	0.0	1.155323e+00	1.034336e+00	0.0	9.939500e-01	9.618168e-01	0.0	1.180996e-01	2.086600e+00	0.0	-9.329750e-02	1.941056e+00	0.0	1.515415e-02	1.667578e+00	0.0	-3.245522e-01	1.798362e+00	0.0	-2.518406e-01	1.562295e+00	0.0	-5.551175e-01	1.644288e+00	0.0	-5.833239e-01	1.878749e+00	0.0	-4.987388e-01	1.404688e+00	0.0	-8.148961e-01	1.479086e+00	0.0	8.889260e-01	1.049905e+00	0.0	8.514129e-01	8.784102e-01	0.0	9.490856e-01	7.835170e-01	0.0	-1.858745e-01	2.227229e+00	0.0	7.949471e-01	7.056403e-01	0.0	5.080716e-01	1.509530e+00	0.0	4.157136e-01	1.052164e+00	0.0	4.761109e-01	1.017852e+00	0.0	4.449247e-01	1.099591e+00	0.0	5.113119e-01	1.083581e+00	0.0	6.082190e-02	2.398234e+00	0.0	-7.734917e-01	1.216646e+00	0.0	-1.092872e+00	1.292223e+00	0.0	-4.705106e-01	1.144169e+00	0.0	-7.958081e-01	9.363699e-01	0.0	-5.110179e-01	9.148226e-01	0.0	-1.138645e+00	1.590154e+00	0.0	8.927184e-01	6.119626e-01	0.0	1.059015e+00	6.824275e-01	0.0	7.322952e-01	5.524655e-01	0.0	3.192292e-03	1.436549e+00	0.0	1.563011e+00	2.308649e+00	0.0	3.675794e-01	1.113740e+00	0.0	4.068089e-01	1.176890e+00	0.0	5.324608e-01	9.923768e-01	0.0	5.838060e-01	1.065105e+00	0.0	5.499092e-01	1.158354e+00	0.0	6.011976e-01	9.618405e-01	0.0	9.977337e-01	5.102600e-01	0.0	1.200024e+00	5.992427e-01	0.0	3.079323e-01	1.191239e+00	0.0	-2.723072e-01	1.031886e+00	0.0	-3.033443e-01	8.529196e-01	0.0	-5.033266e-01	7.139958e-01	0.0	-3.005376e-01	6.794626e-01	0.0	-1.436640e+00	1.377763e+00	0.0	6.459482e-01	1.149810e+00	0.0	-2.836077e-01	2.546109e+00	0.0	-1.419820e-02	2.758127e+00	0.0	6.456187e-01	6.303762e-01	0.0	5.802505e-01	4.923291e-01	0.0	3.590119e-01	1.272468e+00	0.0	6.664459e-01	4.152795e-01	0.0	5.142953e-01	3.651188e-01	0.0	1.257848e+00	2.457387e+00	0.0	-1.492923e+00	1.711235e+00	0.0	1.498497e+00	2.701375e+00	0.0	5.962760e-01	2.899252e-01	0.0	1.117896e+00	3.500406e-01	0.0	-1.377122e+00	1.082536e+00	0.0	-4.831451e-01	5.340403e-01	0.0	-6.502429e-01	5.637742e-01	0.0	-3.334022e-01	4.937681e-01	0.0	-8.740890e-02	9.741631e-01	0.0	-8.565268e-02	1.123722e+00	0.0	-1.903577e+00	1.478106e+00	0.0	5.013500e-01	5.686423e-01	0.0	5.769701e-01	7.039864e-01	0.0	7.604761e-01	3.346499e-01	0.0	-1.887306e-01	5.892011e-01	0.0	9.322614e-01	1.924477e+00	0.0	1.342689e+00	5.128937e-01	0.0	1.404014e+00	7.220231e-01	0.0	1.568853e+00	5.861842e-01	0.0	1.644528e+00	8.568868e-01	0.0	1.876113e+00	7.273652e-01	0.0	5.905249e-01	1.257866e+00	0.0	7.026310e-01	1.246104e+00	0.0	-4.703640e-01	3.633019e-01	0.0	-2.374300e-01	1.368584e+00	0.0	-5.506843e-01	2.342683e+00	0.0	-6.736394e-01	2.693457e+00	0.0	-9.696064e-01	2.479284e+00	0.0	-1.088423e+00	2.834187e+00	0.0	-1.468417e+00	2.515129e+00	0.0	-2.039251e-01	4.370378e-01	0.0	2.365611e-01	1.284076e+00	0.0	2.834051e-01	1.386478e+00	0.0	1.915121e-01	1.193327e+00	0.0	3.725016e-01	2.562648e+00	0.0	3.034120e-01	3.024871e+00	0.0	6.711524e-01	2.764650e+00	0.0	-1.182221e+00	1.921216e+00	0.0	7.649832e-01	9.662047e-01	0.0	-1.509302e-01	3.173798e+00	0.0	-1.421060e-01	8.152317e-01	0.0	4.487227e-01	2.494799e-01	0.0	3.535656e-01	3.169832e-01	0.0	3.151698e-01	2.199280e-01	0.0	2.630534e-01	1.122301e+00	0.0	1.552023e-01	1.101737e+00	0.0	1.838016e+00	2.553451e+00	0.0	1.564088e+00	1.263993e+00	0.0	2.532528e+00	2.481063e+00	0.0	1.094127e+00	2.883712e+00	0.0	-1.556315e+00	2.074766e+00	0.0	4.207604e-01	4.355016e-01	0.0	2.987701e-01	3.946759e-01	0.0	1.240715e+00	1.696615e-01	0.0	1.097245e-04	8.862084e-01	0.0	-1.038010e-01	5.190415e-01	0.0	4.746027e-01	3.520859e+00	0.0	-3.273692e-01	3.396003e-01	0.0	-2.147099e-01	3.044043e-01	0.0	7.121609e-01	8.058182e-01	0.0	2.214224e+00	9.971737e-01	0.0	-1.580479e+00	3.045869e+00	0.0	-1.939083e+00	2.698872e+00	0.0	6.387655e-01	1.375474e+00	0.0	-2.448837e+00	1.341325e+00	0.0	8.559797e-01	1.298189e+00	0.0	-1.175686e+00	2.582454e-01	0.0	-1.264408e+00	5.378921e-01	0.0	-1.553779e+00	5.872794e-01	0.0	-9.903671e-01	5.137557e-01	0.0	-1.071186e+00	7.762158e-01	0.0	1.770993e+00	3.013963e+00	0.0	2.303951e-01	1.619134e+00	0.0	6.149176e-01	8.399705e-01	0.0	1.031522e-01	1.288366e+00	0.0	4.053250e-02	9.751991e-01	0.0	4.979611e-01	7.698445e-01	0.0	-2.094787e-02	7.597492e-01	0.0	-5.444927e-01	2.002178e-01	0.0	5.888016e-01	9.773564e-02	0.0	1.002170e+00	1.576833e-01	0.0	-9.349417e-01	2.298693e-01	0.0	1.861363e+00	2.368266e-01	0.0	3.046967e-01	7.599835e-02	0.0	-2.755717e-01	1.090805e-01	0.0	-1.424043e+00	3.540416e+00	0.0	4.207050e-01	1.374167e+00	0.0	2.567010e+00	3.092721e+00	0.0	3.892930e-01	5.141483e-01	0.0	-1.815995e+00	3.295351e-01	0.0	-1.931580e+00	7.406028e-01	0.0	1.484904e+00	9.870068e-01	0.0	4.140585e-01	6.150510e-01	0.0	5.331048e-01	8.868763e-01	0.0	1.034467e+00	2.209632e+00	0.0	-2.489191e+00	2.548752e+00	0.0	1.531271e+00	3.499362e+00	0.0	-6.896659e-02	6.462053e-01	0.0	4.799440e-01	9.321849e-01	0.0	-2.419509e+00	3.087434e+00	0.0	1.534104e-01	8.554419e-01	0.0	8.897971e-01	2.531670e-01	0.0	7.111612e-01	2.407285e+00	0.0	-7.850570e-01	3.865266e-01	0.0	7.223688e-02	7.011644e-01	0.0	3.985399e-01	7.612971e-01	0.0	-2.094903e+00	1.108184e+00	0.0	3.115437e-01	6.132838e-01	0.0	-3.441336e-03	5.501592e-01	0.0	2.393749e-01	4.614416e-01	0.0	1.251176e+00	8.339008e-01	0.0	2.079466e-01	3.871097e-01	0.0	-7.607173e-02	2.925725e-01	0.0	1.591279e-01	2.473026e-01	0.0	2.463654e-01	2.711715e-01	0.0	-3.453948e-02	4.604777e-01	0.0	2.404038e-01	1.414570e-01	0.0	-1.935214e-01	1.937551e-01	0.0	-7.072445e-01	7.302645e-01	0.0	5.993747e-02	1.179690e+00	0.0	2.181481e+00	6.674770e-01	0.0	7.747628e-01	1.127408e+00	0.0	1.917498e+00	1.057205e+00	0.0	3.642456e-01	1.067361e+00	0.0	8.286640e-01	4.680075e-01	0.0	-6.121624e-01	3.769768e-01	0.0	4.401312e-01	7.092093e-01	0.0	2.322614e-01	1.052780e+00	0.0	1.261157e-01	1.056779e-01	0.0	-1.072384e-01	1.272945e-01	0.0	-1.835555e+00	1.847538e+00	0.0	-1.989915e+00	2.223467e+00	0.0	-2.336251e-01	1.198016e+00	0.0	-7.668238e-01	3.086247e+00	0.0	4.636190e-01	1.248708e+00	0.0	1.343439e+00	1.136519e+00	0.0	-3.990860e-01	2.923715e+00	0.0	1.083938e+00	8.562807e-01	0.0	9.577227e-01	2.544141e+00	0.0	7.221288e-01	3.128131e+00	0.0	-1.079420e+00	1.017447e+00	0.0	2.171911e+00	2.827421e+00	0.0	1.399791e+00	3.109854e+00	0.0	-1.184035e-01	4.
[...]
POINT_DATA 394

SCALARS Density float 1
LOOKUP_TABLE default
1.223713e+00	1.223951e+00	1.221441e+00	1.221765e+00	1.223248e+00	1.223551e+00	1.223278e+00	1.223583e+00	1.223567e+00	1.223579e+00	1.223621e+00	1.223649e+00	1.223714e+00	1.223721e+00	1.223732e+00	1.223722e+00	1.223754e+00	1.223775e+00	1.223817e+00	1.223844e+00	1.223864e+00	1.223930e+00	1.223903e+00	1.224008e+00	1.223898e+00	1.224046e+00	1.223904e+00	1.223915e+00	1.223901e+00	1.223857e+00	1.223827e+00	1.223768e+00	1.223752e+00	1.223655e+00	1.223741e+00	1.222914e+00	1.224884e+00	1.219540e+00	1.223722e+00	1.223226e+00	1.223252e+00	1.223235e+00	1.223175e+00	1.223142e+00	1.223127e+00	1.223122e+00	1.223138e+00	1.223170e+00	1.223095e+00	1.223315e+00	1.223102e+00	1.223208e+00	1.223137e+00	1.223082e+00	1.223041e+00	1.223012e+00	1.222930e+00	1.222939e+00	1.222956e+00	1.223108e+00	1.222644e+00	1.223287e+00	1.223024e+00	1.222864e+00	1.222812e+00	1.222949e+00	1.223100e+00	1.223105e+00	1.223242e+00	1.223275e+00	1.223356e+00	1.223408e+00	1.223488e+00	1.223540e+00	1.223572e+00	1.223572e+00	1.222930e+00	1.223612e+00	1.223763e+00	1.222897e+00	1.223180e+00	1.223732e+00	1.223842e+00	1.222978e+00	1.223619e+00	1.223291e+00	1.223509e+00	1.223305e+00	1.223140e+00	1.223864e+00	1.223917e+00	1.223084e+00	1.223325e+00	1.223513e+00	1.223221e+00	1.223925e+00	1.222918e+00	1.223713e+00	1.223592e+00	1.223131e+00	1.223964e+00	1.223185e+00	1.223055e+00	1.223706e+00	1.222930e+00	1.222840e+00	1.223091e+00	1.223071e+00	1.222947e+00	1.222965e+00	1.223000e+00	1.223239e+00	1.222743e+00	1.222820e+00	1.222863e+00	1.222994e+00	1.222826e+00	1.223135e+00	1.223110e+00	1.223254e+00	1.223163e+00	1.223226e+00	1.223440e+00	1.223317e+00	1.222799e+00	1.223010e+00	1.223250e+00	1.222655e+00	1.222828e+00	1.223404e+00	1.223494e+00	1.223500e+00	1.223434e+00	1.223578e+00	1.223650e+00	1.223539e+00	1.223624e+00	1.223626e+00	1.222985e+00	1.222881e+00	1.222982e+00	1.223500e+00	1.223011e+00	1.223177e+00	1.221141e+00	1.221515e+00	1.222666e+00	1.222688e+00	1.223407e+00	1.223696e+00	1.223684e+00	1.223735e+00	1.223750e+00	1.223763e+00	1.223645e+00	1.222912e+00	1.222731e+00	1.223016e+00	1.223514e+00	1.223194e+00	1.221580e+00	1.223113e+00	1.222570e+00	1.222628e+00	1.222463e+00	1.222885e+00	1.222949e+00	1.222864e+00	1.223114e+00	1.223708e+00	1.223752e+00	1.223786e+00	1.223759e+00	1.223672e+00	1.222539e+00	1.223466e+00	1.223453e+00	1.223158e+00	1.223069e+00	1.223063e+00	1.223033e+00	1.223090e+00	1.223284e+00	1.223642e+00	1.223174e+00	1.223087e+00	1.222838e+00	1.223719e+00	1.223823e+00	1.223845e+00	1.223923e+00	1.223637e+00	1.223574e+00	1.223680e+00	1.223133e+00	1.223213e+00	1.222972e+00	1.223829e+00	1.223361e+00	1.222722e+00	1.222921e+00	1.222687e+00	1.222685e+00	1.222834e+00	1.222756e+00	1.222739e+00	1.223890e+00	1.223510e+00	1.223525e+00	1.223507e+00	1.223570e+00	1.223552e+00	1.223610e+00	1.223852e+00	1.223116e+00	1.223471e+00	1.223436e+00	1.223329e+00	1.223367e+00	1.223397e+00	1.223615e+00	1.222733e+00	1.223404e+00	1.223795e+00	1.223072e+00	1.223097e+00	1.223137e+00	1.223651e+00	1.223068e+00	1.223096e+00	1.222720e+00	1.223291e+00	1.223294e+00	1.223632e+00	1.223172e+00	1.223050e+00	1.222738e+00	1.223594e+00	1.223945e+00	1.223402e+00	1.223890e+00	1.223924e+00	1.222927e+00	1.222719e+00	1.223547e+00	1.223584e+00	1.222593e+00	1.223659e+00	1.222834e+00	1.223802e+00	1.223822e+00	1.223694e+00	1.223797e+00	1.223723e+00	1.223261e+00	1.223478e+00	1.223000e+00	1.223409e+00	1.223658e+00	1.223275e+00	1.223797e+00	1.223944e+00	1.223057e+00	1.222961e+00	1.223839e+00	1.222753e+00	1.223211e+00	1.223978e+00	1.223549e+00	1.223022e+00	1.223166e+00	1.223217e+00	1.223760e+00	1.223707e+00	1.222818e+00	1.223164e+00	1.222861e+00	1.223219e+00	1.223621e+00	1.223239e+00	1.223743e+00	1.222952e+00	1.223606e+00	1.223997e+00	1.222956e+00	1.223342e+00	1.223806e+00	1.223775e+00	1.223232e+00	1.223678e+00	1.223249e+00	1.223780e+00	1.223164e+00	1.222808e+00	1.223153e+00	1.223909e+00	1.223149e+00	1.223084e+00	1.223800e+00	1.223062e+00	1.223956e+00	1.223761e+00	1.223564e+00	1.222720e+00	1.222824e+00	1.223120e+00	1.225433e+00	1.222995e+00	1.223889e+00	1.223135e+00	1.223401e+00	1.223127e+00	1.223933e+00	1.223627e+00	1.223632e+00	1.223634e+00	1.223506e+00	1.222648e+00	1.222897e+00	1.223466e+00	1.222748e+00	1.223236e+00	1.223280e+00	1.223757e+00	1.223304e+00	1.223245e+00	1.223901e+00	1.223549e+00	1.223503e+00	1.223067e+00	1.223551e+00	1.222727e+00	1.223150e+00	1.223874e+00	1.223034e+00	1.223362e+00	1.223088e+00	1.223364e+00	1.223727e+00	1.222990e+00	1.223297e+00	1.223619e+00	1.222805e+00	1.223729e+00	1.223056e+00	1.222224e+00	1.223738e+00	1.223736e+00	1.223178e+00	1.223378e+00	1.222362e+00	1.223596e+00	1.223075e+00	1.223588e+00	1.223809e+00	1.225526e+00	1.223909e+00	1.223721e+00	1.223078e+00	1.223188e+00	1.223560e+00	1.223414e+00	1.223766e+00	1.223033e+00	1.223925e+00	1.222884e+00	1.222818e+00	1.223570e+00	1.222837e+00	1.223565e+00	1.223289e+00	1.223795e+00	1.223745e+00	1.223684e+00	1.223080e+00	1.223093e+00	1.223961e+00	1.223291e+00	1.223474e+00	1.223138e+00	1.223521e+00	1.222692e+00	1.223393e+00	1.223157e+00	1.223112e+00	1.223461e+00	1.223747e+00	1.222850e+00	1.223247e+00	1.222588e+00	1.223273e+00	1.222877e+00	1.223638e+00	1.222709e+00	
SCALARS X-Momentum float 1
LOOKUP_TABLE default
8.763187e+00	3.857704e-01	6.681552e+00	-4.004366e-01	-6.239855e-01	-4.479704e+00	1.619326e+01	1.036628e+01	1.023300e+01	1.002795e+01	9.774483e+00	9.480469e+00	9.202466e+00	8.939849e+00	8.614185e+00	8.313660e+00	7.859184e+00	7.269802e+00	6.595850e+00	5.822799e+00	4.948394e+00	4.096830e+00	3.112567e+00	2.142456e+00	1.185357e+00	6.282073e-02	3.852770e-01	8.490694e-01	1.382769e+00	1.973943e+00	2.571698e+00	3.154394e+00	3.728053e+00	4.271814e+00	4.673035e+00	4.658556e+00	4.329451e+00	3.879652e+00	6.189182e-01	8.855512e-01	1.401049e+00	1.722894e+00	1.912687e+00	1.974298e+00	1.857842e+00	1.605432e+00	1.275746e+00	8.872600e-01	5.301765e-01	2.518564e-01	-2.019466e+00	-3.645734e+00	-5.004049e+00	-6.197091e+00	-7.151504e+00	-7.858439e+00	-8.349691e+00	-8.578231e+00	-8.076429e+00	-7.141867e+00	-6.157043e+00	-5.753945e-01	4.970852e+00	1.035147e+01	1.418124e+01	1.601285e+01	1.640773e+01	1.550595e+01	1.464957e+01	1.372424e+01	1.295520e+01	1.231100e+01	1.173459e+01	1.121482e+01	1.078532e+01	1.049899e+01	5.038751e+00	1.663952e+00	7.742589e+00	-5.814741e+00	1.908500e+00	4.112253e+00	5.653347e+00	-5.581881e+00	9.707244e+00	1.257346e+01	1.136905e+01	1.383432e+01	9.624146e-01	2.417803e+00	3.723263e+00	-4.197024e+00	1.993026e+00	5.029671e+00	-5.509082e-02	1.446527e+00	1.213853e+00	8.946569e+00	1.049198e+01	1.549651e+01	1.684016e+00	-1.965233e+00	-3.063536e+00	8.628211e+00	7.490375e+00	1.093847e+01	1.408568e+01	1.292926e+01	8.944941e+00	1.166461e+01	1.440208e+01	1.347628e+01	1.029474e+01	1.218713e+01	8.656355e+00	1.040884e+01	1.373006e+01	1.279947e+01	1.458904e+01	1.424881e+01	1.456304e+01	1.414044e+01	1.371985e+01	1.296058e+01	6.722050e+00	1.515344e+01	1.420991e+01	5.039339e+00	3.998737e+00	1.259388e+01	1.173786e+01	1.169483e+01	1.084325e+01	1.042645e+01	1.010286e+01	1.046342e+01	9.500075e+00	9.463616e+00	4.809150e+00	2.847006e+00	2.132608e+00	1.170623e+01	1.742140e+00	1.386560e+01	5.514133e+00	2.088524e+00	6.525710e+00	4.442219e+00	1.240736e+01	8.806652e+00	8.992866e+00	8.610474e+00	7.937844e+00	7.568825e+00	9.512367e+00	6.580937e-01	9.939296e-01	6.985501e-01	1.097010e+01	1.548695e+01	9.674474e+00	1.058491e+01	1.827427e+00	3.848761e+00	7.346124e+00	2.361709e+00	-9.060884e-01	-4.184871e-01	1.163893e+01	8.072321e+00	7.011742e+00	6.622425e+00	5.865523e+00	9.157322e+00	6.334623e+00	1.168348e+01	1.226547e+01	1.762532e+00	8.131324e-01	1.259225e+01	-5.429756e-01	-3.530144e-01	1.528874e+01	9.580168e+00	1.532880e+01	-1.874255e+00	-3.145955e+00	8.684357e+00	5.725698e+00	6.364688e+00	4.901748e+00	7.411263e+00	8.619204e+00	9.292896e+00	1.816574e+00	2.361212e+00	-2.090276e+00	4.843408e+00	1.494511e+01	-1.683134e+00	8.993721e-01	-9.338932e-01	2.400943e+00	7.300679e-01	1.013085e+01	9.158782e+00	4.915316e+00	9.724055e+00	1.108955e+01	1.119942e+01	1.069358e+01	1.082302e+01	1.032266e+01	3.866598e+00	1.206912e+01	1.294382e+01	1.069838e+01	1.314962e+01	1.282825e+01	1.379144e+01	9.956787e+00	3.322277e+00	1.209663e+01	6.348352e+00	-1.519215e+00	-3.600210e-02	-1.001963e+00	1.021357e+01	8.820033e+00	1.561227e+01	7.961873e+00	1.534357e+01	1.449633e+01	9.938736e+00	9.599568e-01	1.059277e+00	-6.020198e+00	6.437813e+00	3.968535e+00	1.294253e+01	4.059143e+00	3.076442e+00	2.406078e+00	3.753010e+00	1.054701e+01	1.019678e+01	1.218136e+01	9.250530e+00	9.601587e+00	7.166628e+00	7.697824e+00	8.173865e+00	7.124902e+00	7.798514e+00	1.532167e+01	1.291610e+01	2.407533e+00	1.093840e+01	7.039549e+00	2.333533e+00	5.488740e+00	4.760264e+00	-5.023091e+00	-5.807599e+00	6.475600e+00	-4.886725e+00	-3.158499e+00	2.675658e+00	1.087243e+01	1.341996e+01	1.611757e+01	1.718746e+00	8.251564e+00	8.646395e+00	4.289974e+00	2.099851e+00	1.982176e+00	1.512035e+01	9.954579e+00	1.462209e+01	4.709026e+00	9.770905e-01	1.021399e+01	5.340951e+00	-3.777495e+00	1.423090e+01	6.341839e+00	4.603884e+00	1.826251e+00	9.004050e+00	1.993704e+00	3.648966e+00	1.680760e+00	2.607860e+00	1.362488e+00	1.871930e+00	4.977280e-01	1.231008e-01	3.030922e+00	-1.400130e+00	2.210260e+00	7.100353e+00	9.549562e+00	7.325368e-02	6.007361e+00	4.842198e+00	8.401364e+00	-7.139945e-01	5.617086e+00	2.269534e+00	7.951087e+00	-5.468176e-01	1.060099e+00	9.648097e+00	9.885232e+00	8.957525e+00	1.128514e+01	1.126581e+01	6.436462e+00	1.167708e+01	2.803129e+00	1.471457e+01	1.352890e+01	8.395399e+00	1.577176e+01	1.474525e+01	3.285158e+00	1.099454e+01	1.192201e+01	1.502780e+01	1.047794e+01	3.639482e+00	1.455041e+01	3.299099e+00	-3.152811e+00	1.482011e+01	-2.455831e+00	1.328857e+01	8.880451e+00	-3.604298e+00	1.351022e+01	9.979408e+00	2.600600e+00	8.200103e+00	-2.876852e+00	-3.060680e+00	8.796829e+00	6.105117e+00	6.666302e+00	1.196415e+01	8.404541e+00	9.754427e+00	1.146260e+01	1.027922e+01	4.210709e+00	5.815576e+00	2.819917e+00	8.521659e+00	-3.653690e-01	1.290793e+01	1.033897e+01	1.238652e+01	5.514685e+00	1.600332e+01	2.295305e+00	-3.677253e+00	-1.993388e+00	1.034512e+01	-2.175668e+00	1.095701e+01	1.236918e+01	6.845762e+00	8.115449e+00	9.535024e+00	7.277239e-01	1.569344e+00	7.849165e-01	-8.757346e-01	1.379900e+01	1.479946e+01	5.697044e+00	1.325107e+01	9.211857e+00	1.550179e+01	1.930085e+00	1.166216e+01	7.356873e+00	7.540277e+00	2.317078e+00	5.545609e+00	1.368288e+01	9.132464e+00	4.802050e+00	7.414640e+00	
SCALARS Y-Momentum float 1
LOOKUP_TABLE default
-1.981199e-02	3.798455e-01	5.831022e+00	-9.433054e-01	5.921421e-01	2.355295e-01	5.945839e-02	-1.247844e-02	1.599206e-02	4.341374e-02	5.962891e-02	7.659834e-02	6.403440e-02	1.153265e-02	-3.775656e-03	-2.203460e-04	6.506238e-03	5.573225e-03	1.130561e-02	1.383026e-02	-1.799121e-03	2.140495e-02	7.401413e-03	7.188629e-03	-3.116772e-02	1.233677e+00	2.227179e+00	3.190843e+00	4.185340e+00	5.116874e+00	5.960268e+00	6.728705e+00	7.463548e+00	8.228311e+00	8.807651e+00	8.975586e+00	9.154298e+00	-2.528883e+00	1.178124e+00	2.029382e+00	2.827205e+00	3.453929e+00	3.863154e+00	4.100135e+00	4.126873e+00	3.957849e+00	3.625880e+00	3.121162e+00	2.481670e+00	1.611402e+00	-1.627854e-03	3.682015e-02	2.679021e-02	8.532306e-03	2.222912e-03	7.323379e-03	1.147200e-02	2.677461e-03	-4.496151e-02	-6.987194e-02	-1.031577e-01	-5.552336e-01	-5.517144e-01	-6.987281e-02	6.212404e-01	8.402458e-01	4.931306e-01	1.174876e-02	-6.514060e-04	-1.113548e-02	-4.080135e-02	-2.624213e-02	-5.127419e-03	-5.215283e-03	2.377799e-03	-3.068566e-03	9.224015e+00	2.507877e+00	5.042157e-01	-2.343697e-01	3.691763e+00	6.502360e+00	8.806358e-01	4.758612e-01	3.898756e-01	2.855512e-01	4.427016e-01	8.209832e-01	3.379828e+00	4.215620e+00	9.679968e-01	6.898264e-01	3.232090e+00	7.831695e+00	2.433234e+00	2.500727e+00	-9.057506e-01	3.282041e-01	2.562794e-01	8.160020e-01	8.312819e-01	9.206842e-01	-6.661136e-01	2.501668e-01	-5.392933e-01	1.643642e-02	8.719792e-01	8.365826e-01	2.761023e-02	8.553005e-01	1.686492e+00	1.759128e+00	1.049194e+00	1.893936e+00	1.390151e+00	2.093674e+00	2.911349e+00	3.245034e+00	3.958676e+00	4.505125e+00	4.532664e+00	5.248911e+00	4.369829e+00	5.027578e+00	1.674867e+00	2.413321e+00	3.777891e+00	1.406696e+00	2.033869e+00	3.626276e+00	3.721022e+00	5.127626e+00	3.533193e+00	4.343649e+00	3.118300e+00	2.657738e+00	3.613088e+00	2.584181e+00	2.201215e+00	2.804324e+00	2.376819e+00	2.709422e+00	2.992767e+00	5.241693e+00	3.011058e-01	4.505977e-01	1.553436e+00	1.300360e+00	2.574690e+00	2.776679e+00	2.052192e+00	3.868867e+00	2.621351e+00	3.590959e+00	1.908003e+00	2.294396e+00	1.767274e+00	2.640843e+00	6.276585e+00	2.030048e+00	5.606235e+00	4.855037e+00	2.068258e+00	2.178726e+00	2.301787e+00	3.087257e+00	1.515185e+00	9.334778e-01	8.240135e+00	4.987096e+00	4.607803e+00	3.338689e+00	4.182630e+00	1.491281e+00	2.243179e+00	1.913689e+00	1.693779e+00	3.286165e+00	2.822480e+00	7.154019e+00	2.166674e+00	2.361268e+00	2.377984e+00	1.377563e+00	1.866986e+00	1.650001e+00	6.406594e-01	1.497191e+00	2.899643e+00	2.388408e+00	3.314656e+00	6.472769e+00	6.700329e+00	9.614457e-01	3.318218e+00	3.637295e+00	1.488269e+00	4.455902e+00	3.447246e+00	2.875332e-01	3.198862e-01	-1.288318e-01	-2.226590e-01	-7.232041e-01	3.035561e+00	2.484879e+00	2.213488e+00	4.945613e+00	2.000731e+00	1.426785e+00	1.477127e+00	1.033840e+00	1.038490e+00	3.590345e+00	8.649379e+00	7.619776e+00	9.617608e+00	2.393266e+00	1.329529e+00	2.057479e+00	1.699718e+00	2.881199e+00	9.694123e-01	5.623780e+00	1.882926e+00	2.672225e+00	2.168256e+00	9.736631e+00	1.012538e+01	1.689444e+00	3.878942e-01	1.042511e+00	1.798997e+00	1.209699e+00	3.036972e+00	3.277688e+00	9.535036e-02	7.164988e+00	4.757536e+00	6.228117e-01	2.509444e+00	2.671870e+00	3.521748e+00	-9.657509e-01	6.342107e-01	6.086121e-01	3.690395e+00	4.606734e-01	2.212651e+00	6.271506e-01	1.102048e+00	8.525912e-01	1.420460e+00	1.747944e+00	1.411924e+00	6.131817e+00	3.718723e+00	8.234383e+00	8.255423e+00	3.339219e+00	6.541291e+00	1.094941e+00	5.615888e-01	3.442338e-01	7.568740e-01	-4.408853e-01	8.655208e-01	9.459736e-01	3.364286e-01	6.230126e+00	1.012060e+00	3.373098e+00	3.910683e-01	6.581929e-01	3.704113e-01	3.392397e+00	3.142193e+00	3.018495e+00	3.630154e-01	7.658983e-01	5.636990e+00	1.892229e+00	2.705414e-01	8.719831e+00	9.072455e-01	2.978275e+00	1.555482e+00	7.151349e+00	2.810194e+00	6.982669e-01	3.509254e+00	5.768359e+00	3.721204e+00	1.100413e+00	3.617488e+00	3.386639e+00	2.997737e+00	2.818558e+00	4.980409e+00	1.763741e+00	1.888763e+00	2.636285e+00	8.530522e+00	-9.517468e-01	2.231676e+00	-5.814566e-01	3.305435e+00	1.914832e+00	1.850741e+00	3.268113e+00	1.074016e+01	1.746832e+00	1.569169e+00	9.888379e-01	7.581063e-01	5.233194e+00	9.242016e-01	4.350337e+00	9.028213e-01	1.263109e+00	1.797052e+00	2.529674e+00	1.302761e+00	1.988226e+00	1.397890e+00	1.377465e+00	4.149486e+00	2.670459e+00	4.332040e-01	1.527948e+00	2.003918e+00	2.690178e+00	2.646514e+00	1.813476e+00	1.181345e+00	3.603494e+00	1.444065e+00	3.350143e+00	1.055905e+00	1.025335e+00	6.627261e+00	2.303493e+00	3.454765e+00	1.360215e+00	-4.676530e-01	-5.121578e-01	1.101452e-01	8.705736e+00	9.985016e+00	7.830999e+00	2.517748e+00	6.665354e+00	2.974240e+00	1.461010e+00	1.718981e+00	1.064249e+01	3.452602e+00	1.049274e+00	2.453405e+00	4.570994e+00	1.077684e-01	6.051598e-01	5.198684e+00	4.855958e-01	2.779248e+00	5.729793e-03	-7.864726e-01	4.457563e-01	1.283619e+00	6.756212e-01	6.780856e+00	2.014138e+00	8.498379e+00	6.151315e-01	3.166690e+00	3.428071e+00	7.195086e-01	9.195295e-01	6.047751e+00	4.006788e+00	7.732952e+00	3.867564e+00	4.340211e+00	1.411674e+00	3.479115e+00	7.642183e-01	2.068936e+00	-5.789699e-01	3.459636e+00	-9.907876e-02	3.132603e+00	8.056685e+00	6.351222e+00	1.879633e+00	
SCALARS Energy float 1
LOOKUP_TABLE default