# vtk DataFile Version 3.0
vtk output
ASCII
DATASET UNSTRUCTURED_GRID
POINTS 394 float
-3.000000e+00	0.000000e+00	0.0	-5.000000e-02	4.869150e-17	0.0	4.639394e-01	1.034167e+00	0.0	5.639927e-01	9.655833e-01	0.0	5.000000e-02	-1.145112e-17	0.0	3.000000e+00	0.000000e+00	0.0	3.000000e+00	4.000000e+00	0.0	-3.000000e+00	4.000000e+00	0.0	-3.000000e+00	3.428571e+00	0.0	-3.000000e+00	2.857143e+00	0.0	-3.000000e+00	2.285714e+00	0.0	-3.000000e+00	1.714286e+00	0.0	-3.000000e+00	1.142857e+00	0.0	-3.000000e+00	5.714286e-01	0.0	-2.473871e+00	0.000000e+00	0.0	-2.029066e+00	0.000000e+00	0.0	-1.653013e+00	0.000000e+00	0.0	-1.335087e+00	0.000000e+00	0.0	-1.066302e+00	0.000000e+00	0.0	-8.390627e-01	0.000000e+00	0.0	-6.469477e-01	0.000000e+00	0.0	-4.845277e-01	0.000000e+00	0.0	-3.472127e-01	0.000000e+00	0.0	-2.311224e-01	0.000000e+00	0.0	-1.329760e-01	0.000000e+00	0.0	-4.334205e-02	8.381953e-02	0.0	-2.735298e-02	1.668647e-01	0.0	-2.632905e-03	2.489454e-01	0.0	2.933966e-02	3.301270e-01	0.0	6.722039e-02	4.104733e-01	0.0	1.097621e-01	4.900545e-01	0.0	1.558351e-01	5.689596e-01	0.0	2.044650e-01	6.472952e-01	0.0	2.548527e-01	7.251794e-01	0.0	3.063884e-01	8.027209e-01	0.0	3.586047e-01	8.800290e-01	0.0	4.112485e-01	9.571281e-01	0.0	5.139682e-01	9.999227e-01	0.0	5.111899e-01	8.887307e-01	0.0	4.586072e-01	8.119538e-01	0.0	4.063825e-01	7.353776e-01	0.0	3.548569e-01	6.590609e-01	0.0	3.044764e-01	5.830991e-01	0.0	2.558542e-01	5.076027e-01	0.0	2.097870e-01	4.326870e-01	0.0	1.672508e-01	3.584580e-01	0.0	1.293743e-01	2.850043e-01	0.0	9.740602e-02	2.123975e-01	0.0	7.269585e-02	1.406946e-01	0.0	5.662280e-02	6.992427e-02	0.0	1.329760e-01	0.000000e+00	0.0	2.311224e-01	0.000000e+00	0.0	3.472127e-01	0.000000e+00	0.0	4.845277e-01	0.000000e+00	0.0	6.469477e-01	0.000000e+00	0.0	8.390627e-01	0.000000e+00	0.0	1.066302e+00	0.000000e+00	0.0	1.335087e+00	0.000000e+00	0.0	1.653013e+00	0.000000e+00	0.0	2.029066e+00	0.000000e+00	0.0	2.473871e+00	0.000000e+00	0.0	3.000000e+00	5.714286e-01	0.0	3.000000e+00	1.142857e+00	0.0	3.000000e+00	1.714286e+00	0.0	3.000000e+00	2.285714e+00	0.0	3.000000e+00	2.857143e+00	0.0	3.000000e+00	3.428571e+00	0.0	2.400000e+00	4.000000e+00	0.0	1.800000e+00	4.000000e+00	0.0	1.200000e+00	4.000000e+00	0.0	6.000000e-01	4.000000e+00	0.0	0.000000e+00	4.000000e+00	0.0	-6.000000e-01	4.000000e+00	0.0	-1.200000e+00	4.000000e+00	0.0	-1.800000e+00	4.000000e+00	0.0	-2.400000e+00	4.000000e+00	0.0	2.820160e-01	9.426507e-01	0.0	5.322019e-01	8.333985e-01	0.0	-1.459391e+00	2.954848e-01	0.0	1.547070e+00	1.796584e-01	0.0	3.239021e-01	5.255097e-01	0.0	8.881288e-02	6.328541e-01	0.0	-7.222414e-01	2.083395e-01	0.0	7.884946e-01	1.128795e-01	0.0	-2.534366e+00	2.109430e+00	0.0	2.621207e+00	1.900618e+00	0.0	-8.141296e-01	3.528254e+00	0.0	1.063786e+00	3.444123e+00	0.0	2.071557e-01	3.098923e-01	0.0	-3.273230e-02	3.849214e-01	0.0	-3.986977e-01	1.429853e-01	0.0	4.405509e-01	8.210398e-02	0.0	4.266597e-01	6.752561e-01	0.0	1.805539e-01	7.905272e-01	0.0	1.590935e-01	1.712469e-01	0.0	-8.810171e-02	2.205086e-01	0.0	2.578708e+00	7.495998e-01	0.0	-2.474837e+00	8.279009e-01	0.0	-2.007940e+00	3.476019e+00	0.0	2.141466e+00	3.413909e+00	0.0	-1.765469e-01	8.850044e-02	0.0	1.941806e-01	6.208265e-02	0.0	2.270050e+00	3.413448e-01	0.0	-2.236118e+00	3.850054e-01	0.0	2.577003e+00	1.337539e+00	0.0	2.262716e+00	1.625414e+00	0.0	2.248452e+00	2.055132e+00	0.0	1.957920e+00	1.777849e+00	0.0	1.926250e+00	1.358411e+00	0.0	1.694766e+00	1.563745e+00	0.0	1.671331e+00	1.926379e+00	0.0	1.463303e+00	1.709891e+00	0.0	1.462670e+00	1.397613e+00	0.0	1.274004e+00	1.526865e+00	0.0	1.270391e+00	1.267268e+00	0.0	1.100713e+00	1.354645e+00	0.0	1.081692e+00	1.633087e+00	0.0	9.335964e-01	1.493671e+00	0.0	8.900049e-01	1.741493e+00	0.0	7.461716e-01	1.631218e+00	0.0	6.886474e-01	1.853532e+00	0.0	5.504199e-01	1.741737e+00	0.0	4.668903e-01	1.966929e+00	0.0	3.173949e-01	1.811768e+00	0.0	1.116336e+00	1.132982e+00	0.0	1.406433e+00	2.062483e+00	0.0	6.634657e-01	2.121606e+00	0.0	1.229713e+00	1.011193e+00	0.0	1.071358e+00	9.411361e-01	0.0	1.999190e-01	2.094067e+00	0.0	-1.393715e-02	1.954686e+00	0.0	1.069402e-01	1.681818e+00	0.0	-2.525206e-01	1.818871e+00	0.0	-1.739328e-01	1.585876e+00	0.0	-4.907785e-01	1.667758e+00	0.0	-5.202640e-01	1.900464e+00	0.0	-4.321535e-01	1.432518e+00	0.0	-7.635842e-01	1.504198e+00	0.0	9.753985e-01	1.033030e+00	0.0	9.309682e-01	8.599072e-01	0.0	1.017321e+00	7.624582e-01	0.0	-1.151610e-01	2.240853e+00	0.0	8.622370e-01	6.857369e-01	0.0	6.086189e-01	1.510121e+00	0.0	5.197147e-01	1.053480e+00	0.0	5.803043e-01	1.013093e+00	0.0	5.489948e-01	1.099911e+00	0.0	6.146194e-01	1.079941e+00	0.0	1.333627e-01	2.407322e+00	0.0	-7.275117e-01	1.242925e+00	0.0	-1.056877e+00	1.317092e+00	0.0	-4.091947e-01	1.172472e+00	0.0	-7.645227e-01	9.637704e-01	0.0	-4.666207e-01	9.440354e-01	0.0	-1.097834e+00	1.613740e+00	0.0	9.482436e-01	5.900717e-01	0.0	1.116425e+00	6.591285e-01	0.0	7.857475e-01	5.322725e-01	0.0	9.566614e-02	1.454445e+00	0.0	1.621966e+00	2.298478e+00	0.0	4.713641e-01	1.119090e+00	0.0	5.107181e-01	1.179853e+00	0.0	6.334965e-01	9.849825e-01	0.0	6.847828e-01	1.057863e+00	0.0	6.531831e-01	1.154464e+00	0.0	6.974167e-01	9.514114e-01	0.0	1.042273e+00	4.870186e-01	0.0	1.247037e+00	5.765525e-01	0.0	4.090442e-01	1.198976e+00	0.0	-2.067872e-01	1.058461e+00	0.0	-2.518492e-01	8.808319e-01	0.0	-4.712647e-01	7.394063e-01	0.0	-2.614910e-01	7.055914e-01	0.0	-1.407751e+00	1.400745e+00	0.0	7.461012e-01	1.142164e+00	0.0	-2.238952e-01	2.558650e+00	0.0	4.362569e-02	2.768159e+00	0.0	7.094490e-01	6.106706e-01	0.0	6.298490e-01	4.741671e-01	0.0	4.612605e-01	1.278141e+00	0.0	7.064339e-01	3.973143e-01	0.0	5.489564e-01	3.493206e-01	0.0	1.322512e+00	2.450721e+00	0.0	-1.460548e+00	1.731738e+00	0.0	1.550387e+00	2.693619e+00	0.0	6.228132e-01	2.752030e-01	0.0	1.146266e+00	3.303347e-01	0.0	-1.353826e+00	1.105352e+00	0.0	-4.613998e-01	5.551995e-01	0.0	-6.299466e-01	5.852717e-01	0.0	-3.099950e-01	5.142605e-01	0.0	-1.412530e-02	9.977854e-01	0.0	-5.201903e-03	1.146033e+00	0.0	-1.882913e+00	1.495665e+00	0.0	5.616165e-01	5.502367e-01	0.0	6.505841e-01	6.857114e-01	0.0	7.918487e-01	3.176335e-01	0.0	-1.515747e-01	6.107985e-01	0.0	1.018338e+00	1.919410e+00	0.0	1.379834e+00	4.925395e-01	0.0	1.451220e+00	6.980313e-01	0.0	1.603914e+00	5.643080e-01	0.0	1.691059e+00	8.337552e-01	0.0	1.908548e+00	7.064005e-01	0.0	6.920800e-01	1.253411e+00	0.0	8.015571e-01	1.238104e+00	0.0	-4.579666e-01	3.794833e-01	0.0	-1.604552e-01	1.394602e+00	0.0	-4.922591e-01	2.358802e+00	0.0	-6.271168e-01	2.705815e+00	0.0	-9.253418e-01	2.494594e+00	0.0	-1.052527e+00	2.844239e+00	0.0	-1.435456e+00	2.529974e+00	0.0	-1.808762e-01	4.549643e-01	0.0	3.351136e-01	1.294626e+00	0.0	3.829601e-01	1.395339e+00	0.0	2.877424e-01	1.205736e+00	0.0	4.455211e-01	2.565331e+00	0.0	3.539603e-01	3.029390e+00	0.0	7.349263e-01	2.763792e+00	0.0	-1.140246e+00	1.942070e+00	0.0	8.545403e-01	9.505586e-01	0.0	-1.126663e-01	3.182810e+00	0.0	-8.461440e-02	8.401617e-01	0.0	4.693519e-01	2.370223e-01	0.0	3.810253e-01	3.019437e-01	0.0	3.322742e-01	2.088505e-01	0.0	3.616737e-01	1.131831e+00	0.0	2.471620e-01	1.115387e+00	0.0	1.883999e+00	2.543729e+00	0.0	1.626103e+00	1.240671e+00	0.0	2.556881e+00	2.475718e+00	0.0	1.149161e+00	2.879526e+00	0.0	-1.523976e+00	2.093475e+00	0.0	4.646418e-01	4.176865e-01	0.0	3.349532e-01	3.809257e-01	0.0	1.252839e+00	1.599654e-01	0.0	7.180352e-02	9.056342e-01	0.0	-7.004590e-02	5.354924e-01	0.0	5.035980e-01	3.524208e+00	0.0	-3.141101e-01	3.544736e-01	0.0	-2.014829e-01	3.173932e-01	0.0	7.933675e-01	7.889021e-01	0.0	2.246876e+00	9.769704e-01	0.0	-1.558655e+00	3.053512e+00	0.0	-1.919204e+00	2.707277e+00	0.0	7.388129e-01	1.370567e+00	0.0	-2.438939e+00	1.352437e+00	0.0	9.499344e-01	1.285791e+00	0.0	-1.170861e+00	2.679868e-01	0.0	-1.252343e+00	5.549905e-01	0.0	-1.543122e+00	6.032378e-01	0.0	-9.763957e-01	5.343378e-01	0.0	-1.050958e+00	8.000813e-01	0.0	1.809422e+00	3.007719e+00	0.0	3.276435e-01	1.627995e+00	0.0	7.019870e-01	8.263421e-01	0.0	1.974135e-01	1.303732e+00	0.0	1.197885e-01	9.934941e-01	0.0	5.792518e-01	7.552326e-01	0.0	3.843437e-02	7.785522e-01	0.0	-5.392588e-01	2.118397e-01	0.0	5.967308e-01	9.102113e-02	0.0	1.015247e+00	1.464963e-01	0.0	-9.301634e-01	2.405767e-01	0.0	1.873018e+00	2.261220e-01	0.0	3.098552e-01	7.181449e-02	0.0	-2.725981e-01	1.145889e-01	0.0	-1.409237e+00	3.544584e+00	0.0	5.225696e-01	1.377448e+00	0.0	2.580304e+00	3.090091e+00	0.0	4.418929e-01	4.979467e-01	0.0	-1.812335e+00	3.377473e-01	0.0	-1.921234e+00	7.559649e-01	0.0	1.541331e+00	9.636814e-01	0.0	4.783191e-01	6.006058e-01	0.0	6.274676e-01	8.762868e-01	0.0	1.112001e+00	2.205078e+00	0.0	-2.479398e+00	2.554840e+00	0.0	1.557451e+00	3.496553e+00	0.0	-2.115180e-02	6.644209e-01	0.0	5.802413e-01	9.243189e-01	0.0	-2.410039e+00	3.090398e+00	0.0	2.297920e-01	8.657138e-01	0.0	9.126974e-01	2.374411e-01	0.0	7.879602e-01	2.406790e+00	0.0	-7.738108e-01	4.037185e-01	0.0	1.311872e-01	7.127230e-01	0.0	4.783005e-01	7.515689e-01	0.0	-2.081596e+00	1.123686e+00	0.0	3.736996e-01	6.036601e-01	0.0	3.826884e-02	5.621642e-01	0.0	2.825903e-01	4.516304e-01	0.0	1.311333e+00	8.089120e-01	0.0	2.413436e-01	3.778724e-01	0.0	-6.047818e-02	3.003667e-01	0.0	1.767034e-01	2.402861e-01	0.0	2.679313e-01	2.606318e-01	0.0	-3.061587e-03	4.713276e-01	0.0	2.503548e-01	1.344692e-01	0.0	-1.861595e-01	2.021150e-01	0.0	-6.820177e-01	7.551209e-01	0.0	1.496554e-01	1.197299e+00	0.0	2.203559e+00	6.489932e-01	0.0	8.691315e-01	1.114757e+00	0.0	1.961589e+00	1.034473e+00	0.0	4.675367e-01	1.072638e+00	0.0	8.717803e-01	4.478257e-01	0.0	-6.000471e-01	3.941026e-01	0.0	5.147319e-01	6.961775e-01	0.0	3.264221e-01	1.062303e+00	0.0	1.308840e-01	1.022503e-01	0.0	-1.032890e-01	1.312466e-01	0.0	-1.810109e+00	1.864701e+00	0.0	-1.968164e+00	2.237561e+00	0.0	-1.595140e-01	1.222946e+00	0.0	-7.321297e-01	3.094176e+00	0.0	5.674932e-01	1.249795e+00	0.0	1.412169e+00	1.113896e+00	0.0	-3.550275e-01	2.933734e+00	0.0	1.152099e+00	8.330219e-01	0.0	1.026320e+00	2.540768e+00	0.0	7.703060e-01	3.128448e+00	0.0	-1.052098e+00	1.042384e+00	0.0	2.203634e+00	2.819452e+00	0.0	1.441134e+00	3.104350e+00	0.0	-9.267971e-02	4.458
[...]
POINT_DATA 394

SCALARS Density float 1
LOOKUP_TABLE default
1.223703e+00	1.223922e+00	1.221369e+00	1.221877e+00	1.223328e+00	1.223562e+00	1.223280e+00	1.223579e+00	1.223564e+00	1.223575e+00	1.223616e+00	1.223641e+00	1.223704e+00	1.223710e+00	1.223720e+00	1.223710e+00	1.223740e+00	1.223758e+00	1.223799e+00	1.223824e+00	1.223841e+00	1.223912e+00	1.223877e+00	1.223996e+00	1.223868e+00	1.224049e+00	1.223875e+00	1.223879e+00	1.223859e+00	1.223809e+00	1.223778e+00	1.223721e+00	1.223706e+00	1.223615e+00	1.223699e+00	1.222904e+00	1.224831e+00	1.219524e+00	1.223768e+00	1.223300e+00	1.223343e+00	1.223337e+00	1.223280e+00	1.223248e+00	1.223230e+00	1.223223e+00	1.223235e+00	1.223263e+00	1.223189e+00	1.223384e+00	1.223183e+00	1.223275e+00	1.223209e+00	1.223154e+00	1.223115e+00	1.223082e+00	1.223004e+00	1.222993e+00	1.223003e+00	1.223152e+00	1.222685e+00	1.223300e+00	1.223045e+00	1.222875e+00	1.222819e+00	1.222950e+00	1.223097e+00	1.223108e+00	1.223249e+00	1.223284e+00	1.223365e+00	1.223411e+00	1.223488e+00	1.223538e+00	1.223568e+00	1.223569e+00	1.222875e+00	1.223696e+00	1.223748e+00	1.222953e+00	1.223284e+00	1.223692e+00	1.223828e+00	1.223049e+00	1.223612e+00	1.223305e+00	1.223506e+00	1.223305e+00	1.223235e+00	1.223831e+00	1.223902e+00	1.223153e+00	1.223422e+00	1.223477e+00	1.223303e+00	1.223898e+00	1.222971e+00	1.223702e+00	1.223588e+00	1.223129e+00	1.223954e+00	1.223256e+00	1.223094e+00	1.223694e+00	1.222966e+00	1.222854e+00	1.223095e+00	1.223089e+00	1.222982e+00	1.222984e+00	1.223003e+00	1.223260e+00	1.222753e+00	1.222823e+00	1.222906e+00	1.223014e+00	1.222820e+00	1.223130e+00	1.223112e+00	1.223250e+00	1.223153e+00	1.223221e+00	1.223429e+00	1.223308e+00	1.222806e+00	1.223012e+00	1.223243e+00	1.222699e+00	1.222880e+00	1.223397e+00	1.223487e+00	1.223488e+00	1.223422e+00	1.223562e+00	1.223634e+00	1.223526e+00	1.223604e+00	1.223614e+00	1.223029e+00	1.222927e+00	1.223053e+00	1.223491e+00	1.223096e+00	1.223167e+00	1.220980e+00	1.221495e+00	1.222693e+00	1.222667e+00	1.223406e+00	1.223684e+00	1.223667e+00	1.223717e+00	1.223733e+00	1.223746e+00	1.223630e+00	1.223001e+00	1.222809e+00	1.223105e+00	1.223502e+00	1.223189e+00	1.221595e+00	1.223101e+00	1.222533e+00	1.222629e+00	1.222445e+00	1.222907e+00	1.223038e+00	1.222936e+00	1.223116e+00	1.223682e+00	1.223734e+00	1.223759e+00	1.223732e+00	1.223663e+00	1.222518e+00	1.223458e+00	1.223449e+00	1.223250e+00	1.223163e+00	1.223045e+00	1.223129e+00	1.223188e+00	1.223285e+00	1.223631e+00	1.223173e+00	1.223163e+00	1.222933e+00	1.223706e+00	1.223801e+00	1.223823e+00	1.223904e+00	1.223591e+00	1.223542e+00	1.223670e+00	1.223231e+00	1.223310e+00	1.223066e+00	1.223788e+00	1.223366e+00	1.222788e+00	1.222991e+00	1.222752e+00	1.222737e+00	1.222894e+00	1.222740e+00	1.222742e+00	1.223858e+00	1.223489e+00	1.223521e+00	1.223502e+00	1.223562e+00	1.223548e+00	1.223601e+00	1.223819e+00	1.223097e+00	1.223465e+00	1.223419e+00	1.223327e+00	1.223366e+00	1.223390e+00	1.223606e+00	1.222761e+00	1.223405e+00	1.223749e+00	1.223163e+00	1.223189e+00	1.223222e+00	1.223595e+00	1.223078e+00	1.223097e+00	1.222749e+00	1.223287e+00	1.223298e+00	1.223624e+00	1.223270e+00	1.223144e+00	1.222815e+00	1.223560e+00	1.223905e+00	1.223405e+00	1.223878e+00	1.223903e+00	1.222996e+00	1.222746e+00	1.223543e+00	1.223580e+00	1.222579e+00	1.223650e+00	1.222814e+00	1.223787e+00	1.223804e+00	1.223680e+00	1.223779e+00	1.223704e+00	1.223264e+00	1.223454e+00	1.223068e+00	1.223389e+00	1.223646e+00	1.223356e+00	1.223759e+00	1.223931e+00	1.223134e+00	1.223034e+00	1.223822e+00	1.222816e+00	1.223284e+00	1.223963e+00	1.223547e+00	1.223016e+00	1.223165e+00	1.223316e+00	1.223747e+00	1.223697e+00	1.222884e+00	1.223268e+00	1.222922e+00	1.223215e+00	1.223616e+00	1.223242e+00	1.223705e+00	1.222996e+00	1.223601e+00	1.223983e+00	1.223033e+00	1.223345e+00	1.223782e+00	1.223742e+00	1.223304e+00	1.223668e+00	1.223349e+00	1.223737e+00	1.223266e+00	1.222864e+00	1.223250e+00	1.223881e+00	1.223240e+00	1.223168e+00	1.223763e+00	1.223142e+00	1.223930e+00	1.223731e+00	1.223531e+00	1.222749e+00	1.222843e+00	1.223156e+00	1.225610e+00	1.223080e+00	1.223861e+00	1.223223e+00	1.223389e+00	1.223209e+00	1.223913e+00	1.223617e+00	1.223624e+00	1.223598e+00	1.223502e+00	1.222644e+00	1.222939e+00	1.223465e+00	1.222812e+00	1.223233e+00	1.223283e+00	1.223737e+00	1.223300e+00	1.223245e+00	1.223859e+00	1.223539e+00	1.223503e+00	1.223074e+00	1.223542e+00	1.222731e+00	1.223148e+00	1.223847e+00	1.223118e+00	1.223362e+00	1.223173e+00	1.223359e+00	1.223711e+00	1.223083e+00	1.223276e+00	1.223611e+00	1.222842e+00	1.223715e+00	1.223109e+00	1.222256e+00	1.223726e+00	1.223683e+00	1.223122e+00	1.223352e+00	1.222289e+00	1.223582e+00	1.223082e+00	1.223579e+00	1.223767e+00	1.225578e+00	1.223864e+00	1.223706e+00	1.223169e+00	1.223167e+00	1.223559e+00	1.223412e+00	1.223726e+00	1.223036e+00	1.223888e+00	1.222942e+00	1.222863e+00	1.223563e+00	1.222908e+00	1.223559e+00	1.223277e+00	1.223775e+00	1.223711e+00	1.223675e+00	1.223176e+00	1.223195e+00	1.223937e+00	1.223369e+00	1.223481e+00	1.223130e+00	1.223471e+00	1.222655e+00	1.223367e+00	1.223154e+00	1.223219e+00	1.223455e+00	1.223725e+00	1.222890e+00	1.223337e+00	1.222625e+00	1.223266e+00	1.222852e+00	1.223583e+00	1.222720e+00	
SCALARS X-Momentum float 1
LOOKUP_TABLE default
8.916964e+00	4.430332e-01	6.984421e+00	-3.566410e-01	-5.795447e-01	-4.187641e+00	1.616358e+01	1.041276e+01	1.028797e+01	1.009493e+01	9.856332e+00	9.580356e+00	9.323123e+00	9.080653e+00	8.775196e+00	8.487593e+00	8.054364e+00	7.487704e+00	6.837756e+00	6.085182e+00	5.221847e+00	4.366828e+00	3.352061e+00	2.333081e+00	1.311036e+00	1.276063e-01	6.059292e-01	1.263399e+00	1.989961e+00	2.741637e+00	3.450575e+00	4.101438e+00	4.714922e+00	5.275383e+00	5.662873e+00	5.587640e+00	5.175749e+00	3.660532e+00	7.571626e-01	1.024848e+00	1.573937e+00	1.936598e+00	2.164547e+00	2.260831e+00	2.167281e+00	1.915529e+00	1.553400e+00	1.104430e+00	6.673812e-01	3.027524e-01	-1.926982e+00	-3.494189e+00	-4.798138e+00	-5.928753e+00	-6.823488e+00	-7.497829e+00	-7.970643e+00	-8.204573e+00	-7.753878e+00	-6.846245e+00	-5.865464e+00	-3.009883e-01	5.180913e+00	1.046146e+01	1.420297e+01	1.598761e+01	1.637516e+01	1.547259e+01	1.461493e+01	1.368226e+01	1.290708e+01	1.226501e+01	1.170752e+01	1.121363e+01	1.080674e+01	1.053682e+01	5.873338e+00	1.832972e+00	7.953068e+00	-5.534758e+00	2.157086e+00	4.980363e+00	5.953886e+00	-5.260177e+00	9.797131e+00	1.255844e+01	1.137752e+01	1.380178e+01	1.238889e+00	3.049820e+00	4.033761e+00	-3.954770e+00	2.182772e+00	5.918285e+00	1.331492e-01	1.793091e+00	1.371014e+00	9.088194e+00	1.053650e+01	1.545300e+01	1.895400e+00	-1.825140e+00	-2.853446e+00	8.788882e+00	7.533909e+00	1.086512e+01	1.400282e+01	1.280794e+01	8.827215e+00	1.150263e+01	1.427939e+01	1.332811e+01	1.011376e+01	1.202402e+01	8.465000e+00	1.023758e+01	1.364213e+01	1.273138e+01	1.458895e+01	1.429395e+01	1.462879e+01	1.425962e+01	1.382187e+01	1.310885e+01	6.539874e+00	1.506971e+01	1.426496e+01	4.896278e+00	3.915042e+00	1.269951e+01	1.187314e+01	1.189627e+01	1.100467e+01	1.065184e+01	1.028589e+01	1.060173e+01	9.753617e+00	9.653256e+00	4.689759e+00	2.862868e+00	2.185862e+00	1.179746e+01	1.900639e+00	1.397444e+01	5.468657e+00	2.074211e+00	6.491967e+00	4.393297e+00	1.247360e+01	9.047422e+00	9.179457e+00	8.941992e+00	8.227024e+00	7.953092e+00	9.661531e+00	8.334579e-01	1.080597e+00	9.393527e-01	1.125976e+01	1.540921e+01	9.831121e+00	1.071247e+01	1.866690e+00	3.798151e+00	7.298071e+00	2.421632e+00	-7.095812e-01	-2.953533e-01	1.191320e+01	8.522701e+00	7.522529e+00	7.037869e+00	6.410557e+00	9.310809e+00	6.233228e+00	1.174011e+01	1.229799e+01	1.990183e+00	1.073751e+00	1.280539e+01	-2.664347e-01	-8.128956e-02	1.525123e+01	9.704299e+00	1.528319e+01	-1.592537e+00	-2.901406e+00	8.868554e+00	6.143331e+00	6.715947e+00	5.399679e+00	7.997818e+00	9.095642e+00	9.421934e+00	2.048506e+00	2.571543e+00	-1.802431e+00	5.472888e+00	1.492311e+01	-1.519217e+00	9.451473e-01	-8.134473e-01	2.403763e+00	8.107146e-01	1.010584e+01	9.057769e+00	5.307638e+00	1.002529e+01	1.116991e+01	1.125073e+01	1.076565e+01	1.087425e+01	1.039669e+01	4.432503e+00	1.238221e+01	1.319138e+01	1.111529e+01	1.319098e+01	1.283206e+01	1.379775e+01	1.007246e+01	3.295277e+00	1.210229e+01	6.989783e+00	-1.257752e+00	2.209716e-01	-7.681577e-01	1.061617e+01	9.372603e+00	1.554275e+01	7.807768e+00	1.529434e+01	1.447457e+01	1.003754e+01	1.213448e+00	1.324452e+00	-5.704000e+00	7.158810e+00	4.660494e+00	1.291437e+01	4.492766e+00	3.531933e+00	2.547084e+00	3.783034e+00	1.059840e+01	1.026492e+01	1.218016e+01	9.372072e+00	9.457257e+00	7.407154e+00	7.927808e+00	8.370626e+00	7.397445e+00	8.049506e+00	1.527462e+01	1.310906e+01	2.579537e+00	1.130967e+01	7.739332e+00	2.520914e+00	6.260102e+00	5.087390e+00	-4.732220e+00	-5.488861e+00	6.748355e+00	-4.647310e+00	-2.965918e+00	2.949758e+00	1.090000e+01	1.358769e+01	1.606995e+01	1.954118e+00	8.434687e+00	8.811962e+00	4.213169e+00	2.309570e+00	2.154599e+00	1.509914e+01	1.003037e+01	1.458346e+01	5.461543e+00	1.136240e+00	1.027406e+01	6.218434e+00	-3.482228e+00	1.425642e+01	6.652829e+00	5.491735e+00	1.988442e+00	9.146421e+00	2.212067e+00	4.465457e+00	1.955520e+00	2.572323e+00	1.649535e+00	2.366532e+00	7.389250e-01	3.743377e-01	3.770391e+00	-1.210673e+00	2.539338e+00	7.435266e+00	1.001462e+01	1.847416e-01	5.874013e+00	4.801947e+00	8.480172e+00	-4.619483e-01	5.965568e+00	2.451088e+00	8.533246e+00	-4.200358e-01	1.266171e+00	9.755872e+00	9.973852e+00	9.334299e+00	1.131460e+01	1.134712e+01	6.283843e+00	1.170587e+01	2.770181e+00	1.470917e+01	1.351405e+01	8.618715e+00	1.571361e+01	1.470968e+01	3.919358e+00	1.110970e+01	1.190866e+01	1.492847e+01	1.058329e+01	3.590172e+00	1.445641e+01	3.657314e+00	-2.883467e+00	1.483703e+01	-2.224624e+00	1.336534e+01	9.038445e+00	-3.307164e+00	1.370355e+01	1.012383e+01	2.673417e+00	8.411269e+00	-2.691556e+00	-2.808492e+00	8.948082e+00	6.904262e+00	7.379053e+00	1.226606e+01	8.416995e+00	1.013317e+01	1.138954e+01	1.036943e+01	4.573595e+00	6.572484e+00	3.361603e+00	8.703073e+00	-1.449935e-01	1.299018e+01	1.038855e+01	1.236857e+01	6.185758e+00	1.596338e+01	2.732654e+00	-3.445041e+00	-1.829600e+00	1.040160e+01	-1.913923e+00	1.099138e+01	1.261652e+01	7.156717e+00	8.699004e+00	9.640285e+00	9.970180e-01	1.819002e+00	9.032091e-01	-7.951145e-01	1.395769e+01	1.482369e+01	6.505872e+00	1.325029e+01	9.528442e+00	1.542478e+01	2.157732e+00	1.167140e+01	7.647337e+00	7.487189e+00	2.517688e+00	5.451946e+00	1.373823e+01	9.429135e+00	5.615104e+00	7.229661e+00	
SCALARS Y-Momentum float 1
LOOKUP_TABLE default
-1.828219e-02	4.372940e-01	5.165036e+00	-9.633670e-01	5.465731e-01	2.370500e-01	6.077192e-02	-1.206114e-02	1.448179e-02	4.095286e-02	5.617074e-02	7.245381e-02	6.025525e-02	1.039282e-02	-3.470354e-03	-1.423459e-04	6.988022e-03	6.213721e-03	1.226861e-02	1.504370e-02	2.367264e-03	3.055836e-02	1.374669e-02	8.491999e-03	-3.506091e-02	1.424617e+00	2.540879e+00	3.554434e+00	4.537048e+00	5.407302e+00	6.162511e+00	6.830390e+00	7.459195e+00	8.117234e+00	8.574644e+00	8.644763e+00	8.682679e+00	-2.778344e+00	9.211081e-01	1.677888e+00	2.402079e+00	2.987745e+00	3.377157e+00	3.609904e+00	3.653533e+00	3.520302e+00	3.234927e+00	2.794941e+00	2.239886e+00	1.470652e+00	-2.966346e-04	3.798131e-02	2.507548e-02	8.084637e-03	1.313513e-03	5.459283e-03	9.813879e-03	4.171462e-03	-3.947675e-02	-6.448157e-02	-1.025719e-01	-5.375628e-01	-4.996834e-01	9.356650e-03	6.967992e-01	8.906588e-01	5.119783e-01	1.028336e-02	-1.071258e-03	-1.070948e-02	-4.044451e-02	-2.661819e-02	-5.711482e-03	-5.639095e-03	1.647182e-03	-3.382990e-03	8.905129e+00	2.153094e+00	4.968134e-01	-2.041307e-01	3.221584e+00	6.552525e+00	9.088087e-01	4.218025e-01	3.715416e-01	3.450510e-01	4.187083e-01	8.266759e-01	2.994934e+00	4.492748e+00	1.043963e+00	6.041565e-01	2.783028e+00	7.713439e+00	2.172401e+00	2.786663e+00	-8.726175e-01	3.148518e-01	2.412577e-01	8.283662e-01	9.285181e-01	8.350399e-01	-6.404798e-01	2.413730e-01	-4.894581e-01	4.385979e-02	9.003450e-01	8.184512e-01	8.346438e-03	7.758171e-01	1.632116e+00	1.631355e+00	9.104857e-01	1.695689e+00	1.202200e+00	1.821579e+00	2.683795e+00	2.939873e+00	3.755125e+00	4.259585e+00	4.393935e+00	5.089102e+00	4.278625e+00	4.911518e+00	1.459242e+00	2.340603e+00	3.699773e+00	1.280759e+00	1.884662e+00	3.551627e+00	3.632101e+00	5.003376e+00	3.436072e+00	4.231635e+00	3.025520e+00	2.567424e+00	3.520793e+00	2.503386e+00	1.984194e+00	2.630710e+00	2.251176e+00	2.636146e+00	2.791686e+00	4.962983e+00	-5.149613e-03	2.378410e-01	1.154665e+00	9.723512e-01	2.518894e+00	2.707751e+00	1.984988e+00	3.794363e+00	2.572471e+00	3.546147e+00	1.835049e+00	2.148060e+00	1.698081e+00	2.398768e+00	6.109493e+00	2.011840e+00	5.121197e+00	4.412623e+00	1.834051e+00	1.874686e+00	1.898372e+00	2.846329e+00	1.436223e+00	9.219609e-01	7.805188e+00	4.901943e+00	4.566741e+00	3.336623e+00	4.213108e+00	1.433268e+00	1.884005e+00	1.851387e+00	1.651016e+00	2.976934e+00	2.503359e+00	6.773720e+00	1.927521e+00	2.071994e+00	2.354077e+00	1.319352e+00	1.872615e+00	1.445989e+00	6.185198e-01	1.445626e+00	2.948231e+00	2.407399e+00	3.414552e+00	6.348659e+00	6.532870e+00	9.206610e-01	2.928964e+00	3.278378e+00	1.331220e+00	4.553048e+00	3.301773e+00	3.126651e-01	3.282695e-01	-8.773620e-02	-2.005376e-01	-6.811732e-01	2.626552e+00	2.105905e+00	2.296712e+00	4.819169e+00	1.925106e+00	1.364842e+00	1.408532e+00	9.819043e-01	9.871837e-01	3.760498e+00	8.327469e+00	7.342524e+00	9.259831e+00	2.357587e+00	1.308304e+00	2.041528e+00	1.627753e+00	2.662847e+00	9.371843e-01	5.582689e+00	1.650452e+00	2.354348e+00	1.920233e+00	9.251426e+00	9.761724e+00	1.702106e+00	3.244066e-01	1.086491e+00	1.798717e+00	1.153930e+00	2.665715e+00	2.877813e+00	1.004451e-01	7.040401e+00	4.907512e+00	6.177389e-01	2.643773e+00	2.868188e+00	3.274120e+00	-9.343832e-01	6.002758e-01	5.784486e-01	3.324639e+00	4.403322e-01	1.874671e+00	6.254192e-01	1.085441e+00	8.314746e-01	1.415653e+00	1.715264e+00	1.430005e+00	5.971502e+00	3.426839e+00	7.982527e+00	8.051471e+00	2.948068e+00	6.499922e+00	1.151067e+00	4.884254e-01	3.153176e-01	7.659840e-01	-4.056001e-01	7.731467e-01	1.038679e+00	3.169934e-01	5.904412e+00	1.036487e+00	2.948713e+00	3.807842e-01	6.357502e-01	3.433153e-01	2.952134e+00	2.847908e+00	2.946591e+00	3.449947e-01	7.771902e-01	5.699606e+00	1.666034e+00	2.562177e-01	8.505552e+00	8.259881e-01	2.934796e+00	1.576940e+00	7.118281e+00	2.397445e+00	6.698455e-01	3.042830e+00	5.897538e+00	3.264442e+00	1.055820e+00	3.191497e+00	3.694590e+00	2.667393e+00	2.496606e+00	5.192536e+00	1.574107e+00	2.081717e+00	2.617305e+00	8.269060e+00	-9.098685e-01	1.936396e+00	-5.664632e-01	2.775285e+00	1.747589e+00	1.899887e+00	2.835959e+00	1.026087e+01	1.576529e+00	1.774795e+00	9.445125e-01	7.220740e-01	5.115819e+00	8.794788e-01	3.931102e+00	8.057397e-01	1.213251e+00	1.707191e+00	2.508524e+00	1.298464e+00	1.934493e+00	1.422030e+00	1.392790e+00	4.363552e+00	2.583450e+00	4.138726e-01	1.526571e+00	1.923310e+00	2.427680e+00	2.498044e+00	1.954559e+00	1.030358e+00	3.515961e+00	1.272149e+00	3.292017e+00	1.014516e+00	9.006863e-01	6.399471e+00	2.219774e+00	3.227386e+00	1.323768e+00	-4.190056e-01	-4.999206e-01	1.058757e-01	8.494271e+00	9.665391e+00	7.594042e+00	2.090058e+00	6.482443e+00	2.611383e+00	1.393264e+00	1.823941e+00	1.019104e+01	3.698462e+00	1.014586e+00	2.180332e+00	4.197075e+00	1.013243e-01	5.890306e-01	5.227765e+00	4.932898e-01	3.038171e+00	4.299455e-02	-7.376841e-01	4.220547e-01	1.182859e+00	6.387144e-01	6.593490e+00	2.015462e+00	8.254954e+00	5.875277e-01	2.791453e+00	2.994062e+00	8.175086e-01	8.391562e-01	5.866238e+00	3.880767e+00	7.608501e+00	3.540566e+00	4.241191e+00	1.437804e+00	3.025790e+00	7.278139e-01	2.045962e+00	-5.626048e-01	3.046329e+00	-1.100020e-01	3.086555e+00	7.444652e+00	6.365377e+00	1.600175e+00	
SCALARS Energy float 1
LOOKUP_TABLE default