# vtk DataFile Version 3.0
vtk output
ASCII
DATASET UNSTRUCTURED_GRID
POINTS 394 float
-3.000000e+00	0.000000e+00	0.0	-5.000000e-02	6.383581e-18	0.0	-4.267256e-02	9.996431e-01	0.0	5.735685e-02	1.000904e+00	0.0	5.000000e-02	-6.852856e-19	0.0	3.000000e+00	0.000000e+00	0.0	3.000000e+00	4.000000e+00	0.0	-3.000000e+00	4.000000e+00	0.0	-3.000000e+00	3.428571e+00	0.0	-3.000000e+00	2.857143e+00	0.0	-3.000000e+00	2.285714e+00	0.0	-3.000000e+00	1.714286e+00	0.0	-3.000000e+00	1.142857e+00	0.0	-3.000000e+00	5.714286e-01	0.0	-2.473871e+00	0.000000e+00	0.0	-2.029066e+00	0.000000e+00	0.0	-1.653013e+00	0.000000e+00	0.0	-1.335087e+00	0.000000e+00	0.0	-1.066302e+00	0.000000e+00	0.0	-8.390627e-01	0.000000e+00	0.0	-6.469477e-01	0.000000e+00	0.0	-4.845277e-01	0.000000e+00	0.0	-3.472127e-01	0.000000e+00	0.0	-2.311224e-01	0.000000e+00	0.0	-1.329760e-01	0.000000e+00	0.0	-4.915533e-02	7.763924e-02	0.0	-4.760120e-02	1.549844e-01	0.0	-4.565533e-02	2.320714e-01	0.0	-4.368173e-02	3.089489e-01	0.0	-4.194552e-02	3.856878e-01	0.0	-4.061073e-02	4.623541e-01	0.0	-3.974825e-02	5.389946e-01	0.0	-3.936503e-02	6.156363e-01	0.0	-3.945149e-02	6.923025e-01	0.0	-3.994295e-02	7.690266e-01	0.0	-4.074490e-02	8.458385e-01	0.0	-4.163550e-02	9.227272e-01	0.0	7.342361e-03	1.000311e+00	0.0	5.829225e-02	9.239502e-01	0.0	5.923400e-02	8.469303e-01	0.0	6.001834e-02	7.698369e-01	0.0	6.051764e-02	6.926617e-01	0.0	6.060330e-02	6.154334e-01	0.0	6.022356e-02	5.381848e-01	0.0	5.936007e-02	4.609369e-01	0.0	5.802957e-02	3.837194e-01	0.0	5.629952e-02	3.065822e-01	0.0	5.432431e-02	2.295849e-01	0.0	5.237958e-02	1.527877e-01	0.0	5.081422e-02	7.624153e-02	0.0	1.329760e-01	0.000000e+00	0.0	2.311224e-01	0.000000e+00	0.0	3.472127e-01	0.000000e+00	0.0	4.845277e-01	0.000000e+00	0.0	6.469477e-01	0.000000e+00	0.0	8.390627e-01	0.000000e+00	0.0	1.066302e+00	0.000000e+00	0.0	1.335087e+00	0.000000e+00	0.0	1.653013e+00	0.000000e+00	0.0	2.029066e+00	0.000000e+00	0.0	2.473871e+00	0.000000e+00	0.0	3.000000e+00	5.714286e-01	0.0	3.000000e+00	1.142857e+00	0.0	3.000000e+00	1.714286e+00	0.0	3.000000e+00	2.285714e+00	0.0	3.000000e+00	2.857143e+00	0.0	3.000000e+00	3.428571e+00	0.0	2.400000e+00	4.000000e+00	0.0	1.800000e+00	4.000000e+00	0.0	1.200000e+00	4.000000e+00	0.0	6.000000e-01	4.000000e+00	0.0	0.000000e+00	4.000000e+00	0.0	-6.000000e-01	4.000000e+00	0.0	-1.200000e+00	4.000000e+00	0.0	-1.800000e+00	4.000000e+00	0.0	-2.400000e+00	4.000000e+00	0.0	-1.095548e-01	8.878076e-01	0.0	1.209365e-01	8.883064e-01	0.0	-1.483859e+00	2.494192e-01	0.0	1.500259e+00	2.278351e-01	0.0	1.151376e-01	5.734187e-01	0.0	-1.166173e-01	5.769231e-01	0.0	-7.468484e-01	1.615795e-01	0.0	7.467660e-01	1.592205e-01	0.0	-2.588894e+00	2.076202e+00	0.0	2.516144e+00	1.947581e+00	0.0	-9.330139e-01	3.509250e+00	0.0	9.096046e-01	3.461623e+00	0.0	1.171758e-01	3.453095e-01	0.0	-1.176381e-01	3.461538e-01	0.0	-4.145464e-01	1.102721e-01	0.0	4.158702e-01	1.097277e-01	0.0	1.211039e-01	7.285624e-01	0.0	-1.166173e-01	7.307692e-01	0.0	1.217259e-01	1.951647e-01	0.0	-1.219004e-01	1.949409e-01	0.0	2.523336e+00	8.167529e-01	0.0	-2.505450e+00	7.859659e-01	0.0	-2.060813e+00	3.451225e+00	0.0	2.063561e+00	3.439799e+00	0.0	-1.839749e-01	7.462933e-02	0.0	1.839181e-01	7.485312e-02	0.0	2.223383e+00	3.988647e-01	0.0	-2.251469e+00	3.554420e-01	0.0	2.464585e+00	1.408185e+00	0.0	2.084360e+00	1.715536e+00	0.0	2.062368e+00	2.119428e+00	0.0	1.717456e+00	1.868364e+00	0.0	1.703162e+00	1.478255e+00	0.0	1.404436e+00	1.673942e+00	0.0	1.379059e+00	2.011826e+00	0.0	1.122275e+00	1.805700e+00	0.0	1.133471e+00	1.514067e+00	0.0	8.972874e-01	1.623762e+00	0.0	9.058741e-01	1.383676e+00	0.0	6.842001e-01	1.452796e+00	0.0	6.646868e-01	1.702928e+00	0.0	4.770905e-01	1.555424e+00	0.0	4.540791e-01	1.782960e+00	0.0	2.815546e-01	1.663644e+00	0.0	2.468385e-01	1.874145e+00	0.0	8.495255e-02	1.739613e+00	0.0	3.220584e-02	1.963777e+00	0.0	-1.420447e-01	1.783981e+00	0.0	7.288711e-01	1.245864e+00	0.0	1.077857e+00	2.136341e+00	0.0	2.551298e-01	2.138445e+00	0.0	8.954243e-01	1.142527e+00	0.0	7.229085e-01	1.059814e+00	0.0	-2.030321e-01	2.067609e+00	0.0	-4.089797e-01	1.894294e+00	0.0	-3.445145e-01	1.614442e+00	0.0	-6.150363e-01	1.721608e+00	0.0	-5.614456e-01	1.469073e+00	0.0	-8.152713e-01	1.551780e+00	0.0	-8.412690e-01	1.795758e+00	0.0	-7.621668e-01	1.289715e+00	0.0	-1.026166e+00	1.376679e+00	0.0	5.786315e-01	1.133181e+00	0.0	5.729769e-01	9.679372e-01	0.0	7.172900e-01	8.817742e-01	0.0	-4.706077e-01	2.183860e+00	0.0	5.679375e-01	7.985285e-01	0.0	1.228546e-01	1.518204e+00	0.0	2.279691e-02	1.047289e+00	0.0	8.320521e-02	1.041063e+00	0.0	5.033468e-02	1.101913e+00	0.0	1.219691e-01	1.104509e+00	0.0	-2.270250e-01	2.375087e+00	0.0	-9.617590e-01	1.108784e+00	0.0	-1.245187e+00	1.191051e+00	0.0	-7.079931e-01	1.027579e+00	0.0	-9.221295e-01	8.266544e-01	0.0	-6.775202e-01	7.984572e-01	0.0	-1.312202e+00	1.494832e+00	0.0	7.101723e-01	7.094472e-01	0.0	8.684597e-01	7.881516e-01	0.0	5.583553e-01	6.419675e-01	0.0	-3.558236e-01	1.362627e+00	0.0	1.348529e+00	2.364476e+00	0.0	-2.630234e-02	1.090302e+00	0.0	1.117829e-02	1.167717e+00	0.0	1.571133e-01	1.029943e+00	0.0	2.071370e-01	1.104065e+00	0.0	1.597519e-01	1.182734e+00	0.0	2.496705e-01	1.015521e+00	0.0	8.544827e-01	6.108496e-01	0.0	1.047555e+00	6.998655e-01	0.0	-7.847310e-02	1.158033e+00	0.0	-5.171348e-01	9.204152e-01	0.0	-4.863658e-01	7.410581e-01	0.0	-6.210221e-01	6.162069e-01	0.0	-4.304165e-01	5.790980e-01	0.0	-1.561645e+00	1.283922e+00	0.0	2.721982e-01	1.192937e+00	0.0	-5.279951e-01	2.507900e+00	0.0	-2.485216e-01	2.731250e+00	0.0	4.318698e-01	7.203270e-01	0.0	4.233758e-01	5.725091e-01	0.0	-3.335265e-02	1.251950e+00	0.0	5.424962e-01	4.927149e-01	0.0	4.112126e-01	4.303540e-01	0.0	1.018241e+00	2.500118e+00	0.0	-1.633552e+00	1.628891e+00	0.0	1.309393e+00	2.745135e+00	0.0	5.177841e-01	3.509866e-01	0.0	1.029850e+00	4.328609e-01	0.0	-1.477416e+00	9.899497e-01	0.0	-5.601504e-01	4.553761e-01	0.0	-7.270539e-01	4.819428e-01	0.0	-4.090902e-01	4.203457e-01	0.0	-3.522791e-01	8.700653e-01	0.0	-3.889332e-01	1.027066e+00	0.0	-1.995353e+00	1.406583e+00	0.0	3.058598e-01	6.525576e-01	0.0	3.242700e-01	7.890326e-01	0.0	6.642582e-01	4.078662e-01	0.0	-3.050955e-01	5.085933e-01	0.0	6.073747e-01	1.962519e+00	0.0	1.224429e+00	6.011520e-01	0.0	1.250184e+00	8.250911e-01	0.0	1.457536e+00	6.770896e-01	0.0	1.491338e+00	9.566090e-01	0.0	1.773625e+00	8.129378e-01	0.0	2.073828e-01	1.286702e+00	0.0	3.329952e-01	1.291810e+00	0.0	-5.121868e-01	3.061387e-01	0.0	-5.380612e-01	1.261514e+00	0.0	-7.924608e-01	2.286933e+00	0.0	-8.696866e-01	2.652326e+00	0.0	-1.158131e+00	2.423026e+00	0.0	-1.242246e+00	2.799469e+00	0.0	-1.611716e+00	2.457963e+00	0.0	-2.704602e-01	3.766037e-01	0.0	-1.427840e-01	1.240183e+00	0.0	-1.014268e-01	1.353312e+00	0.0	-1.763546e-01	1.137806e+00	0.0	8.783725e-02	2.565590e+00	0.0	1.029681e-01	3.019180e+00	0.0	4.272249e-01	2.781426e+00	0.0	-1.361638e+00	1.838642e+00	0.0	4.419215e-01	1.044947e+00	0.0	-3.108847e-01	3.147482e+00	0.0	-3.376796e-01	7.131312e-01	0.0	3.905654e-01	2.971765e-01	0.0	2.782915e-01	3.728023e-01	0.0	2.712444e-01	2.590314e-01	0.0	-1.115764e-01	1.077712e+00	0.0	-1.918797e-01	1.038577e+00	0.0	1.672005e+00	2.603574e+00	0.0	1.351136e+00	1.368437e+00	0.0	2.442785e+00	2.509530e+00	0.0	8.886710e-01	2.913113e+00	0.0	-1.697169e+00	2.000053e+00	0.0	2.897750e-01	5.099332e-01	0.0	1.971068e-01	4.461399e-01	0.0	1.204570e+00	2.088856e-01	0.0	-2.509004e-01	7.997219e-01	0.0	-2.031816e-01	4.612449e-01	0.0	3.587496e-01	3.516320e+00	0.0	-3.683082e-01	2.897439e-01	0.0	-2.513200e-01	2.632515e-01	0.0	4.269022e-01	8.903973e-01	0.0	2.109340e+00	1.080852e+00	0.0	-1.676617e+00	3.018022e+00	0.0	-2.026846e+00	2.666903e+00	0.0	2.607158e-01	1.407890e+00	0.0	-2.493719e+00	1.295472e+00	0.0	5.091525e-01	1.363902e+00	0.0	-1.195527e+00	2.199189e-01	0.0	-1.314128e+00	4.697507e-01	0.0	-1.599290e+00	5.224038e-01	0.0	-1.044962e+00	4.332833e-01	0.0	-1.153999e+00	6.810762e-01	0.0	1.631869e+00	3.047538e+00	0.0	-1.479044e-01	1.589819e+00	0.0	3.069713e-01	9.091070e-01	0.0	-2.594272e-01	1.222158e+00	0.0	-2.468802e-01	8.922655e-01	0.0	2.148670e-01	8.375987e-01	0.0	-2.166457e-01	6.824956e-01	0.0	-5.613393e-01	1.604002e-01	0.0	5.664728e-01	1.255855e-01	0.0	9.638304e-01	2.045637e-01	0.0	-9.533785e-01	1.895011e-01	0.0	1.826954e+00	2.785964e-01	0.0	2.921698e-01	9.086346e-02	0.0	-2.840612e-01	9.229685e-02	0.0	-1.490751e+00	3.525634e+00	0.0	2.972107e-02	1.367432e+00	0.0	2.519001e+00	3.105668e+00	0.0	2.275446e-01	5.821961e-01	0.0	-1.832465e+00	2.953506e-01	0.0	-1.977202e+00	6.768975e-01	0.0	1.295565e+00	1.090381e+00	0.0	2.060326e-01	6.790669e-01	0.0	1.924197e-01	9.403358e-01	0.0	7.418665e-01	2.245468e+00	0.0	-2.532269e+00	2.524420e+00	0.0	1.437226e+00	3.516627e+00	0.0	-2.189186e-01	5.745803e-01	0.0	1.089458e-01	9.704541e-01	0.0	-2.461547e+00	3.076565e+00	0.0	-1.130174e-01	8.082243e-01	0.0	8.204452e-01	3.206647e-01	0.0	4.156693e-01	2.424846e+00	0.0	-8.275684e-01	3.222250e-01	0.0	-1.166173e-01	6.538462e-01	0.0	1.240439e-01	8.065138e-01	0.0	-2.154304e+00	1.044185e+00	0.0	1.166173e-01	6.538462e-01	0.0	-1.258892e-01	5.059709e-01	0.0	1.175714e-01	4.975748e-01	0.0	1.048701e+00	9.459876e-01	0.0	1.186418e-01	4.187835e-01	0.0	-1.166173e-01	2.692308e-01	0.0	1.166173e-01	2.692308e-01	0.0	1.911633e-01	3.076923e-01	0.0	-1.230149e-01	4.240231e-01	0.0	2.168732e-01	1.650969e-01	0.0	-2.130153e-01	1.684055e-01	0.0	-8.055871e-01	6.334177e-01	0.0	-2.811060e-01	1.101705e+00	0.0	2.114262e+00	7.400841e-01	0.0	4.281373e-01	1.193306e+00	0.0	1.771809e+00	1.153906e+00	0.0	-2.500000e-02	1.043301e+00	0.0	6.913395e-01	5.556832e-01	0.0	-6.558579e-01	3.146104e-01	0.0	1.873560e-01	7.692308e-01	0.0	-1.213880e-01	1.006983e+00	0.0	1.155948e-01	1.153846e-01	0.0	-1.169921e-01	1.167516e-01	0.0	-1.947655e+00	1.778423e+00	0.0	-2.086024e+00	2.166615e+00	0.0	-5.187853e-01	1.093553e+00	0.0	-9.145482e-01	3.061229e+00	0.0	6.700572e-02	1.250202e+00	0.0	1.105028e+00	1.240846e+00	0.0	-5.835849e-01	2.893561e+00	0.0	8.505567e-01	9.636509e-01	0.0	6.983346e-01	2.572994e+00	0.0	5.374437e-01	3.138332e+00	0.0	-1.194511e+00	9.174719e-01	0.0	2.057508e+00	2.866260e+00	0.0	1.249515e+0
[...]
POINT_DATA 394

SCALARS Density float 1
LOOKUP_TABLE default
1.223757e+00	1.223972e+00	1.222560e+00	1.222333e+00	1.223561e+00	1.223804e+00	1.223243e+00	1.223612e+00	1.223593e+00	1.223609e+00	1.223658e+00	1.223690e+00	1.223769e+00	1.223775e+00	1.223787e+00	1.223767e+00	1.223803e+00	1.223827e+00	1.223865e+00	1.223889e+00	1.223914e+00	1.223952e+00	1.223934e+00	1.223992e+00	1.223932e+00	1.224003e+00	1.223935e+00	1.223952e+00	1.223955e+00	1.223944e+00	1.223939e+00	1.223902e+00	1.223906e+00	1.223812e+00	1.223910e+00	1.223084e+00	1.224973e+00	1.220555e+00	1.223962e+00	1.223501e+00	1.223576e+00	1.223490e+00	1.223438e+00	1.223404e+00	1.223405e+00	1.223415e+00	1.223446e+00	1.223481e+00	1.223424e+00	1.223663e+00	1.223432e+00	1.223548e+00	1.223459e+00	1.223388e+00	1.223341e+00	1.223310e+00	1.223216e+00	1.223270e+00	1.223267e+00	1.223396e+00	1.222928e+00	1.223523e+00	1.223189e+00	1.222979e+00	1.222851e+00	1.222944e+00	1.223083e+00	1.223102e+00	1.223222e+00	1.223264e+00	1.223351e+00	1.223411e+00	1.223496e+00	1.223555e+00	1.223592e+00	1.223595e+00	1.223565e+00	1.223672e+00	1.223814e+00	1.223205e+00	1.223456e+00	1.223870e+00	1.223872e+00	1.223311e+00	1.223657e+00	1.223300e+00	1.223527e+00	1.223304e+00	1.223447e+00	1.223928e+00	1.223934e+00	1.223430e+00	1.223576e+00	1.223734e+00	1.223541e+00	1.223957e+00	1.223057e+00	1.223760e+00	1.223617e+00	1.223108e+00	1.223962e+00	1.223527e+00	1.223314e+00	1.223754e+00	1.222987e+00	1.222980e+00	1.223129e+00	1.223116e+00	1.223078e+00	1.223056e+00	1.223040e+00	1.223263e+00	1.222961e+00	1.222977e+00	1.223008e+00	1.223171e+00	1.222926e+00	1.223214e+00	1.223145e+00	1.223253e+00	1.223204e+00	1.223248e+00	1.223472e+00	1.223353e+00	1.223196e+00	1.223024e+00	1.223272e+00	1.222983e+00	1.223203e+00	1.223436e+00	1.223534e+00	1.223554e+00	1.223499e+00	1.223650e+00	1.223702e+00	1.223598e+00	1.223702e+00	1.223682e+00	1.223284e+00	1.223277e+00	1.223315e+00	1.223554e+00	1.223357e+00	1.223246e+00	1.222537e+00	1.222368e+00	1.222806e+00	1.223134e+00	1.223428e+00	1.223745e+00	1.223744e+00	1.223804e+00	1.223794e+00	1.223823e+00	1.223701e+00	1.223245e+00	1.223085e+00	1.223342e+00	1.223556e+00	1.223197e+00	1.222243e+00	1.223176e+00	1.223253e+00	1.223127e+00	1.222878e+00	1.223342e+00	1.223254e+00	1.223164e+00	1.223043e+00	1.223786e+00	1.223790e+00	1.223855e+00	1.223846e+00	1.223705e+00	1.223005e+00	1.223508e+00	1.223485e+00	1.223467e+00	1.223394e+00	1.223140e+00	1.223335e+00	1.223390e+00	1.223270e+00	1.223687e+00	1.223143e+00	1.223436e+00	1.223093e+00	1.223765e+00	1.223885e+00	1.223897e+00	1.223917e+00	1.223817e+00	1.223694e+00	1.223722e+00	1.223432e+00	1.223462e+00	1.223276e+00	1.223938e+00	1.223332e+00	1.223051e+00	1.223180e+00	1.222960e+00	1.222967e+00	1.223058e+00	1.223018e+00	1.222996e+00	1.223962e+00	1.223631e+00	1.223551e+00	1.223537e+00	1.223607e+00	1.223577e+00	1.223647e+00	1.223923e+00	1.223222e+00	1.223473e+00	1.223496e+00	1.223363e+00	1.223386e+00	1.223411e+00	1.223654e+00	1.223214e+00	1.223414e+00	1.223896e+00	1.223397e+00	1.223419e+00	1.223446e+00	1.223654e+00	1.223018e+00	1.223080e+00	1.222940e+00	1.223305e+00	1.223291e+00	1.223671e+00	1.223455e+00	1.223390e+00	1.223037e+00	1.223820e+00	1.223969e+00	1.223407e+00	1.223901e+00	1.223955e+00	1.223341e+00	1.222979e+00	1.223571e+00	1.223608e+00	1.222764e+00	1.223704e+00	1.223133e+00	1.223845e+00	1.223879e+00	1.223743e+00	1.223843e+00	1.223790e+00	1.223259e+00	1.223516e+00	1.223426e+00	1.223431e+00	1.223756e+00	1.223592e+00	1.223872e+00	1.223952e+00	1.223379e+00	1.223266e+00	1.223875e+00	1.223019e+00	1.223544e+00	1.223980e+00	1.223565e+00	1.223109e+00	1.223156e+00	1.223491e+00	1.223807e+00	1.223748e+00	1.223038e+00	1.223459e+00	1.223325e+00	1.223217e+00	1.223651e+00	1.223228e+00	1.223849e+00	1.223414e+00	1.223635e+00	1.223963e+00	1.223257e+00	1.223338e+00	1.223876e+00	1.223913e+00	1.223603e+00	1.223722e+00	1.223518e+00	1.223899e+00	1.223437e+00	1.223108e+00	1.223446e+00	1.223949e+00	1.223465e+00	1.223431e+00	1.223899e+00	1.223410e+00	1.223974e+00	1.223861e+00	1.223674e+00	1.223018e+00	1.223136e+00	1.223324e+00	1.223024e+00	1.223319e+00	1.223946e+00	1.223460e+00	1.223537e+00	1.223471e+00	1.223951e+00	1.223668e+00	1.223670e+00	1.223738e+00	1.223532e+00	1.222884e+00	1.223139e+00	1.223486e+00	1.223101e+00	1.223238e+00	1.223294e+00	1.223821e+00	1.223303e+00	1.223231e+00	1.223964e+00	1.223600e+00	1.223518e+00	1.223070e+00	1.223596e+00	1.223224e+00	1.223182e+00	1.223907e+00	1.223339e+00	1.223351e+00	1.223399e+00	1.223375e+00	1.223787e+00	1.223278e+00	1.223316e+00	1.223661e+00	1.223288e+00	1.223776e+00	1.223345e+00	1.222528e+00	1.223801e+00	1.223825e+00	1.223498e+00	1.223461e+00	1.222919e+00	1.223678e+00	1.223170e+00	1.223631e+00	1.223901e+00	1.224869e+00	1.223964e+00	1.223777e+00	1.223399e+00	1.223298e+00	1.223576e+00	1.223433e+00	1.223903e+00	1.223030e+00	1.223959e+00	1.223189e+00	1.223111e+00	1.223607e+00	1.223209e+00	1.223594e+00	1.223339e+00	1.223854e+00	1.223876e+00	1.223723e+00	1.223378e+00	1.223379e+00	1.223979e+00	1.223603e+00	1.223486e+00	1.223139e+00	1.223698e+00	1.222935e+00	1.223503e+00	1.223160e+00	1.223410e+00	1.223491e+00	1.223809e+00	1.223019e+00	1.223512e+00	1.222837e+00	1.223321e+00	1.223022e+00	1.223792e+00	1.223032e+00	
SCALARS X-Momentum float 1
LOOKUP_TABLE default
7.898847e+00	2.137413e-01	3.989937e+00	1.262478e-01	-6.431221e-01	-5.212174e+00	1.641721e+01	1.001796e+01	9.844963e+00	9.583216e+00	9.261397e+00	8.886174e+00	8.514320e+00	8.148256e+00	7.706113e+00	7.342466e+00	6.795520e+00	6.123211e+00	5.379738e+00	4.568995e+00	3.719744e+00	2.941175e+00	2.131022e+00	1.394404e+00	7.272095e-01	-2.722976e-02	2.104787e-02	7.929805e-02	1.072771e-01	1.236243e-01	1.292451e-01	1.270388e-01	1.061208e-01	7.957580e-02	-3.617917e-03	-4.406463e-02	-3.942562e-01	3.785177e+00	2.378947e-01	5.570438e-02	8.243534e-02	7.895071e-02	1.063680e-01	1.398363e-01	1.531837e-01	1.518822e-01	1.507717e-01	1.165532e-01	9.846118e-02	1.014118e-01	-1.987689e+00	-3.573015e+00	-4.941056e+00	-6.215356e+00	-7.278117e+00	-8.063689e+00	-8.642463e+00	-8.908736e+00	-8.391305e+00	-7.547808e+00	-6.712618e+00	-1.522160e+00	3.886803e+00	9.394239e+00	1.357939e+01	1.580163e+01	1.647914e+01	1.578539e+01	1.489992e+01	1.391340e+01	1.306771e+01	1.233621e+01	1.165869e+01	1.104127e+01	1.053260e+01	1.018662e+01	4.644845e-01	7.556119e-01	6.639841e+00	-6.109027e+00	1.514191e-01	8.799482e-01	4.302415e+00	-5.914630e+00	9.156812e+00	1.207056e+01	1.114369e+01	1.388835e+01	-2.609352e-01	7.422288e-01	2.514344e+00	-4.432185e+00	4.226829e-01	8.808828e-01	-6.476940e-01	5.992587e-01	6.078554e-01	8.153687e+00	1.013961e+01	1.563518e+01	9.871448e-01	-2.118353e+00	-3.500713e+00	7.735931e+00	6.917443e+00	1.065605e+01	1.385594e+01	1.276535e+01	8.860646e+00	1.163476e+01	1.426473e+01	1.336268e+01	1.037659e+01	1.210098e+01	8.878260e+00	1.039317e+01	1.329850e+01	1.221197e+01	1.385882e+01	1.325745e+01	1.374333e+01	1.307146e+01	1.295681e+01	1.199623e+01	7.070754e+00	1.494443e+01	1.365698e+01	5.394872e+00	4.221960e+00	1.195942e+01	1.097816e+01	1.057003e+01	9.949372e+00	9.202877e+00	9.096992e+00	9.675092e+00	8.137537e+00	8.432778e+00	5.122312e+00	2.779949e+00	1.956613e+00	1.116006e+01	1.068792e+00	1.251240e+01	4.552996e+00	2.341419e+00	5.821500e+00	4.407129e+00	1.197214e+01	7.543467e+00	7.991319e+00	6.888269e+00	6.489941e+00	5.675643e+00	8.676104e+00	7.919065e-02	8.385145e-01	-3.193714e-01	9.374812e+00	1.536585e+01	7.600350e+00	8.768982e+00	2.054722e+00	4.055234e+00	6.876418e+00	2.340775e+00	-1.326700e+00	-5.659016e-01	9.203881e+00	5.717002e+00	4.526280e+00	4.709783e+00	3.508010e+00	8.315342e+00	6.376154e+00	1.127274e+01	1.196087e+01	5.295223e-01	-5.001162e-01	1.050390e+01	-1.557249e+00	-1.476580e+00	1.513899e+01	8.867216e+00	1.528667e+01	-2.679305e+00	-3.484090e+00	7.710785e+00	3.950427e+00	4.777207e+00	2.978411e+00	4.258940e+00	5.973407e+00	8.563956e+00	2.742450e-01	1.017895e+00	-2.813816e+00	2.441693e+00	1.443400e+01	-1.875087e+00	8.725859e-01	-1.084642e+00	2.361868e+00	5.235466e-01	9.324549e+00	8.873608e+00	3.346527e+00	8.097409e+00	1.056977e+01	1.079559e+01	1.019891e+01	1.041813e+01	9.826394e+00	1.961462e+00	9.879666e+00	1.108995e+01	8.050508e+00	1.282445e+01	1.266153e+01	1.362237e+01	9.272844e+00	3.469586e+00	1.189005e+01	3.264775e+00	-2.331561e+00	-1.159955e+00	-1.754125e+00	7.278502e+00	5.518936e+00	1.555713e+01	8.072082e+00	1.511395e+01	1.444220e+01	9.336921e+00	-4.765719e-01	-3.997286e-01	-6.345748e+00	2.692379e+00	1.608078e+00	1.292484e+01	2.488734e+00	1.640274e+00	1.750791e+00	3.463530e+00	1.015303e+01	9.736105e+00	1.119725e+01	8.556835e+00	9.498553e+00	5.957766e+00	6.533405e+00	7.139108e+00	5.805387e+00	6.549002e+00	1.536657e+01	1.166031e+01	1.608038e+00	8.771010e+00	3.141797e+00	1.037522e+00	1.970529e+00	3.399583e+00	-5.323482e+00	-6.125369e+00	5.169889e+00	-5.203140e+00	-3.343117e+00	1.688221e+00	1.057993e+01	1.163899e+01	1.613548e+01	7.439455e-02	7.258848e+00	7.745246e+00	4.399893e+00	4.444603e-01	1.349980e+00	1.479227e+01	9.466898e+00	1.474840e+01	1.775731e+00	7.909764e-01	9.796990e+00	8.043891e-01	-4.247903e+00	1.390029e+01	4.917579e+00	9.027534e-01	5.510743e-01	8.214547e+00	2.750820e-01	9.288433e-01	4.639295e-03	2.758966e+00	-1.272024e-01	6.519479e-01	-4.160319e-01	-8.824750e-01	8.479486e-01	-1.843967e+00	1.205336e+00	5.505621e+00	6.872301e+00	-2.374770e-01	6.269314e+00	4.729021e+00	6.552179e+00	-1.485205e+00	4.113445e+00	7.334744e-01	4.307272e+00	-8.489217e-01	5.196160e-01	9.011948e+00	9.335257e+00	6.928868e+00	1.096891e+01	9.754086e+00	6.671642e+00	1.136968e+01	2.954624e+00	1.452556e+01	1.347143e+01	7.245169e+00	1.576288e+01	1.478387e+01	1.332094e+00	1.032476e+01	1.178700e+01	1.489323e+01	9.839255e+00	3.904436e+00	1.424682e+01	2.040746e+00	-3.680542e+00	1.435747e+01	-2.939266e+00	1.276686e+01	8.022124e+00	-4.141238e+00	1.196192e+01	9.161952e+00	2.425257e+00	7.114582e+00	-3.125761e+00	-3.718462e+00	7.947357e+00	1.729131e+00	2.581072e+00	1.012006e+01	7.342791e+00	7.672713e+00	1.087994e+01	9.707294e+00	2.815924e+00	1.364379e+00	1.244538e+00	7.558520e+00	-1.097638e+00	1.145085e+01	9.973823e+00	1.228754e+01	2.649261e+00	1.618179e+01	1.070165e+00	-3.951328e+00	-2.289595e+00	9.937069e+00	-2.724839e+00	1.062542e+01	1.086655e+01	5.384057e+00	4.764633e+00	8.914022e+00	-5.545318e-01	-6.454890e-02	4.308538e-01	-9.792456e-01	1.251952e+01	1.418242e+01	1.610254e+00	1.230200e+01	7.519596e+00	1.538295e+01	2.183358e-01	1.142940e+01	5.948731e+00	7.300100e+00	7.550772e-01	5.590116e+00	1.326766e+01	6.814212e+00	1.432831e+00	7.696520e+00	
SCALARS Y-Momentum float 1
LOOKUP_TABLE default
-2.602081e-02	2.103714e-01	7.461289e+00	3.917607e-01	6.202546e-01	2.230782e-01	6.230415e-02	-1.392739e-02	2.388662e-02	5.595628e-02	7.906464e-02	1.029796e-01	9.088622e-02	2.466652e-02	-4.152017e-03	2.715599e-04	5.273355e-03	2.979378e-03	8.839769e-03	1.018302e-02	-9.255620e-03	1.355896e-03	-2.662690e-03	6.710420e-03	-1.681621e-02	6.621954e-01	1.186520e+00	1.744328e+00	2.385568e+00	3.068402e+00	3.774442e+00	4.502517e+00	5.275521e+00	6.130613e+00	6.923196e+00	7.365905e+00	8.216504e+00	-3.273581e-01	2.790407e+00	3.716629e+00	4.484871e+00	4.989870e+00	5.280352e+00	5.374943e+00	5.243268e+00	4.897725e+00	4.383268e+00	3.686741e+00	2.835902e+00	1.762769e+00	-6.900795e-03	2.495114e-02	2.934446e-02	1.295891e-02	1.107415e-02	2.364460e-02	2.442187e-02	1.566429e-03	-5.716944e-02	-7.677193e-02	-9.587352e-02	-5.196173e-01	-6.167736e-01	-3.026900e-01	3.248753e-01	6.235538e-01	4.087246e-01	1.709043e-02	6.745695e-03	-3.204228e-03	-3.717836e-02	-2.326583e-02	-2.656882e-03	-4.927162e-03	5.132751e-03	-1.277121e-03	8.211848e+00	3.870335e+00	5.121262e-01	-2.713882e-01	5.068800e+00	4.702241e+00	7.110538e-01	6.682055e-01	4.623909e-01	8.369392e-02	5.354271e-01	8.545042e-01	4.263324e+00	2.619018e+00	6.626557e-01	9.486566e-01	4.758528e+00	6.254721e+00	2.940855e+00	1.437593e+00	-8.635808e-01	3.873727e-01	3.124729e-01	7.824081e-01	4.985198e-01	1.076434e+00	-6.443982e-01	2.884022e-01	-6.072272e-01	-3.846611e-02	7.463559e-01	8.765391e-01	1.366908e-01	1.108035e+00	1.815179e+00	2.133448e+00	1.503275e+00	2.512586e+00	2.034747e+00	3.006458e+00	3.583614e+00	4.165445e+00	4.496899e+00	5.121859e+00	4.878186e+00	5.594760e+00	4.660183e+00	5.354134e+00	2.428433e+00	2.601792e+00	4.036657e+00	1.842821e+00	2.471670e+00	3.959020e+00	4.118098e+00	5.537938e+00	3.973660e+00	4.813133e+00	3.519386e+00	3.054467e+00	3.973632e+00	2.881557e+00	2.899419e+00	3.192714e+00	2.648291e+00	3.070175e+00	3.387073e+00	5.831112e+00	1.533374e+00	1.818379e+00	2.999062e+00	2.788656e+00	2.868555e+00	2.974034e+00	2.257373e+00	4.052180e+00	2.679181e+00	3.546432e+00	2.159203e+00	2.614153e+00	1.914925e+00	3.231903e+00	6.740552e+00	2.063567e+00	6.099103e+00	5.696137e+00	3.107209e+00	3.404558e+00	3.771402e+00	3.809101e+00	1.707515e+00	9.669565e-01	8.539293e+00	5.062122e+00	4.329319e+00	3.052556e+00	3.544095e+00	1.680336e+00	3.596608e+00	2.212800e+00	1.933924e+00	4.000749e+00	3.716023e+00	7.525261e+00	2.854596e+00	3.231168e+00	2.460212e+00	1.577064e+00	1.864746e+00	2.286235e+00	7.264320e-01	1.648865e+00	2.433639e+00	2.116507e+00	2.566320e+00	6.314212e+00	7.009695e+00	1.107019e+00	4.431942e+00	4.472621e+00	1.961043e+00	3.406584e+00	3.843026e+00	2.489360e-01	3.373816e-01	-1.849475e-01	-2.134213e-01	-7.271592e-01	4.356536e+00	3.802199e+00	1.722363e+00	5.415660e+00	2.333688e+00	1.680237e+00	1.739489e+00	1.225435e+00	1.222239e+00	2.529262e+00	8.872758e+00	7.908510e+00	9.823346e+00	2.617047e+00	1.488797e+00	2.199201e+00	1.959096e+00	3.484771e+00	1.136586e+00	4.970195e+00	2.571037e+00	3.573748e+00	2.823776e+00	9.910517e+00	1.025497e+01	1.625758e+00	6.322306e-01	8.486166e-01	1.858579e+00	1.406424e+00	4.146651e+00	4.398249e+00	1.132756e-01	6.464133e+00	3.378614e+00	6.931182e-01	1.812752e+00	1.761642e+00	3.987616e+00	-9.144162e-01	7.562978e-01	7.167665e-01	4.744202e+00	5.447451e-01	3.381935e+00	5.968768e-01	1.109890e+00	9.068891e-01	1.343874e+00	1.779458e+00	1.375710e+00	6.448026e+00	4.321478e+00	8.631435e+00	7.927210e+00	4.465119e+00	5.353671e+00	8.196089e-01	8.071919e-01	4.636811e-01	6.681532e-01	-4.765817e-01	1.090377e+00	6.061297e-01	4.071880e-01	6.729111e+00	9.027089e-01	4.669766e+00	4.243836e-01	7.382101e-01	5.021678e-01	4.783452e+00	3.985294e+00	3.226765e+00	4.320408e-01	7.644362e-01	4.275891e+00	2.994180e+00	3.248332e-01	7.264188e+00	1.171961e+00	3.173752e+00	1.352181e+00	5.423492e+00	4.354978e+00	8.058199e-01	4.990914e+00	3.991364e+00	4.955475e+00	1.245405e+00	4.675692e+00	2.009197e+00	3.692816e+00	3.614088e+00	3.263898e+00	2.192775e+00	1.161950e+00	2.521683e+00	8.925831e+00	-9.260102e-01	3.278829e+00	-5.258069e-01	4.368134e+00	2.356596e+00	1.514283e+00	4.661927e+00	1.066012e+01	2.026329e+00	8.900493e-01	1.146346e+00	8.890269e-01	5.570651e+00	1.099335e+00	5.356948e+00	1.248506e+00	1.487519e+00	2.038990e+00	2.644929e+00	1.401973e+00	2.115321e+00	1.298889e+00	1.378118e+00	2.781520e+00	3.073932e+00	5.216939e-01	1.486349e+00	2.329868e+00	3.584135e+00	3.066957e+00	1.222124e+00	1.659522e+00	3.855298e+00	1.924460e+00	3.618185e+00	1.196258e+00	1.436210e+00	6.951767e+00	2.631580e+00	3.968689e+00	1.445229e+00	-5.191506e-01	-4.710924e-01	1.325805e-01	7.790921e+00	9.569830e+00	8.177030e+00	3.890291e+00	7.155510e+00	4.124581e+00	1.707600e+00	1.237282e+00	1.002266e+01	2.217063e+00	1.155587e+00	3.079655e+00	5.475838e+00	1.332806e-01	7.065073e-01	4.244420e+00	4.529420e-01	1.704899e+00	-5.419106e-02	-8.067596e-01	5.317300e-01	1.572454e+00	8.106660e-01	7.134165e+00	1.858606e+00	8.652547e+00	7.201501e-01	4.139001e+00	4.722464e+00	4.094112e-01	1.022752e+00	6.352688e+00	4.343610e+00	6.566105e+00	4.774532e+00	4.698460e+00	1.279254e+00	4.890337e+00	9.174684e-01	2.022252e+00	-5.363099e-01	4.659460e+00	2.485108e-03	3.362504e+00	8.704813e+00	4.866595e+00	2.864893e+00	
SCALARS Energy float 1
LOOKUP_TABLE default