# vtk DataFile Version 3.0
vtk output
ASCII
DATASET UNSTRUCTURED_GRID
POINTS 394 float
-3.000000e+00	0.000000e+00	0.0	-5.000000e-02	1.476449e-17	0.0	7.174918e-02	1.009018e+00	0.0	1.717915e-01	9.917537e-01	0.0	5.000000e-02	-2.061266e-18	0.0	3.000000e+00	0.000000e+00	0.0	3.000000e+00	4.000000e+00	0.0	-3.000000e+00	4.000000e+00	0.0	-3.000000e+00	3.428571e+00	0.0	-3.000000e+00	2.857143e+00	0.0	-3.000000e+00	2.285714e+00	0.0	-3.000000e+00	1.714286e+00	0.0	-3.000000e+00	1.142857e+00	0.0	-3.000000e+00	5.714286e-01	0.0	-2.473871e+00	0.000000e+00	0.0	-2.029066e+00	0.000000e+00	0.0	-1.653013e+00	0.000000e+00	0.0	-1.335087e+00	0.000000e+00	0.0	-1.066302e+00	0.000000e+00	0.0	-8.390627e-01	0.000000e+00	0.0	-6.469477e-01	0.000000e+00	0.0	-4.845277e-01	0.000000e+00	0.0	-3.472127e-01	0.000000e+00	0.0	-2.311224e-01	0.000000e+00	0.0	-1.329760e-01	0.000000e+00	0.0	-4.834998e-02	7.858373e-02	0.0	-4.463885e-02	1.569018e-01	0.0	-3.907790e-02	2.349661e-01	0.0	-3.201183e-02	3.128487e-01	0.0	-2.366179e-02	3.906033e-01	0.0	-1.417977e-02	4.682569e-01	0.0	-3.699209e-03	5.458114e-01	0.0	7.633882e-03	6.232621e-01	0.0	1.966622e-02	7.006132e-01	0.0	3.225914e-02	7.778657e-01	0.0	4.524099e-02	8.550204e-01	0.0	5.851316e-02	9.320609e-01	0.0	1.217683e-01	1.000424e+00	0.0	1.584543e-01	9.148454e-01	0.0	1.452337e-01	8.379993e-01	0.0	1.322366e-01	7.612679e-01	0.0	1.196456e-01	6.846391e-01	0.0	1.076098e-01	6.081047e-01	0.0	9.627328e-02	5.316618e-01	0.0	8.578762e-02	4.553112e-01	0.0	7.630166e-02	3.790472e-01	0.0	6.794944e-02	3.028737e-01	0.0	6.088424e-02	2.268223e-01	0.0	5.532977e-02	1.509514e-01	0.0	5.159783e-02	7.533164e-02	0.0	1.329760e-01	0.000000e+00	0.0	2.311224e-01	0.000000e+00	0.0	3.472127e-01	0.000000e+00	0.0	4.845277e-01	0.000000e+00	0.0	6.469477e-01	0.000000e+00	0.0	8.390627e-01	0.000000e+00	0.0	1.066302e+00	0.000000e+00	0.0	1.335087e+00	0.000000e+00	0.0	1.653013e+00	0.000000e+00	0.0	2.029066e+00	0.000000e+00	0.0	2.473871e+00	0.000000e+00	0.0	3.000000e+00	5.714286e-01	0.0	3.000000e+00	1.142857e+00	0.0	3.000000e+00	1.714286e+00	0.0	3.000000e+00	2.285714e+00	0.0	3.000000e+00	2.857143e+00	0.0	3.000000e+00	3.428571e+00	0.0	2.400000e+00	4.000000e+00	0.0	1.800000e+00	4.000000e+00	0.0	1.200000e+00	4.000000e+00	0.0	6.000000e-01	4.000000e+00	0.0	0.000000e+00	4.000000e+00	0.0	-6.000000e-01	4.000000e+00	0.0	-1.200000e+00	4.000000e+00	0.0	-1.800000e+00	4.000000e+00	0.0	-2.400000e+00	4.000000e+00	0.0	-3.366965e-02	9.011234e-01	0.0	1.993421e-01	8.747916e-01	0.0	-1.478371e+00	2.592479e-01	0.0	1.507395e+00	2.178672e-01	0.0	1.465055e-01	5.635694e-01	0.0	-8.389013e-02	5.885959e-01	0.0	-7.420942e-01	1.705698e-01	0.0	7.526448e-01	1.494510e-01	0.0	-2.576416e+00	2.083085e+00	0.0	2.535674e+00	1.935946e+00	0.0	-9.063700e-01	3.511885e+00	0.0	9.396275e-01	3.455537e+00	0.0	1.276084e-01	3.395083e-01	0.0	-1.066273e-01	3.526162e-01	0.0	-4.121486e-01	1.159222e-01	0.0	4.188837e-01	1.044791e-01	0.0	1.738181e-01	7.162127e-01	0.0	-6.372985e-02	7.444380e-01	0.0	1.252906e-01	1.917005e-01	0.0	-1.181029e-01	1.987586e-01	0.0	2.531549e+00	8.032850e-01	0.0	-2.498117e+00	7.952585e-01	0.0	-2.048396e+00	3.456284e+00	0.0	2.077828e+00	3.433577e+00	0.0	-1.831498e-01	7.659690e-02	0.0	1.847990e-01	7.300831e-02	0.0	2.230296e+00	3.874340e-01	0.0	-2.247738e+00	3.620947e-01	0.0	2.484216e+00	1.392058e+00	0.0	2.116407e+00	1.694519e+00	0.0	2.097057e+00	2.103087e+00	0.0	1.761591e+00	1.846254e+00	0.0	1.742652e+00	1.451165e+00	0.0	1.457882e+00	1.647400e+00	0.0	1.434068e+00	1.989899e+00	0.0	1.186852e+00	1.781188e+00	0.0	1.194616e+00	1.485894e+00	0.0	9.692142e-01	1.598877e+00	0.0	9.741941e-01	1.355059e+00	0.0	7.644533e-01	1.427442e+00	0.0	7.463272e-01	1.683402e+00	0.0	5.674475e-01	1.537636e+00	0.0	5.410237e-01	1.769372e+00	0.0	3.750221e-01	1.652167e+00	0.0	3.361561e-01	1.865123e+00	0.0	1.801205e-01	1.735983e+00	0.0	1.211104e-01	1.960291e+00	0.0	-4.709033e-02	1.786509e+00	0.0	8.019805e-01	1.217900e+00	0.0	1.141074e+00	2.116319e+00	0.0	3.378728e-01	2.130289e+00	0.0	9.566030e-01	1.111307e+00	0.0	7.869607e-01	1.031307e+00	0.0	-1.193409e-01	2.069541e+00	0.0	-3.257317e-01	1.904218e+00	0.0	-2.503582e-01	1.626594e+00	0.0	-5.375682e-01	1.740149e+00	0.0	-4.794481e-01	1.492758e+00	0.0	-7.456388e-01	1.575334e+00	0.0	-7.718870e-01	1.816267e+00	0.0	-6.924683e-01	1.320216e+00	0.0	-9.690389e-01	1.403685e+00	0.0	6.536392e-01	1.108126e+00	0.0	6.387913e-01	9.416430e-01	0.0	7.705925e-01	8.538082e-01	0.0	-3.951428e-01	2.192390e+00	0.0	6.197071e-01	7.721632e-01	0.0	2.215940e-01	1.512832e+00	0.0	1.231213e-01	1.048174e+00	0.0	1.833209e-01	1.033784e+00	0.0	1.512532e-01	1.100106e+00	0.0	2.208726e-01	1.097272e+00	0.0	-1.516238e-01	2.377825e+00	0.0	-9.109950e-01	1.137594e+00	0.0	-1.203369e+00	1.217930e+00	0.0	-6.459224e-01	1.058697e+00	0.0	-8.884791e-01	8.557533e-01	0.0	-6.350981e-01	8.291565e-01	0.0	-1.264438e+00	1.519835e+00	0.0	7.507864e-01	6.826569e-01	0.0	9.112317e-01	7.587476e-01	0.0	5.965412e-01	6.175086e-01	0.0	-2.621161e-01	1.381604e+00	0.0	1.400715e+00	2.346721e+00	0.0	7.468251e-02	1.096434e+00	0.0	1.126960e-01	1.168964e+00	0.0	2.512884e-01	1.018188e+00	0.0	3.017664e-01	1.091409e+00	0.0	2.588667e-01	1.173991e+00	0.0	3.363355e-01	9.988613e-01	0.0	8.855657e-01	5.837993e-01	0.0	1.081058e+00	6.723342e-01	0.0	2.111739e-02	1.166568e+00	0.0	-4.547501e-01	9.505907e-01	0.0	-4.415595e-01	7.706814e-01	0.0	-5.917009e-01	6.415563e-01	0.0	-4.005751e-01	6.049784e-01	0.0	-1.526886e+00	1.308873e+00	0.0	3.659448e-01	1.178607e+00	0.0	-4.627444e-01	2.515024e+00	0.0	-1.864728e-01	2.735152e+00	0.0	4.800468e-01	6.950011e-01	0.0	4.567664e-01	5.508123e-01	0.0	6.788916e-02	1.256116e+00	0.0	5.684105e-01	4.722386e-01	0.0	4.317869e-01	4.136500e-01	0.0	1.077525e+00	2.485418e+00	0.0	-1.594404e+00	1.650375e+00	0.0	1.355525e+00	2.730928e+00	0.0	5.333363e-01	3.353935e-01	0.0	1.048252e+00	4.110787e-01	0.0	-1.449605e+00	1.014605e+00	0.0	-5.417468e-01	4.753056e-01	0.0	-7.076408e-01	5.030214e-01	0.0	-3.923969e-01	4.384186e-01	0.0	-2.865522e-01	8.990824e-01	0.0	-3.111314e-01	1.053512e+00	0.0	-1.969469e+00	1.425514e+00	0.0	3.484377e-01	6.291238e-01	0.0	3.826949e-01	7.645657e-01	0.0	6.841111e-01	3.885892e-01	0.0	-2.799430e-01	5.289758e-01	0.0	6.891774e-01	1.948423e+00	0.0	1.250022e+00	5.773118e-01	0.0	1.284285e+00	7.971322e-01	0.0	1.481667e+00	6.529382e-01	0.0	1.525660e+00	9.293748e-01	0.0	1.795841e+00	7.903604e-01	0.0	3.044523e-01	1.276262e+00	0.0	4.257228e-01	1.276508e+00	0.0	-5.027358e-01	3.200202e-01	0.0	-4.592048e-01	1.289795e+00	0.0	-7.272955e-01	2.299306e+00	0.0	-8.164295e-01	2.661000e+00	0.0	-1.106469e+00	2.436335e+00	0.0	-1.200059e+00	2.807086e+00	0.0	-1.571952e+00	2.472166e+00	0.0	-2.575050e-01	3.906661e-01	0.0	-4.450882e-02	1.251268e+00	0.0	-1.618616e-03	1.360680e+00	0.0	-8.136263e-02	1.152941e+00	0.0	1.613464e-01	2.561306e+00	0.0	1.551509e-01	3.017778e+00	0.0	4.892417e-01	2.773775e+00	0.0	-1.312186e+00	1.859808e+00	0.0	5.203620e-01	1.020977e+00	0.0	-2.678429e-01	3.152093e+00	0.0	-2.916528e-01	7.404854e-01	0.0	4.013949e-01	2.856570e-01	0.0	2.916488e-01	3.596316e-01	0.0	2.784160e-01	2.503201e-01	0.0	-1.531133e-02	1.090253e+00	0.0	-1.029780e-01	1.056435e+00	0.0	1.712076e+00	2.588107e+00	0.0	1.400643e+00	1.338974e+00	0.0	2.464607e+00	2.500646e+00	0.0	9.398498e-01	2.902489e+00	0.0	-1.657947e+00	2.019349e+00	0.0	3.157141e-01	4.905236e-01	0.0	2.158795e-01	4.336409e-01	0.0	1.211904e+00	1.987656e-01	0.0	-1.903438e-01	8.240190e-01	0.0	-1.831992e-01	4.751566e-01	0.0	3.888747e-01	3.515531e+00	0.0	-3.598559e-01	3.013218e-01	0.0	-2.446940e-01	2.723000e-01	0.0	4.944200e-01	8.651271e-01	0.0	2.132388e+00	1.058559e+00	0.0	-1.649835e+00	3.024520e+00	0.0	-2.002318e+00	2.674757e+00	0.0	3.564718e-01	1.396100e+00	0.0	-2.480901e+00	1.307723e+00	0.0	5.950774e-01	1.343021e+00	0.0	-1.190226e+00	2.299910e-01	0.0	-1.300727e+00	4.877791e-01	0.0	-1.586728e+00	5.397471e-01	0.0	-1.030797e+00	4.543351e-01	0.0	-1.131777e+00	7.062462e-01	0.0	1.665609e+00	3.036829e+00	0.0	-4.955618e-02	1.595243e+00	0.0	3.805712e-01	8.882519e-01	0.0	-1.653672e-01	1.239717e+00	0.0	-1.754802e-01	9.157625e-01	0.0	2.816503e-01	8.179929e-01	0.0	-1.720223e-01	7.032135e-01	0.0	-5.577474e-01	1.698134e-01	0.0	5.705211e-01	1.185576e-01	0.0	9.713406e-01	1.924469e-01	0.0	-9.486787e-01	1.998093e-01	0.0	1.833949e+00	2.679434e-01	0.0	2.940694e-01	8.757878e-02	0.0	-2.825608e-01	9.585252e-02	0.0	-1.471969e+00	3.528906e+00	0.0	1.303831e-01	1.367057e+00	0.0	2.530607e+00	3.101680e+00	0.0	2.609990e-01	5.640799e-01	0.0	-1.827783e+00	3.046189e-01	0.0	-1.964351e+00	6.940956e-01	0.0	1.338724e+00	1.061607e+00	0.0	2.517082e-01	6.613278e-01	0.0	2.757116e-01	9.241146e-01	0.0	8.154203e-01	2.232054e+00	0.0	-2.520229e+00	2.530703e+00	0.0	1.459968e+00	3.510770e+00	0.0	-1.863928e-01	5.932765e-01	0.0	2.019762e-01	9.589043e-01	0.0	-2.449776e+00	3.079116e+00	0.0	-4.914261e-02	8.217443e-01	0.0	8.344790e-01	3.029556e-01	0.0	4.911595e-01	2.416421e+00	0.0	-8.168581e-01	3.385715e-01	0.0	-7.486345e-02	6.665096e-01	0.0	1.884749e-01	7.933038e-01	0.0	-2.137477e+00	1.061352e+00	0.0	1.583097e-01	6.428298e-01	0.0	-1.012883e-01	5.169721e-01	0.0	1.404641e-01	4.887748e-01	0.0	1.094780e+00	9.147160e-01	0.0	1.342086e-01	4.116200e-01	0.0	-1.098160e-01	2.741241e-01	0.0	1.229512e-01	2.648566e-01	0.0	2.001081e-01	2.996300e-01	0.0	-1.062311e-01	4.325021e-01	0.0	2.202483e-01	1.601222e-01	0.0	-2.097776e-01	1.737379e-01	0.0	-7.801017e-01	6.587255e-01	0.0	-1.932433e-01	1.123122e+00	0.0	2.128349e+00	7.214160e-01	0.0	5.137254e-01	1.172602e+00	0.0	1.804599e+00	1.127615e+00	0.0	7.426080e-02	1.049910e+00	0.0	7.208654e-01	5.321646e-01	0.0	-6.453271e-01	3.301470e-01	0.0	2.455452e-01	7.520408e-01	0.0	-3.119623e-02	1.020244e+00	0.0	1.168991e-01	1.137051e-01	0.0	-1.155646e-01	1.186722e-01	0.0	-1.916217e+00	1.796461e+00	0.0	-2.059059e+00	2.181414e+00	0.0	-4.446194e-01	1.121590e+00	0.0	-8.742796e-01	3.066068e+00	0.0	1.687741e-01	1.247902e+00	0.0	1.160894e+00	1.210916e+00	0.0	-5.337770e-01	2.899079e+00	0.0	9.045188e-01	9.331358e-01	0.0	7.636364e-01	2.561851e+00	0.0	5.843752e-01	3.132975e+00	0.0	-1.163014e+00	9.439535e-01	0.0	2.085041e+00	2.854570e+00	0.0	1.286145e+00	3.131185
[...]
POINT_DATA 394

SCALARS Density float 1
LOOKUP_TABLE default
1.223749e+00	1.223947e+00	1.222244e+00	1.222043e+00	1.223542e+00	1.223760e+00	1.223255e+00	1.223611e+00	1.223593e+00	1.223607e+00	1.223654e+00	1.223684e+00	1.223759e+00	1.223764e+00	1.223773e+00	1.223753e+00	1.223785e+00	1.223806e+00	1.223842e+00	1.223865e+00	1.223887e+00	1.223930e+00	1.223908e+00	1.223976e+00	1.223900e+00	1.223989e+00	1.223902e+00	1.223918e+00	1.223916e+00	1.223898e+00	1.223883e+00	1.223841e+00	1.223835e+00	1.223750e+00	1.223830e+00	1.223050e+00	1.224819e+00	1.220560e+00	1.223888e+00	1.223496e+00	1.223529e+00	1.223481e+00	1.223438e+00	1.223413e+00	1.223416e+00	1.223421e+00	1.223444e+00	1.223475e+00	1.223414e+00	1.223631e+00	1.223416e+00	1.223520e+00	1.223440e+00	1.223375e+00	1.223331e+00	1.223301e+00	1.223209e+00	1.223249e+00	1.223243e+00	1.223368e+00	1.222899e+00	1.223488e+00	1.223174e+00	1.222970e+00	1.222849e+00	1.222944e+00	1.223082e+00	1.223108e+00	1.223235e+00	1.223279e+00	1.223366e+00	1.223423e+00	1.223503e+00	1.223558e+00	1.223593e+00	1.223595e+00	1.223307e+00	1.223743e+00	1.223794e+00	1.223185e+00	1.223461e+00	1.223791e+00	1.223850e+00	1.223295e+00	1.223651e+00	1.223304e+00	1.223530e+00	1.223311e+00	1.223447e+00	1.223878e+00	1.223910e+00	1.223410e+00	1.223571e+00	1.223632e+00	1.223530e+00	1.223922e+00	1.223048e+00	1.223748e+00	1.223617e+00	1.223114e+00	1.223941e+00	1.223502e+00	1.223290e+00	1.223741e+00	1.222984e+00	1.222966e+00	1.223127e+00	1.223125e+00	1.223085e+00	1.223064e+00	1.223050e+00	1.223287e+00	1.222957e+00	1.222989e+00	1.223035e+00	1.223185e+00	1.222939e+00	1.223215e+00	1.223168e+00	1.223271e+00	1.223210e+00	1.223257e+00	1.223471e+00	1.223355e+00	1.223169e+00	1.223043e+00	1.223279e+00	1.222988e+00	1.223184e+00	1.223436e+00	1.223529e+00	1.223546e+00	1.223490e+00	1.223631e+00	1.223688e+00	1.223588e+00	1.223679e+00	1.223665e+00	1.223277e+00	1.223261e+00	1.223304e+00	1.223550e+00	1.223339e+00	1.223252e+00	1.222244e+00	1.222169e+00	1.222874e+00	1.223068e+00	1.223431e+00	1.223726e+00	1.223725e+00	1.223775e+00	1.223775e+00	1.223794e+00	1.223687e+00	1.223231e+00	1.223073e+00	1.223334e+00	1.223553e+00	1.223207e+00	1.221974e+00	1.223275e+00	1.223137e+00	1.223054e+00	1.222841e+00	1.223272e+00	1.223244e+00	1.223159e+00	1.223179e+00	1.223751e+00	1.223764e+00	1.223823e+00	1.223805e+00	1.223696e+00	1.222960e+00	1.223505e+00	1.223487e+00	1.223449e+00	1.223379e+00	1.223152e+00	1.223328e+00	1.223380e+00	1.223285e+00	1.223676e+00	1.223153e+00	1.223420e+00	1.223096e+00	1.223750e+00	1.223849e+00	1.223870e+00	1.223907e+00	1.223759e+00	1.223660e+00	1.223712e+00	1.223421e+00	1.223480e+00	1.223266e+00	1.223883e+00	1.223348e+00	1.223039e+00	1.223177e+00	1.222956e+00	1.222949e+00	1.223054e+00	1.223020e+00	1.222996e+00	1.223924e+00	1.223597e+00	1.223551e+00	1.223537e+00	1.223602e+00	1.223578e+00	1.223642e+00	1.223872e+00	1.223213e+00	1.223498e+00	1.223496e+00	1.223370e+00	1.223391e+00	1.223411e+00	1.223646e+00	1.223174e+00	1.223421e+00	1.223854e+00	1.223381e+00	1.223408e+00	1.223442e+00	1.223723e+00	1.223099e+00	1.223097e+00	1.222941e+00	1.223306e+00	1.223307e+00	1.223664e+00	1.223454e+00	1.223373e+00	1.223028e+00	1.223711e+00	1.223957e+00	1.223414e+00	1.223878e+00	1.223920e+00	1.223307e+00	1.222950e+00	1.223571e+00	1.223608e+00	1.222784e+00	1.223694e+00	1.223117e+00	1.223825e+00	1.223856e+00	1.223726e+00	1.223821e+00	1.223765e+00	1.223274e+00	1.223514e+00	1.223359e+00	1.223454e+00	1.223706e+00	1.223555e+00	1.223844e+00	1.223933e+00	1.223363e+00	1.223255e+00	1.223854e+00	1.223006e+00	1.223523e+00	1.223958e+00	1.223568e+00	1.223129e+00	1.223165e+00	1.223489e+00	1.223792e+00	1.223736e+00	1.223046e+00	1.223446e+00	1.223257e+00	1.223227e+00	1.223649e+00	1.223240e+00	1.223802e+00	1.223306e+00	1.223634e+00	1.223969e+00	1.223250e+00	1.223350e+00	1.223843e+00	1.223840e+00	1.223535e+00	1.223711e+00	1.223516e+00	1.223830e+00	1.223443e+00	1.223106e+00	1.223455e+00	1.223908e+00	1.223463e+00	1.223413e+00	1.223837e+00	1.223388e+00	1.223949e+00	1.223822e+00	1.223648e+00	1.222988e+00	1.223135e+00	1.223311e+00	1.224464e+00	1.223307e+00	1.223918e+00	1.223448e+00	1.223480e+00	1.223454e+00	1.223923e+00	1.223660e+00	1.223663e+00	1.223705e+00	1.223534e+00	1.222869e+00	1.223139e+00	1.223491e+00	1.223090e+00	1.223251e+00	1.223310e+00	1.223798e+00	1.223310e+00	1.223242e+00	1.223937e+00	1.223592e+00	1.223524e+00	1.223087e+00	1.223590e+00	1.223176e+00	1.223192e+00	1.223880e+00	1.223331e+00	1.223368e+00	1.223384e+00	1.223377e+00	1.223769e+00	1.223270e+00	1.223319e+00	1.223652e+00	1.223238e+00	1.223758e+00	1.223325e+00	1.222495e+00	1.223786e+00	1.223822e+00	1.223436e+00	1.223460e+00	1.222843e+00	1.223649e+00	1.223190e+00	1.223624e+00	1.223861e+00	1.224938e+00	1.223931e+00	1.223759e+00	1.223380e+00	1.223312e+00	1.223579e+00	1.223440e+00	1.223838e+00	1.223038e+00	1.223937e+00	1.223173e+00	1.223082e+00	1.223602e+00	1.223189e+00	1.223593e+00	1.223346e+00	1.223826e+00	1.223816e+00	1.223715e+00	1.223372e+00	1.223375e+00	1.223952e+00	1.223586e+00	1.223498e+00	1.223152e+00	1.223664e+00	1.222930e+00	1.223478e+00	1.223165e+00	1.223403e+00	1.223493e+00	1.223783e+00	1.223006e+00	1.223496e+00	1.222828e+00	1.223327e+00	1.223105e+00	1.223760e+00	1.223026e+00	
SCALARS X-Momentum float 1
LOOKUP_TABLE default
8.081692e+00	2.585410e-01	4.939942e+00	6.190944e-01	-6.021751e-01	-5.084251e+00	1.647766e+01	1.001195e+01	9.853145e+00	9.612280e+00	9.317513e+00	8.974669e+00	8.638859e+00	8.307173e+00	7.902984e+00	7.560741e+00	7.045754e+00	6.403429e+00	5.688057e+00	4.895814e+00	4.046118e+00	3.253833e+00	2.400892e+00	1.603438e+00	8.551108e-01	-1.514250e-02	7.936087e-02	2.129649e-01	3.443104e-01	4.968457e-01	6.698372e-01	8.593538e-01	1.072343e+00	1.298740e+00	1.477964e+00	1.530783e+00	1.384489e+00	4.672641e+00	8.468700e-01	7.794967e-01	8.814497e-01	8.845205e-01	8.638550e-01	8.159380e-01	7.151836e-01	5.827630e-01	4.520963e-01	3.048681e-01	1.920101e-01	1.259976e-01	-1.881285e+00	-3.406107e+00	-4.731293e+00	-5.969759e+00	-7.008691e+00	-7.787299e+00	-8.364194e+00	-8.652915e+00	-8.189820e+00	-7.385099e+00	-6.574753e+00	-1.397042e+00	3.996972e+00	9.475736e+00	1.363459e+01	1.584962e+01	1.653613e+01	1.581903e+01	1.490341e+01	1.387875e+01	1.300295e+01	1.225509e+01	1.158114e+01	1.098294e+01	1.049581e+01	1.016866e+01	2.121067e+00	1.421286e+00	6.906661e+00	-5.924213e+00	8.497449e-01	1.780789e+00	4.660980e+00	-5.631437e+00	9.226870e+00	1.203018e+01	1.109921e+01	1.383242e+01	1.309758e-01	1.131053e+00	2.837202e+00	-4.171004e+00	1.216065e+00	2.199989e+00	-4.455009e-01	7.909656e-01	6.481825e-01	8.314481e+00	1.013417e+01	1.562871e+01	1.169507e+00	-1.957956e+00	-3.412062e+00	7.929871e+00	6.885205e+00	1.052530e+01	1.374149e+01	1.258326e+01	8.683808e+00	1.139347e+01	1.405757e+01	1.310317e+01	1.011500e+01	1.181715e+01	8.625136e+00	1.012373e+01	1.305699e+01	1.200457e+01	1.369619e+01	1.314447e+01	1.365304e+01	1.303880e+01	1.292700e+01	1.202084e+01	6.873985e+00	1.475166e+01	1.358626e+01	5.254583e+00	4.202091e+00	1.196417e+01	1.102955e+01	1.068001e+01	1.006275e+01	9.402823e+00	9.270728e+00	9.784363e+00	8.427227e+00	8.641887e+00	5.061255e+00	2.940864e+00	2.122784e+00	1.118185e+01	1.429564e+00	1.249511e+01	5.426327e+00	2.642755e+00	6.198425e+00	4.580854e+00	1.195976e+01	7.838978e+00	8.211378e+00	7.319679e+00	6.864162e+00	6.194532e+00	8.834653e+00	3.757726e-01	9.716052e-01	1.232608e-01	9.619038e+00	1.522116e+01	8.164144e+00	9.127954e+00	2.247029e+00	4.121822e+00	6.959772e+00	2.580144e+00	-1.094236e+00	-4.515527e-01	9.652250e+00	6.367770e+00	5.245582e+00	5.246853e+00	4.183432e+00	8.487240e+00	6.319131e+00	1.127056e+01	1.193128e+01	1.083784e+00	3.459476e-02	1.076932e+01	-1.132687e+00	-1.024693e+00	1.502155e+01	8.990716e+00	1.519985e+01	-2.310445e+00	-3.270329e+00	7.931360e+00	4.442714e+00	5.211598e+00	3.506337e+00	5.215299e+00	6.693506e+00	8.699367e+00	9.353295e-01	1.665277e+00	-2.471354e+00	3.105626e+00	1.426313e+01	-1.753237e+00	8.920055e-01	-1.021427e+00	2.313252e+00	5.277114e-01	9.304033e+00	8.732099e+00	3.770973e+00	8.436158e+00	1.060145e+01	1.079776e+01	1.023217e+01	1.042449e+01	9.867264e+00	2.459310e+00	1.019079e+01	1.126880e+01	8.577750e+00	1.278468e+01	1.260853e+01	1.355794e+01	9.376432e+00	3.569994e+00	1.184290e+01	4.197668e+00	-1.969108e+00	-7.294617e-01	-1.434055e+00	7.945346e+00	6.418652e+00	1.546389e+01	7.862091e+00	1.508409e+01	1.436954e+01	9.418379e+00	8.614115e-02	1.327860e-01	-6.111068e+00	3.882136e+00	2.235941e+00	1.285835e+01	2.907707e+00	2.003408e+00	2.149104e+00	3.409556e+00	1.015933e+01	9.767849e+00	1.110975e+01	8.682714e+00	9.275835e+00	6.262866e+00	6.822982e+00	7.383347e+00	6.148669e+00	6.866172e+00	1.531535e+01	1.172669e+01	2.108126e+00	9.159081e+00	4.395148e+00	1.753696e+00	3.051040e+00	3.763970e+00	-5.038468e+00	-5.864700e+00	5.510294e+00	-5.069511e+00	-3.122836e+00	1.950484e+00	1.055447e+01	1.175723e+01	1.614353e+01	7.465752e-01	7.487404e+00	7.943431e+00	4.293650e+00	1.192946e+00	1.848803e+00	1.465341e+01	9.511359e+00	1.471528e+01	2.610229e+00	1.181559e+00	9.814385e+00	2.327148e+00	-3.965537e+00	1.382502e+01	5.296875e+00	2.005476e+00	1.322450e+00	8.374479e+00	1.039256e+00	1.636525e+00	6.119435e-01	2.727169e+00	3.744433e-01	9.262549e-01	-1.263660e-01	-5.218633e-01	1.382329e+00	-1.615480e+00	1.457563e+00	5.939019e+00	7.519193e+00	-2.256300e-01	6.157416e+00	4.625574e+00	7.276778e+00	-1.135149e+00	4.520508e+00	1.516084e+00	5.367001e+00	-7.202701e-01	6.471743e-01	9.111277e+00	9.401843e+00	7.431128e+00	1.094743e+01	9.929555e+00	6.488757e+00	1.134472e+01	2.965894e+00	1.443526e+01	1.340835e+01	7.522601e+00	1.571960e+01	1.472626e+01	1.830659e+00	1.038940e+01	1.172396e+01	1.474901e+01	9.914431e+00	3.949952e+00	1.401245e+01	2.370790e+00	-3.367449e+00	1.424616e+01	-2.654860e+00	1.273855e+01	8.205041e+00	-3.826764e+00	1.204082e+01	9.297725e+00	2.684056e+00	7.376089e+00	-3.019795e+00	-3.614208e+00	8.126018e+00	3.211801e+00	3.955216e+00	1.035522e+01	7.628452e+00	8.128707e+00	1.069939e+01	9.771135e+00	3.187476e+00	2.940872e+00	1.632693e+00	7.778409e+00	-8.175275e-01	1.147663e+01	9.973336e+00	1.222338e+01	3.484984e+00	1.621246e+01	1.367753e+00	-3.786770e+00	-2.222963e+00	9.949803e+00	-2.440982e+00	1.060975e+01	1.100734e+01	5.775679e+00	5.761693e+00	9.010694e+00	-1.048909e-01	5.678822e-01	5.214376e-01	-8.952048e-01	1.254111e+01	1.405771e+01	2.947586e+00	1.216397e+01	7.910252e+00	1.529613e+01	9.305445e-01	1.138612e+01	6.320936e+00	7.178690e+00	1.497594e+00	5.444946e+00	1.322112e+01	7.219978e+00	2.443618e+00	7.484268e+00	
SCALARS Y-Momentum float 1
LOOKUP_TABLE default
-2.359255e-02	2.543653e-01	6.798847e+00	-4.270340e-01	5.793839e-01	2.226094e-01	6.661378e-02	-1.332320e-02	2.058262e-02	5.034796e-02	7.112826e-02	9.313709e-02	8.120769e-02	2.002785e-02	-3.915954e-03	1.530130e-04	5.795179e-03	3.706268e-03	9.466577e-03	1.106039e-02	-8.687660e-03	4.644899e-03	-1.409569e-03	6.776864e-03	-2.038704e-02	8.042069e-01	1.444835e+00	2.118481e+00	2.877604e+00	3.670027e+00	4.460175e+00	5.249953e+00	6.055613e+00	6.920778e+00	7.659138e+00	8.005644e+00	8.516641e+00	-8.299577e-01	2.003232e+00	2.985851e+00	3.812889e+00	4.389768e+00	4.722576e+00	4.852969e+00	4.756116e+00	4.449794e+00	3.988386e+00	3.363477e+00	2.600991e+00	1.631076e+00	-4.364230e-03	2.701367e-02	2.879926e-02	1.179690e-02	9.035720e-03	1.929781e-02	2.104015e-02	2.219581e-03	-5.324660e-02	-7.376027e-02	-9.759130e-02	-5.010555e-01	-5.473689e-01	-1.854653e-01	4.513578e-01	7.155904e-01	4.490664e-01	1.540309e-02	5.852289e-03	-2.215403e-03	-3.696021e-02	-2.316453e-02	-2.060628e-03	-4.659878e-03	4.278322e-03	-1.765967e-03	8.476428e+00	3.330254e+00	5.047677e-01	-2.284486e-01	4.538688e+00	5.304470e+00	7.473054e-01	6.247771e-01	4.351877e-01	2.165044e-01	5.151558e-01	8.900986e-01	3.870439e+00	3.068454e+00	7.317657e-01	8.710726e-01	4.184073e+00	6.804870e+00	2.688987e+00	1.705058e+00	-7.971375e-01	3.661081e-01	2.945216e-01	8.267899e-01	5.777948e-01	9.992230e-01	-5.978392e-01	2.749163e-01	-4.916840e-01	9.716172e-02	8.744666e-01	1.000800e+00	2.691292e-01	1.213674e+00	1.913266e+00	2.190016e+00	1.577045e+00	2.515549e+00	2.061321e+00	2.928917e+00	3.509591e+00	3.997766e+00	4.387218e+00	4.952825e+00	4.785108e+00	5.455811e+00	4.581195e+00	5.222324e+00	2.417420e+00	2.664583e+00	3.997863e+00	1.904432e+00	2.503263e+00	3.878350e+00	3.997425e+00	5.354354e+00	3.823273e+00	4.611550e+00	3.369522e+00	2.926405e+00	3.806040e+00	2.760254e+00	2.869269e+00	3.181764e+00	2.658546e+00	2.984226e+00	3.315221e+00	5.610078e+00	1.428167e+00	1.303020e+00	2.674586e+00	2.357474e+00	2.819591e+00	2.870078e+00	2.168073e+00	3.919327e+00	2.618926e+00	3.499059e+00	2.062691e+00	2.566087e+00	1.952382e+00	3.076764e+00	6.463410e+00	2.159343e+00	6.154511e+00	5.447255e+00	2.742390e+00	3.079647e+00	3.380275e+00	3.613185e+00	1.697305e+00	1.034370e+00	8.300583e+00	4.933815e+00	4.348204e+00	3.093897e+00	3.700700e+00	1.605283e+00	3.293177e+00	2.151447e+00	1.905670e+00	3.795517e+00	3.437776e+00	7.289695e+00	2.658537e+00	2.952528e+00	2.528351e+00	1.502235e+00	1.949750e+00	2.103047e+00	7.430190e-01	1.584322e+00	2.539268e+00	2.164825e+00	2.758837e+00	6.235472e+00	6.728699e+00	1.051924e+00	4.058396e+00	4.221113e+00	1.841697e+00	3.704830e+00	3.801915e+00	3.356811e-01	4.507292e-01	-7.026810e-02	-7.203906e-02	-6.072308e-01	4.011739e+00	3.536786e+00	1.837649e+00	5.170738e+00	2.246797e+00	1.617024e+00	1.661893e+00	1.170364e+00	1.161722e+00	2.816950e+00	8.583848e+00	7.643465e+00	9.480555e+00	2.609872e+00	1.493319e+00	2.228363e+00	1.867663e+00	3.417573e+00	1.118405e+00	5.125570e+00	2.347752e+00	3.244276e+00	2.576998e+00	9.663920e+00	9.887425e+00	1.727715e+00	7.555547e-01	9.607621e-01	1.917060e+00	1.336362e+00	3.755766e+00	3.968277e+00	1.330143e-01	6.617483e+00	3.788798e+00	7.077559e-01	1.985514e+00	1.995174e+00	3.896182e+00	-8.004855e-01	7.181949e-01	6.791621e-01	4.473618e+00	5.140145e-01	3.214395e+00	5.984503e-01	1.094294e+00	8.817626e-01	1.347487e+00	1.745084e+00	1.453932e+00	6.260199e+00	4.161219e+00	8.269813e+00	7.859675e+00	4.079859e+00	5.729983e+00	8.813885e-01	7.427665e-01	4.475005e-01	6.845829e-01	-4.250700e-01	1.007678e+00	6.844772e-01	3.873174e-01	6.470744e+00	9.711008e-01	4.202639e+00	4.110329e-01	7.075128e-01	6.299580e-01	4.281303e+00	3.689782e+00	3.248422e+00	4.066339e-01	8.053831e-01	4.700762e+00	2.460740e+00	3.058229e-01	7.764515e+00	1.117396e+00	3.183230e+00	1.390861e+00	6.031453e+00	3.758140e+00	7.656762e-01	4.432071e+00	4.559415e+00	4.465730e+00	1.339671e+00	4.233047e+00	2.374682e+00	3.363914e+00	3.287798e+00	3.779340e+00	2.012897e+00	1.338981e+00	2.517406e+00	8.524464e+00	-8.318508e-01	3.126947e+00	-3.886174e-01	4.471300e+00	2.254006e+00	1.587841e+00	4.162675e+00	1.038897e+01	1.867524e+00	1.057053e+00	1.088026e+00	8.414974e-01	5.343732e+00	1.057801e+00	5.042839e+00	1.347486e+00	1.445165e+00	2.098331e+00	2.690755e+00	1.435773e+00	2.048911e+00	1.388607e+00	1.446238e+00	3.166586e+00	2.958859e+00	5.105048e-01	1.601507e+00	2.228581e+00	3.407085e+00	3.071743e+00	1.363171e+00	1.519947e+00	3.836248e+00	1.762580e+00	3.576974e+00	1.141696e+00	1.330022e+00	6.731161e+00	2.515286e+00	3.873753e+00	1.402828e+00	-4.325688e-01	-4.498992e-01	1.250581e-01	7.998250e+00	9.453902e+00	7.871969e+00	3.528677e+00	6.822141e+00	3.896277e+00	1.625997e+00	1.349060e+00	1.000497e+01	2.548222e+00	1.111506e+00	2.811768e+00	5.176732e+00	1.248306e-01	7.047622e-01	4.515987e+00	4.799125e-01	1.978137e+00	1.692997e-02	-7.185866e-01	5.028541e-01	1.519093e+00	7.739151e-01	6.895238e+00	1.876478e+00	8.346828e+00	6.810073e-01	3.750293e+00	4.237387e+00	4.855691e-01	9.506302e-01	6.174393e+00	4.284246e+00	6.915276e+00	4.556486e+00	4.500757e+00	1.392996e+00	4.367261e+00	8.900905e-01	2.005469e+00	-4.074986e-01	4.248663e+00	1.436443e-01	3.349755e+00	8.539188e+00	5.359146e+00	2.784505e+00	
SCALARS Energy float 1
LOOKUP_TABLE default