# vtk DataFile Version 3.0
vtk output
ASCII
DATASET UNSTRUCTURED_GRID
POINTS 394 float
-3.000000e+00	0.000000e+00	0.0	-5.000000e-02	3.030092e-17	0.0	3.662375e-01	1.029251e+00	0.0	4.662952e-01	9.712481e-01	0.0	5.000000e-02	-9.375881e-18	0.0	3.000000e+00	0.000000e+00	0.0	3.000000e+00	4.000000e+00	0.0	-3.000000e+00	4.000000e+00	0.0	-3.000000e+00	3.428571e+00	0.0	-3.000000e+00	2.857143e+00	0.0	-3.000000e+00	2.285714e+00	0.0	-3.000000e+00	1.714286e+00	0.0	-3.000000e+00	1.142857e+00	0.0	-3.000000e+00	5.714286e-01	0.0	-2.473871e+00	0.000000e+00	0.0	-2.029066e+00	0.000000e+00	0.0	-1.653013e+00	0.000000e+00	0.0	-1.335087e+00	0.000000e+00	0.0	-1.066302e+00	0.000000e+00	0.0	-8.390627e-01	0.000000e+00	0.0	-6.469477e-01	0.000000e+00	0.0	-4.845277e-01	0.000000e+00	0.0	-3.472127e-01	0.000000e+00	0.0	-2.311224e-01	0.000000e+00	0.0	-1.329760e-01	0.000000e+00	0.0	-4.506885e-02	8.209811e-02	0.0	-3.316568e-02	1.636938e-01	0.0	-1.459182e-02	2.446616e-01	0.0	9.709957e-03	3.250636e-01	0.0	3.891366e-02	4.049478e-01	0.0	7.225558e-02	4.843494e-01	0.0	1.090177e-01	5.632963e-01	0.0	1.485208e-01	6.418108e-01	0.0	1.901119e-01	7.199177e-01	0.0	2.331812e-01	7.976490e-01	0.0	2.771616e-01	8.750729e-01	0.0	3.216767e-01	9.522194e-01	0.0	4.162666e-01	1.000299e+00	0.0	4.216165e-01	8.943913e-01	0.0	3.771631e-01	8.176492e-01	0.0	3.331710e-01	7.411716e-01	0.0	2.901072e-01	6.650167e-01	0.0	2.485166e-01	5.892393e-01	0.0	2.090138e-01	5.138727e-01	0.0	1.722508e-01	4.389387e-01	0.0	1.389088e-01	3.644592e-01	0.0	1.097052e-01	2.904625e-01	0.0	8.540461e-02	2.169851e-01	0.0	6.683771e-02	1.440710e-01	0.0	5.486941e-02	7.175799e-02	0.0	1.329760e-01	0.000000e+00	0.0	2.311224e-01	0.000000e+00	0.0	3.472127e-01	0.000000e+00	0.0	4.845277e-01	0.000000e+00	0.0	6.469477e-01	0.000000e+00	0.0	8.390627e-01	0.000000e+00	0.0	1.066302e+00	0.000000e+00	0.0	1.335087e+00	0.000000e+00	0.0	1.653013e+00	0.000000e+00	0.0	2.029066e+00	0.000000e+00	0.0	2.473871e+00	0.000000e+00	0.0	3.000000e+00	5.714286e-01	0.0	3.000000e+00	1.142857e+00	0.0	3.000000e+00	1.714286e+00	0.0	3.000000e+00	2.285714e+00	0.0	3.000000e+00	2.857143e+00	0.0	3.000000e+00	3.428571e+00	0.0	2.400000e+00	4.000000e+00	0.0	1.800000e+00	4.000000e+00	0.0	1.200000e+00	4.000000e+00	0.0	6.000000e-01	4.000000e+00	0.0	0.000000e+00	4.000000e+00	0.0	-6.000000e-01	4.000000e+00	0.0	-1.200000e+00	4.000000e+00	0.0	-1.800000e+00	4.000000e+00	0.0	-2.400000e+00	4.000000e+00	0.0	2.012351e-01	9.339891e-01	0.0	4.468662e-01	8.422638e-01	0.0	-1.463832e+00	2.867935e-01	0.0	1.535849e+00	1.887093e-01	0.0	2.730739e-01	5.347923e-01	0.0	4.008459e-02	6.222112e-01	0.0	-7.273228e-01	1.985773e-01	0.0	7.782159e-01	1.211445e-01	0.0	-2.543932e+00	2.103162e+00	0.0	2.599587e+00	1.907970e+00	0.0	-8.351352e-01	3.523954e+00	0.0	1.032804e+00	3.445771e+00	0.0	1.825051e-01	3.179077e-01	0.0	-5.505140e-02	3.759786e-01	0.0	-4.024778e-01	1.355913e-01	0.0	4.340121e-01	8.754719e-02	0.0	3.583815e-01	6.844011e-01	0.0	1.150659e-01	7.803112e-01	0.0	1.481274e-01	1.769640e-01	0.0	-9.745816e-02	2.141863e-01	0.0	2.565183e+00	7.627062e-01	0.0	-2.479998e+00	8.203615e-01	0.0	-2.016899e+00	3.471376e+00	0.0	2.124996e+00	3.418303e+00	0.0	-1.785505e-01	8.497959e-02	0.0	1.910591e-01	6.509369e-02	0.0	2.258615e+00	3.526924e-01	0.0	-2.238672e+00	3.797459e-01	0.0	2.552626e+00	1.349614e+00	0.0	2.224738e+00	1.640624e+00	0.0	2.209995e+00	2.064983e+00	0.0	1.907396e+00	1.792446e+00	0.0	1.878013e+00	1.379427e+00	0.0	1.633805e+00	1.581907e+00	0.0	1.611043e+00	1.939508e+00	0.0	1.393198e+00	1.724748e+00	0.0	1.393952e+00	1.416797e+00	0.0	1.196968e+00	1.541919e+00	0.0	1.194817e+00	1.286096e+00	0.0	1.016120e+00	1.369822e+00	0.0	9.979819e-01	1.643035e+00	0.0	8.426725e-01	1.502232e+00	0.0	8.036801e-01	1.746251e+00	0.0	6.546925e-01	1.634554e+00	0.0	6.020200e-01	1.854655e+00	0.0	4.598223e-01	1.739179e+00	0.0	3.823289e-01	1.964117e+00	0.0	2.285797e-01	1.805102e+00	0.0	1.036366e+00	1.151064e+00	0.0	1.339750e+00	2.073223e+00	0.0	5.836081e-01	2.122059e+00	0.0	1.159211e+00	1.032978e+00	0.0	9.979686e-01	9.605847e-01	0.0	1.224855e-01	2.087234e+00	0.0	-8.910455e-02	1.942059e+00	0.0	2.000926e-02	1.668690e+00	0.0	-3.208442e-01	1.799743e+00	0.0	-2.478854e-01	1.563898e+00	0.0	-5.518860e-01	1.645818e+00	0.0	-5.801059e-01	1.880167e+00	0.0	-4.954904e-01	1.406494e+00	0.0	-8.123890e-01	1.480637e+00	0.0	8.934822e-01	1.048891e+00	0.0	8.554968e-01	8.772696e-01	0.0	9.525236e-01	7.822608e-01	0.0	-1.821305e-01	2.228191e+00	0.0	7.982344e-01	7.044433e-01	0.0	5.135191e-01	1.509737e+00	0.0	4.212867e-01	1.052364e+00	0.0	4.817027e-01	1.017549e+00	0.0	4.505244e-01	1.099722e+00	0.0	5.168701e-01	1.083404e+00	0.0	6.471081e-02	2.398927e+00	0.0	-7.713234e-01	1.218213e+00	0.0	-1.091176e+00	1.293658e+00	0.0	-4.676388e-01	1.145954e+00	0.0	-7.944678e-01	9.378531e-01	0.0	-5.091240e-01	9.164806e-01	0.0	-1.136654e+00	1.591564e+00	0.0	8.953888e-01	6.106991e-01	0.0	1.061866e+00	6.810675e-01	0.0	7.347382e-01	5.513116e-01	0.0	7.991491e-03	1.437905e+00	0.0	1.566202e+00	2.308124e+00	0.0	3.731369e-01	1.114273e+00	0.0	4.123991e-01	1.177240e+00	0.0	5.378342e-01	9.918814e-01	0.0	5.892163e-01	1.064668e+00	0.0	5.554918e-01	1.158188e+00	0.0	6.062534e-01	9.611478e-01	0.0	9.998502e-01	5.089503e-01	0.0	1.202347e+00	5.979376e-01	0.0	3.132981e-01	1.191941e+00	0.0	-2.693086e-01	1.033594e+00	0.0	-3.012178e-01	8.545399e-01	0.0	-5.020655e-01	7.153313e-01	0.0	-2.991053e-01	6.808454e-01	0.0	-1.435283e+00	1.379072e+00	0.0	6.513394e-01	1.149380e+00	0.0	-2.804360e-01	2.546972e+00	0.0	-1.109840e-02	2.758827e+00	0.0	6.485404e-01	6.292035e-01	0.0	5.823403e-01	4.913242e-01	0.0	3.644919e-01	1.273021e+00	0.0	6.681540e-01	4.143133e-01	0.0	5.156347e-01	3.643466e-01	0.0	1.261358e+00	2.457088e+00	0.0	-1.491343e+00	1.712444e+00	0.0	1.501309e+00	2.700998e+00	0.0	5.973330e-01	2.892001e-01	0.0	1.119222e+00	3.489578e-01	0.0	-1.376077e+00	1.083788e+00	0.0	-4.823635e-01	5.350662e-01	0.0	-6.494769e-01	5.648472e-01	0.0	-3.326225e-01	4.947287e-01	0.0	-8.409245e-02	9.757786e-01	0.0	-8.176431e-02	1.125306e+00	0.0	-1.902600e+00	1.479101e+00	0.0	5.038488e-01	5.675707e-01	0.0	5.803775e-01	7.028459e-01	0.0	7.618365e-01	3.337390e-01	0.0	-1.874491e-01	5.903068e-01	0.0	9.369406e-01	1.924292e+00	0.0	1.344524e+00	5.117366e-01	0.0	1.406397e+00	7.206605e-01	0.0	1.570608e+00	5.849597e-01	0.0	1.646919e+00	8.555789e-01	0.0	1.877762e+00	7.262016e-01	0.0	5.960151e-01	1.257689e+00	0.0	7.079707e-01	1.245682e+00	0.0	-4.699667e-01	3.640252e-01	0.0	-2.336217e-01	1.370333e+00	0.0	-5.476267e-01	2.343759e+00	0.0	-6.711878e-01	2.694281e+00	0.0	-9.673125e-01	2.480271e+00	0.0	-1.086541e+00	2.834858e+00	0.0	-1.466734e+00	2.516052e+00	0.0	-2.032252e-01	4.378245e-01	0.0	2.417580e-01	1.284967e+00	0.0	2.887098e-01	1.387252e+00	0.0	1.965046e-01	1.194348e+00	0.0	3.764576e-01	2.562962e+00	0.0	3.061428e-01	3.025229e+00	0.0	6.746133e-01	2.764724e+00	0.0	-1.180122e+00	1.922494e+00	0.0	7.696719e-01	9.652137e-01	0.0	-1.488804e-01	3.174390e+00	0.0	-1.397862e-01	8.167233e-01	0.0	4.494642e-01	2.489535e-01	0.0	3.544681e-01	3.163917e-01	0.0	3.157084e-01	2.195264e-01	0.0	2.682067e-01	1.123132e+00	0.0	1.598462e-01	1.102830e+00	0.0	1.840506e+00	2.552945e+00	0.0	1.567355e+00	1.262676e+00	0.0	2.533853e+00	2.480775e+00	0.0	1.097115e+00	2.883562e+00	0.0	-1.554707e+00	2.075889e+00	0.0	4.223439e-01	4.346367e-01	0.0	2.999499e-01	3.941368e-01	0.0	1.241281e+00	1.691376e-01	0.0	3.247311e-03	8.875512e-01	0.0	-1.027005e-01	5.198297e-01	0.0	4.761740e-01	3.521099e+00	0.0	-3.269686e-01	3.402343e-01	0.0	-2.143391e-01	3.049283e-01	0.0	7.162485e-01	8.047225e-01	0.0	2.215913e+00	9.960510e-01	0.0	-1.579343e+00	3.046359e+00	0.0	-1.938065e+00	2.699397e+00	0.0	6.441848e-01	1.375290e+00	0.0	-2.448384e+00	1.341941e+00	0.0	8.610367e-01	1.297500e+00	0.0	-1.175519e+00	2.587255e-01	0.0	-1.263932e+00	5.387735e-01	0.0	-1.553348e+00	5.881147e-01	0.0	-9.898529e-01	5.147899e-01	0.0	-1.070358e+00	7.774633e-01	0.0	1.773075e+00	3.013658e+00	0.0	2.356053e-01	1.619912e+00	0.0	6.193127e-01	8.390552e-01	0.0	1.080279e-01	1.289573e+00	0.0	4.421339e-02	9.765239e-01	0.0	5.017713e-01	7.688951e-01	0.0	-1.861362e-02	7.609005e-01	0.0	-5.443611e-01	2.007147e-01	0.0	5.891033e-01	9.742570e-02	0.0	1.002746e+00	1.570865e-01	0.0	-9.347961e-01	2.303754e-01	0.0	1.861937e+00	2.362418e-01	0.0	3.048569e-01	7.584916e-02	0.0	-2.755022e-01	1.092908e-01	0.0	-1.423258e+00	3.540696e+00	0.0	4.261957e-01	1.374556e+00	0.0	2.567730e+00	3.092588e+00	0.0	3.912408e-01	5.133317e-01	0.0	-1.815860e+00	3.299577e-01	0.0	-1.931147e+00	7.414226e-01	0.0	1.487827e+00	9.856784e-01	0.0	4.166691e-01	6.142332e-01	0.0	5.379471e-01	8.861210e-01	0.0	1.038685e+00	2.209475e+00	0.0	-2.488704e+00	2.549113e+00	0.0	1.532686e+00	3.499241e+00	0.0	-6.724966e-02	6.472348e-01	0.0	4.852040e-01	9.316042e-01	0.0	-2.419018e+00	3.087630e+00	0.0	1.568016e-01	8.562269e-01	0.0	8.908058e-01	2.523203e-01	0.0	7.153361e-01	2.407397e+00	0.0	-7.846692e-01	3.873533e-01	0.0	7.447363e-02	7.018975e-01	0.0	4.021197e-01	7.606632e-01	0.0	-2.094307e+00	1.109034e+00	0.0	3.138653e-01	6.127948e-01	0.0	-2.059923e-03	5.507947e-01	0.0	2.407534e-01	4.610877e-01	0.0	1.254247e+00	8.324507e-01	0.0	2.089667e-01	3.868218e-01	0.0	-7.562263e-02	2.928937e-01	0.0	1.596330e-01	2.471043e-01	0.0	2.470203e-01	2.708133e-01	0.0	-3.354988e-02	4.609869e-01	0.0	2.406956e-01	1.412242e-01	0.0	-1.933307e-01	1.940773e-01	0.0	-7.062367e-01	7.315492e-01	0.0	6.445064e-02	1.181029e+00	0.0	2.182597e+00	6.664638e-01	0.0	7.798021e-01	1.126656e+00	0.0	1.919790e+00	1.055931e+00	0.0	3.697541e-01	1.067887e+00	0.0	8.306367e-01	4.668839e-01	0.0	-6.117577e-01	3.777729e-01	0.0	4.434279e-01	7.083925e-01	0.0	2.370564e-01	1.053592e+00	0.0	1.262419e-01	1.055886e-01	0.0	-1.071396e-01	1.274364e-01	0.0	-1.834312e+00	1.848544e+00	0.0	-1.988840e+00	2.224301e+00	0.0	-2.300410e-01	1.199699e+00	0.0	-7.649815e-01	3.086790e+00	0.0	4.692362e-01	1.248927e+00	0.0	1.347051e+00	1.135218e+00	0.0	-3.967388e-01	2.924389e+00	0.0	1.087425e+00	8.549085e-01	0.0	9.614509e-01	2.544058e+00	0.0	7.247407e-01	3.128237e+00	0.0	-1.078209e+00	1.018807e+00	0.0	2.173632e+00	2.827005e+00	0.0	1.402031e+00	3.109602e+00	0.0	-1.176078e-01	4.
[...]
POINT_DATA 394

SCALARS Density float 1
LOOKUP_TABLE default
1.223712e+00	1.223950e+00	1.221433e+00	1.221772e+00	1.223251e+00	1.223551e+00	1.223278e+00	1.223583e+00	1.223566e+00	1.223579e+00	1.223621e+00	1.223648e+00	1.223714e+00	1.223720e+00	1.223731e+00	1.223722e+00	1.223753e+00	1.223774e+00	1.223817e+00	1.223843e+00	1.223863e+00	1.223930e+00	1.223902e+00	1.224008e+00	1.223896e+00	1.224046e+00	1.223903e+00	1.223913e+00	1.223899e+00	1.223855e+00	1.223824e+00	1.223764e+00	1.223748e+00	1.223650e+00	1.223736e+00	1.222911e+00	1.224880e+00	1.219537e+00	1.223728e+00	1.223229e+00	1.223257e+00	1.223240e+00	1.223180e+00	1.223147e+00	1.223132e+00	1.223126e+00	1.223141e+00	1.223173e+00	1.223099e+00	1.223318e+00	1.223104e+00	1.223210e+00	1.223139e+00	1.223084e+00	1.223043e+00	1.223015e+00	1.222933e+00	1.222941e+00	1.222957e+00	1.223109e+00	1.222645e+00	1.223287e+00	1.223025e+00	1.222864e+00	1.222812e+00	1.222949e+00	1.223100e+00	1.223105e+00	1.223242e+00	1.223275e+00	1.223357e+00	1.223408e+00	1.223488e+00	1.223540e+00	1.223572e+00	1.223572e+00	1.222924e+00	1.223618e+00	1.223763e+00	1.222899e+00	1.223185e+00	1.223728e+00	1.223841e+00	1.222980e+00	1.223618e+00	1.223291e+00	1.223509e+00	1.223305e+00	1.223144e+00	1.223862e+00	1.223916e+00	1.223086e+00	1.223330e+00	1.223510e+00	1.223224e+00	1.223924e+00	1.222920e+00	1.223713e+00	1.223592e+00	1.223131e+00	1.223963e+00	1.223188e+00	1.223056e+00	1.223705e+00	1.222931e+00	1.222840e+00	1.223091e+00	1.223072e+00	1.222949e+00	1.222966e+00	1.223000e+00	1.223240e+00	1.222743e+00	1.222820e+00	1.222865e+00	1.222996e+00	1.222825e+00	1.223134e+00	1.223111e+00	1.223254e+00	1.223162e+00	1.223226e+00	1.223439e+00	1.223317e+00	1.222799e+00	1.223010e+00	1.223250e+00	1.222657e+00	1.222830e+00	1.223404e+00	1.223493e+00	1.223499e+00	1.223433e+00	1.223577e+00	1.223649e+00	1.223538e+00	1.223623e+00	1.223625e+00	1.222987e+00	1.222883e+00	1.222984e+00	1.223499e+00	1.223014e+00	1.223177e+00	1.221127e+00	1.221512e+00	1.222670e+00	1.222687e+00	1.223406e+00	1.223695e+00	1.223683e+00	1.223734e+00	1.223749e+00	1.223762e+00	1.223644e+00	1.222916e+00	1.222734e+00	1.223020e+00	1.223513e+00	1.223194e+00	1.221580e+00	1.223113e+00	1.222566e+00	1.222628e+00	1.222461e+00	1.222886e+00	1.222952e+00	1.222867e+00	1.223115e+00	1.223706e+00	1.223751e+00	1.223784e+00	1.223758e+00	1.223672e+00	1.222537e+00	1.223465e+00	1.223452e+00	1.223161e+00	1.223073e+00	1.223061e+00	1.223037e+00	1.223093e+00	1.223284e+00	1.223641e+00	1.223174e+00	1.223090e+00	1.222842e+00	1.223718e+00	1.223822e+00	1.223844e+00	1.223923e+00	1.223633e+00	1.223572e+00	1.223680e+00	1.223138e+00	1.223219e+00	1.222975e+00	1.223826e+00	1.223361e+00	1.222724e+00	1.222923e+00	1.222689e+00	1.222686e+00	1.222836e+00	1.222756e+00	1.222739e+00	1.223888e+00	1.223509e+00	1.223524e+00	1.223507e+00	1.223569e+00	1.223551e+00	1.223609e+00	1.223850e+00	1.223115e+00	1.223471e+00	1.223434e+00	1.223329e+00	1.223367e+00	1.223397e+00	1.223615e+00	1.222735e+00	1.223404e+00	1.223792e+00	1.223075e+00	1.223101e+00	1.223141e+00	1.223647e+00	1.223069e+00	1.223096e+00	1.222721e+00	1.223291e+00	1.223294e+00	1.223632e+00	1.223176e+00	1.223054e+00	1.222741e+00	1.223590e+00	1.223943e+00	1.223402e+00	1.223889e+00	1.223922e+00	1.222930e+00	1.222719e+00	1.223547e+00	1.223584e+00	1.222592e+00	1.223659e+00	1.222833e+00	1.223801e+00	1.223821e+00	1.223693e+00	1.223796e+00	1.223722e+00	1.223261e+00	1.223476e+00	1.223002e+00	1.223407e+00	1.223657e+00	1.223279e+00	1.223794e+00	1.223943e+00	1.223059e+00	1.222963e+00	1.223838e+00	1.222755e+00	1.223213e+00	1.223977e+00	1.223549e+00	1.223022e+00	1.223166e+00	1.223221e+00	1.223759e+00	1.223707e+00	1.222820e+00	1.223169e+00	1.222863e+00	1.223218e+00	1.223621e+00	1.223240e+00	1.223741e+00	1.222956e+00	1.223606e+00	1.223996e+00	1.222959e+00	1.223342e+00	1.223805e+00	1.223773e+00	1.223235e+00	1.223677e+00	1.223254e+00	1.223777e+00	1.223168e+00	1.222810e+00	1.223157e+00	1.223907e+00	1.223153e+00	1.223087e+00	1.223798e+00	1.223064e+00	1.223955e+00	1.223759e+00	1.223561e+00	1.222720e+00	1.222826e+00	1.223121e+00	1.225451e+00	1.222998e+00	1.223888e+00	1.223139e+00	1.223401e+00	1.223130e+00	1.223932e+00	1.223626e+00	1.223631e+00	1.223631e+00	1.223506e+00	1.222648e+00	1.222898e+00	1.223466e+00	1.222750e+00	1.223236e+00	1.223280e+00	1.223756e+00	1.223304e+00	1.223244e+00	1.223899e+00	1.223548e+00	1.223503e+00	1.223067e+00	1.223551e+00	1.222727e+00	1.223150e+00	1.223873e+00	1.223037e+00	1.223362e+00	1.223091e+00	1.223363e+00	1.223726e+00	1.222993e+00	1.223295e+00	1.223619e+00	1.222806e+00	1.223729e+00	1.223058e+00	1.222224e+00	1.223738e+00	1.223731e+00	1.223173e+00	1.223376e+00	1.222356e+00	1.223595e+00	1.223076e+00	1.223587e+00	1.223807e+00	1.225534e+00	1.223907e+00	1.223720e+00	1.223081e+00	1.223187e+00	1.223560e+00	1.223413e+00	1.223764e+00	1.223033e+00	1.223924e+00	1.222885e+00	1.222819e+00	1.223569e+00	1.222840e+00	1.223565e+00	1.223288e+00	1.223794e+00	1.223742e+00	1.223683e+00	1.223084e+00	1.223098e+00	1.223960e+00	1.223294e+00	1.223475e+00	1.223137e+00	1.223515e+00	1.222690e+00	1.223391e+00	1.223157e+00	1.223117e+00	1.223461e+00	1.223746e+00	1.222851e+00	1.223251e+00	1.222589e+00	1.223272e+00	1.222874e+00	1.223633e+00	1.222709e+00	
SCALARS X-Momentum float 1
LOOKUP_TABLE default
8.770368e+00	3.878632e-01	6.709400e+00	-4.050799e-01	-6.229855e-01	-4.470028e+00	1.619252e+01	1.036867e+01	1.023578e+01	1.003126e+01	9.778463e+00	9.485235e+00	9.208156e+00	8.946438e+00	8.621686e+00	8.321717e+00	7.868173e+00	7.279720e+00	6.606697e+00	5.834359e+00	4.960152e+00	4.108247e+00	3.122505e+00	2.150284e+00	1.190364e+00	6.468006e-02	3.911562e-01	8.598315e-01	1.398629e+00	1.995790e+00	2.600962e+00	3.193299e+00	3.779831e+00	4.338825e+00	4.751331e+00	4.739206e+00	4.404075e+00	3.856963e+00	6.294140e-01	8.969344e-01	1.414516e+00	1.734706e+00	1.921049e+00	1.979788e+00	1.861818e+00	1.609062e+00	1.279764e+00	8.915569e-01	5.335199e-01	2.530462e-01	-2.017279e+00	-3.642077e+00	-4.998943e+00	-6.189942e+00	-7.142248e+00	-7.848090e+00	-8.338524e+00	-8.567160e+00	-8.067467e+00	-7.133605e+00	-6.148354e+00	-5.650645e-01	4.980070e+00	1.035758e+01	1.418399e+01	1.601327e+01	1.640725e+01	1.550499e+01	1.464867e+01	1.372312e+01	1.295385e+01	1.230967e+01	1.173397e+01	1.121521e+01	1.078661e+01	1.050098e+01	5.106961e+00	1.679485e+00	7.752307e+00	-5.807775e+00	1.915927e+00	4.153947e+00	5.666442e+00	-5.572784e+00	9.711642e+00	1.257362e+01	1.137009e+01	1.383403e+01	9.671208e-01	2.437685e+00	3.735763e+00	-4.190468e+00	2.006209e+00	5.090776e+00	-5.066889e-02	1.457127e+00	1.217989e+00	8.953257e+00	1.049435e+01	1.549567e+01	1.691865e+00	-1.961734e+00	-3.058538e+00	8.635729e+00	7.491210e+00	1.093457e+01	1.408280e+01	1.292366e+01	8.937622e+00	1.165603e+01	1.439677e+01	1.346873e+01	1.028446e+01	1.217787e+01	8.644886e+00	1.039809e+01	1.372477e+01	1.279439e+01	1.458903e+01	1.425125e+01	1.456755e+01	1.414849e+01	1.372708e+01	1.297085e+01	6.710747e+00	1.515014e+01	1.421427e+01	5.029707e+00	3.993008e+00	1.260132e+01	1.174682e+01	1.170833e+01	1.085318e+01	1.044029e+01	1.011336e+01	1.047150e+01	9.514455e+00	9.473827e+00	4.801866e+00	2.847881e+00	2.133725e+00	1.171239e+01	1.750288e+00	1.387215e+01	5.505819e+00	2.081420e+00	6.518092e+00	4.433722e+00	1.241234e+01	8.819252e+00	9.002378e+00	8.628893e+00	7.952353e+00	7.588932e+00	9.520165e+00	6.643831e-01	9.945406e-01	7.090794e-01	1.098959e+01	1.548458e+01	9.685454e+00	1.059216e+01	1.828120e+00	3.842407e+00	7.338652e+00	2.366245e+00	-9.011758e-01	-4.178032e-01	1.165981e+01	8.098745e+00	7.039634e+00	6.642564e+00	5.892059e+00	9.164993e+00	6.325269e+00	1.168750e+01	1.226841e+01	1.775757e+00	8.245226e-01	1.260725e+01	-5.329857e-01	-3.436549e-01	1.528833e+01	9.586497e+00	1.532822e+01	-1.865456e+00	-3.140223e+00	8.693353e+00	5.744303e+00	6.380705e+00	4.922984e+00	7.448885e+00	8.650249e+00	9.299226e+00	1.829028e+00	2.376664e+00	-2.081273e+00	4.871518e+00	1.494447e+01	-1.681264e+00	8.965283e-01	-9.338360e-01	2.396504e+00	7.290396e-01	1.012624e+01	9.150046e+00	4.931662e+00	9.742418e+00	1.109459e+01	1.120277e+01	1.069776e+01	1.082605e+01	1.032663e+01	3.888579e+00	1.209235e+01	1.296165e+01	1.072988e+01	1.315334e+01	1.282981e+01	1.379328e+01	9.962967e+00	3.321214e+00	1.209798e+01	6.385438e+00	-1.511265e+00	-2.864476e-02	-9.955889e-01	1.024583e+01	8.861968e+00	1.561061e+01	7.952182e+00	1.534295e+01	1.449678e+01	9.943874e+00	9.691030e-01	1.065865e+00	-6.011672e+00	6.486460e+00	3.996525e+00	1.294235e+01	4.076253e+00	3.092827e+00	2.416170e+00	3.750987e+00	1.054981e+01	1.020028e+01	1.217917e+01	9.256353e+00	9.591394e+00	7.177608e+00	7.708536e+00	8.183093e+00	7.137490e+00	7.810491e+00	1.532097e+01	1.292958e+01	2.422001e+00	1.096488e+01	7.089583e+00	2.349903e+00	5.534769e+00	4.774000e+00	-5.014885e+00	-5.798904e+00	6.487850e+00	-4.881206e+00	-3.153515e+00	2.686211e+00	1.087414e+01	1.343093e+01	1.611681e+01	1.728607e+00	8.260095e+00	8.654231e+00	4.282678e+00	2.111825e+00	1.997471e+00	1.512039e+01	9.958349e+00	1.462146e+01	4.745352e+00	9.882076e-01	1.021704e+01	5.408997e+00	-3.769242e+00	1.423369e+01	6.355759e+00	4.655059e+00	1.840312e+00	9.010865e+00	2.003969e+00	3.682274e+00	1.686305e+00	2.602258e+00	1.367270e+00	1.886834e+00	5.026197e-01	1.289711e-01	3.056670e+00	-1.395236e+00	2.221741e+00	7.116449e+00	9.582554e+00	7.390424e-02	5.998098e+00	4.836780e+00	8.406935e+00	-7.053557e-01	5.632253e+00	2.283812e+00	7.998141e+00	-5.436579e-01	1.066857e+00	9.653511e+00	9.889702e+00	8.980158e+00	1.128728e+01	1.126912e+01	6.426501e+00	1.167946e+01	2.798756e+00	1.471580e+01	1.352959e+01	8.406425e+00	1.577067e+01	1.474503e+01	3.308046e+00	1.100167e+01	1.192223e+01	1.502432e+01	1.048397e+01	3.635730e+00	1.454573e+01	3.312707e+00	-3.145000e+00	1.482217e+01	-2.449339e+00	1.329433e+01	8.888086e+00	-3.595625e+00	1.352365e+01	9.987386e+00	2.606933e+00	8.210178e+00	-2.873910e+00	-3.052935e+00	8.803911e+00	6.164680e+00	6.720805e+00	1.198584e+01	8.401337e+00	9.779346e+00	1.145607e+01	1.028413e+01	4.225259e+00	5.878065e+00	2.838457e+00	8.530314e+00	-3.600026e-01	1.291162e+01	1.034151e+01	1.238675e+01	5.549222e+00	1.600242e+01	2.309713e+00	-3.672430e+00	-1.990965e+00	1.034806e+01	-2.168260e+00	1.095917e+01	1.238665e+01	6.860131e+00	8.156848e+00	9.540174e+00	7.336240e-01	1.577046e+00	7.891711e-01	-8.738133e-01	1.380991e+01	1.480160e+01	5.753315e+00	1.324961e+01	9.230177e+00	1.549981e+01	1.939420e+00	1.166344e+01	7.370659e+00	7.535686e+00	2.331215e+00	5.537797e+00	1.368743e+01	9.157223e+00	4.844726e+00	7.402852e+00	
SCALARS Y-Momentum float 1
LOOKUP_TABLE default
-1.974025e-02	3.820374e-01	5.775324e+00	-9.428206e-01	5.911449e-01	2.356436e-01	5.948425e-02	-1.246524e-02	1.590687e-02	4.327947e-02	5.943521e-02	7.637045e-02	6.382450e-02	1.145559e-02	-3.759081e-03	-2.218844e-04	6.529295e-03	5.601811e-03	1.134299e-02	1.387790e-02	-1.693026e-03	2.169104e-02	7.582220e-03	7.226517e-03	-3.127920e-02	1.240473e+00	2.238866e+00	3.206040e+00	4.203567e+00	5.138001e+00	5.983405e+00	6.752135e+00	7.483436e+00	8.240555e+00	8.807003e+00	8.960694e+00	9.122859e+00	-2.555908e+00	1.160959e+00	2.004098e+00	2.796039e+00	3.420265e+00	3.830804e+00	4.072086e+00	4.104431e+00	3.940618e+00	3.612836e+00	3.111605e+00	2.475095e+00	1.607854e+00	-1.582442e-03	3.692313e-02	2.680443e-02	8.570154e-03	2.244335e-03	7.254657e-03	1.140770e-02	2.763882e-03	-4.466594e-02	-6.958617e-02	-1.031398e-01	-5.550442e-01	-5.502989e-01	-6.698363e-02	6.243687e-01	8.424463e-01	4.939555e-01	1.167099e-02	-6.904910e-04	-1.114082e-02	-4.079079e-02	-2.626621e-02	-5.167516e-03	-5.232877e-03	2.341390e-03	-3.086209e-03	9.207830e+00	2.484430e+00	5.040706e-01	-2.330170e-01	3.662251e+00	6.520723e+00	8.823371e-01	4.731835e-01	3.890673e-01	2.877962e-01	4.416365e-01	8.211833e-01	3.364823e+00	4.232360e+00	9.714276e-01	6.863168e-01	3.199864e+00	7.839297e+00	2.425037e+00	2.512442e+00	-9.050250e-01	3.276414e-01	2.556088e-01	8.165656e-01	8.351016e-01	9.180796e-01	-6.652537e-01	2.498148e-01	-5.378690e-01	1.715718e-02	8.731173e-01	8.357643e-01	2.650842e-02	8.519886e-01	1.684333e+00	1.753641e+00	1.043593e+00	1.885168e+00	1.382583e+00	2.081172e+00	2.899884e+00	3.228458e+00	3.947001e+00	4.490055e+00	4.523993e+00	5.238487e+00	4.364289e+00	5.020750e+00	1.666427e+00	2.410143e+00	3.773189e+00	1.402407e+00	2.028776e+00	3.622535e+00	3.717017e+00	5.121251e+00	3.529269e+00	4.339109e+00	3.114908e+00	2.654185e+00	3.609990e+00	2.581325e+00	2.193240e+00	2.797884e+00	2.371749e+00	2.706291e+00	2.982980e+00	5.223163e+00	2.739972e-01	4.366421e-01	1.521942e+00	1.278611e+00	2.572090e+00	2.774700e+00	2.049819e+00	3.867313e+00	2.620445e+00	3.591241e+00	1.905172e+00	2.286965e+00	1.764422e+00	2.627527e+00	6.267992e+00	2.029418e+00	5.567067e+00	4.820628e+00	2.056941e+00	2.162548e+00	2.275331e+00	3.077265e+00	1.511128e+00	9.330657e-01	8.207490e+00	4.986100e+00	4.609951e+00	3.341229e+00	4.188618e+00	1.489022e+00	2.223446e+00	1.911023e+00	1.691879e+00	3.268511e+00	2.803793e+00	7.125879e+00	2.153365e+00	2.345512e+00	2.376876e+00	1.375201e+00	1.867307e+00	1.639318e+00	6.394046e-01	1.495309e+00	2.904247e+00	2.390962e+00	3.322242e+00	6.470980e+00	6.694141e+00	9.597754e-01	3.293744e+00	3.616250e+00	1.479770e+00	4.466595e+00	3.439419e+00	2.886295e-01	3.203863e-01	-1.270258e-01	-2.217322e-01	-7.216918e-01	3.009328e+00	2.463849e+00	2.218557e+00	4.940583e+00	1.997567e+00	1.424154e+00	1.474204e+00	1.031602e+00	1.036280e+00	3.601477e+00	8.627496e+00	7.600623e+00	9.594381e+00	2.391399e+00	1.328493e+00	2.056565e+00	1.696782e+00	2.873223e+00	9.679886e-01	5.628499e+00	1.871902e+00	2.656741e+00	2.158058e+00	9.701349e+00	1.010330e+01	1.690154e+00	3.854338e-01	1.044429e+00	1.798919e+00	1.207348e+00	3.015307e+00	3.256912e+00	9.551959e-02	7.165882e+00	4.772102e+00	6.225215e-01	2.516737e+00	2.681604e+00	3.510315e+00	-9.651997e-01	6.327315e-01	6.073095e-01	3.667769e+00	4.597992e-01	2.195865e+00	6.273504e-01	1.101779e+00	8.519280e-01	1.421006e+00	1.747276e+00	1.412774e+00	6.121706e+00	3.704628e+00	8.219826e+00	8.248865e+00	3.314341e+00	6.550484e+00	1.097876e+00	5.582208e-01	3.427136e-01	7.576665e-01	-4.393462e-01	8.622458e-01	9.498282e-01	3.355704e-01	6.206912e+00	1.013182e+00	3.346093e+00	3.907149e-01	6.573386e-01	3.695835e-01	3.362257e+00	3.127088e+00	3.014778e+00	3.622155e-01	7.663710e-01	5.650961e+00	1.881054e+00	2.699065e-01	8.717012e+00	9.029685e-01	2.975751e+00	1.557376e+00	7.165546e+00	2.780820e+00	6.971085e-01	3.476677e+00	5.787240e+00	3.696575e+00	1.099182e+00	3.598184e+00	3.401222e+00	2.986463e+00	2.805647e+00	4.998561e+00	1.757131e+00	1.896879e+00	2.637066e+00	8.516673e+00	-9.504034e-01	2.218289e+00	-5.812692e-01	3.259097e+00	1.905748e+00	1.854108e+00	3.237993e+00	1.070735e+01	1.741914e+00	1.576912e+00	9.869793e-01	7.565538e-01	5.229551e+00	9.222720e-01	4.320029e+00	8.994758e-01	1.260965e+00	1.794110e+00	2.528480e+00	1.302449e+00	1.986579e+00	1.399050e+00	1.378139e+00	4.163934e+00	2.666877e+00	4.323293e-01	1.528066e+00	2.000605e+00	2.679047e+00	2.639497e+00	1.820005e+00	1.174318e+00	3.598462e+00	1.437005e+00	3.346958e+00	1.054272e+00	1.018950e+00	6.611773e+00	2.300231e+00	3.446309e+00	1.359071e+00	-4.655627e-01	-5.119513e-01	1.099641e-01	8.700232e+00	9.967988e+00	7.816327e+00	2.486377e+00	6.656949e+00	2.953985e+00	1.458149e+00	1.724225e+00	1.061285e+01	3.465726e+00	1.048011e+00	2.443649e+00	4.545522e+00	1.074776e-01	6.044007e-01	5.207876e+00	4.859360e-01	2.790922e+00	7.424646e-03	-7.845238e-01	4.447186e-01	1.278219e+00	6.740042e-01	6.769437e+00	2.015464e+00	8.487194e+00	6.139551e-01	3.149984e+00	3.402243e+00	7.231960e-01	9.174037e-01	6.035596e+00	3.999397e+00	7.737228e+00	3.847989e+00	4.337094e+00	1.412929e+00	3.449093e+00	7.626187e-01	2.069017e+00	-5.790425e-01	3.432496e+00	-9.960529e-02	3.129940e+00	8.008292e+00	6.365891e+00	1.867765e+00	
SCALARS Energy float 1
LOOKUP_TABLE default