# vtk DataFile Version 3.0
vtk output
ASCII
DATASET UNSTRUCTURED_GRID
POINTS 394 float
-3.000000e+00	0.000000e+00	0.0	-5.000000e-02	3.100406e-17	0.0	3.817808e-01	1.030726e+00	0.0	4.818405e-01	9.699896e-01	0.0	5.000000e-02	-9.010222e-18	0.0	3.000000e+00	0.000000e+00	0.0	3.000000e+00	4.000000e+00	0.0	-3.000000e+00	4.000000e+00	0.0	-3.000000e+00	3.428571e+00	0.0	-3.000000e+00	2.857143e+00	0.0	-3.000000e+00	2.285714e+00	0.0	-3.000000e+00	1.714286e+00	0.0	-3.000000e+00	1.142857e+00	0.0	-3.000000e+00	5.714286e-01	0.0	-2.473871e+00	0.000000e+00	0.0	-2.029066e+00	0.000000e+00	0.0	-1.653013e+00	0.000000e+00	0.0	-1.335087e+00	0.000000e+00	0.0	-1.066302e+00	0.000000e+00	0.0	-8.390627e-01	0.000000e+00	0.0	-6.469477e-01	0.000000e+00	0.0	-4.845277e-01	0.000000e+00	0.0	-3.472127e-01	0.000000e+00	0.0	-2.311224e-01	0.000000e+00	0.0	-1.329760e-01	0.000000e+00	0.0	-4.491381e-02	8.225453e-02	0.0	-3.263074e-02	1.639897e-01	0.0	-1.346853e-02	2.450776e-01	0.0	1.159739e-02	3.255844e-01	0.0	4.171269e-02	4.055630e-01	0.0	7.609224e-02	4.850566e-01	0.0	1.140128e-01	5.641057e-01	0.0	1.548147e-01	6.427450e-01	0.0	1.978844e-01	7.210018e-01	0.0	2.426484e-01	7.988918e-01	0.0	2.885373e-01	8.764507e-01	0.0	3.351116e-01	9.536744e-01	0.0	4.318098e-01	1.000408e+00	0.0	4.350488e-01	8.931447e-01	0.0	3.885323e-01	8.164561e-01	0.0	3.426275e-01	7.400767e-01	0.0	2.978665e-01	6.640372e-01	0.0	2.547972e-01	5.883651e-01	0.0	2.139980e-01	5.130831e-01	0.0	1.760800e-01	4.382197e-01	0.0	1.417043e-01	3.638119e-01	0.0	1.115926e-01	2.899008e-01	0.0	8.653062e-02	2.165297e-01	0.0	6.737736e-02	1.437449e-01	0.0	5.502847e-02	7.158463e-02	0.0	1.329760e-01	0.000000e+00	0.0	2.311224e-01	0.000000e+00	0.0	3.472127e-01	0.000000e+00	0.0	4.845277e-01	0.000000e+00	0.0	6.469477e-01	0.000000e+00	0.0	8.390627e-01	0.000000e+00	0.0	1.066302e+00	0.000000e+00	0.0	1.335087e+00	0.000000e+00	0.0	1.653013e+00	0.000000e+00	0.0	2.029066e+00	0.000000e+00	0.0	2.473871e+00	0.000000e+00	0.0	3.000000e+00	5.714286e-01	0.0	3.000000e+00	1.142857e+00	0.0	3.000000e+00	1.714286e+00	0.0	3.000000e+00	2.285714e+00	0.0	3.000000e+00	2.857143e+00	0.0	3.000000e+00	3.428571e+00	0.0	2.400000e+00	4.000000e+00	0.0	1.800000e+00	4.000000e+00	0.0	1.200000e+00	4.000000e+00	0.0	6.000000e-01	4.000000e+00	0.0	0.000000e+00	4.000000e+00	0.0	-6.000000e-01	4.000000e+00	0.0	-1.200000e+00	4.000000e+00	0.0	-1.800000e+00	4.000000e+00	0.0	-2.400000e+00	4.000000e+00	0.0	2.128226e-01	9.359950e-01	0.0	4.593473e-01	8.403516e-01	0.0	-1.463307e+00	2.881039e-01	0.0	1.537492e+00	1.872197e-01	0.0	2.787415e-01	5.334602e-01	0.0	4.564994e-02	6.239147e-01	0.0	-7.267941e-01	1.999139e-01	0.0	7.795380e-01	1.198558e-01	0.0	-2.542520e+00	2.104241e+00	0.0	2.603072e+00	1.906740e+00	0.0	-8.317895e-01	3.524833e+00	0.0	1.037809e+00	3.445629e+00	0.0	1.849765e-01	3.169723e-01	0.0	-5.278945e-02	3.770592e-01	0.0	-4.021279e-01	1.365041e-01	0.0	4.347348e-01	8.682782e-02	0.0	3.670280e-01	6.827439e-01	0.0	1.234290e-01	7.823081e-01	0.0	1.491852e-01	1.763295e-01	0.0	-9.656579e-02	2.148831e-01	0.0	2.567237e+00	7.605664e-01	0.0	-2.479309e+00	8.215667e-01	0.0	-2.015519e+00	3.472207e+00	0.0	2.127650e+00	3.417633e+00	0.0	-1.783701e-01	8.535852e-02	0.0	1.913601e-01	6.475825e-02	0.0	2.260330e+00	3.508449e-01	0.0	-2.238355e+00	3.805654e-01	0.0	2.556486e+00	1.347585e+00	0.0	2.230789e+00	1.638093e+00	0.0	2.216193e+00	2.063360e+00	0.0	1.915490e+00	1.790030e+00	0.0	1.885632e+00	1.375924e+00	0.0	1.643550e+00	1.578882e+00	0.0	1.620755e+00	1.937380e+00	0.0	1.404488e+00	1.722321e+00	0.0	1.404919e+00	1.413572e+00	0.0	1.209359e+00	1.539438e+00	0.0	1.206870e+00	1.282873e+00	0.0	1.029734e+00	1.367261e+00	0.0	1.011528e+00	1.641513e+00	0.0	8.574227e-01	1.500947e+00	0.0	8.176663e-01	1.745725e+00	0.0	6.695194e-01	1.634322e+00	0.0	6.160365e-01	1.854870e+00	0.0	4.744459e-01	1.740125e+00	0.0	3.959546e-01	1.965103e+00	0.0	2.428255e-01	1.806875e+00	0.0	1.049078e+00	1.147894e+00	0.0	1.350532e+00	2.071564e+00	0.0	5.965212e-01	2.122384e+00	0.0	1.170270e+00	1.029168e+00	0.0	1.009409e+00	9.571261e-01	0.0	1.348639e-01	2.088912e+00	0.0	-7.725260e-02	1.944754e+00	0.0	3.372920e-02	1.671661e+00	0.0	-3.103274e-01	1.803485e+00	0.0	-2.366464e-01	1.568233e+00	0.0	-5.426843e-01	1.649973e+00	0.0	-5.709666e-01	1.884023e+00	0.0	-4.861978e-01	1.411391e+00	0.0	-8.052100e-01	1.484873e+00	0.0	9.064194e-01	1.046041e+00	0.0	8.671425e-01	8.740732e-01	0.0	9.623613e-01	7.787325e-01	0.0	-1.715528e-01	2.230791e+00	0.0	8.076875e-01	7.010787e-01	0.0	5.288924e-01	1.510241e+00	0.0	4.370538e-01	1.052865e+00	0.0	4.975239e-01	1.016658e+00	0.0	4.663590e-01	1.100030e+00	0.0	5.325913e-01	1.082864e+00	0.0	7.568323e-02	2.400785e+00	0.0	-7.650670e-01	1.222505e+00	0.0	-1.086277e+00	1.297617e+00	0.0	-4.593559e-01	1.150798e+00	0.0	-7.905048e-01	9.419725e-01	0.0	-5.035352e-01	9.210332e-01	0.0	-1.130948e+00	1.595439e+00	0.0	9.030918e-01	6.071327e-01	0.0	1.070047e+00	6.772429e-01	0.0	7.418497e-01	5.480425e-01	0.0	2.158771e-02	1.441534e+00	0.0	1.575219e+00	2.306633e+00	0.0	3.888564e-01	1.115677e+00	0.0	4.282016e-01	1.178140e+00	0.0	5.530578e-01	9.904653e-01	0.0	6.045312e-01	1.063413e+00	0.0	5.712720e-01	1.157678e+00	0.0	6.206050e-01	9.591938e-01	0.0	1.005969e+00	5.052459e-01	0.0	1.209019e+00	5.942632e-01	0.0	3.284799e-01	1.193792e+00	0.0	-2.606205e-01	1.038197e+00	0.0	-2.948993e-01	8.589446e-01	0.0	-4.982535e-01	7.190326e-01	0.0	-2.947001e-01	6.846406e-01	0.0	-1.431358e+00	1.382694e+00	0.0	6.665911e-01	1.148148e+00	0.0	-2.714815e-01	2.549311e+00	0.0	-2.355522e-03	2.760726e+00	0.0	6.570331e-01	6.259016e-01	0.0	5.885321e-01	4.884487e-01	0.0	3.799780e-01	1.274469e+00	0.0	6.732002e-01	4.115385e-01	0.0	5.196945e-01	3.620643e-01	0.0	1.271264e+00	2.456221e+00	0.0	-1.486815e+00	1.715775e+00	0.0	1.509251e+00	2.699918e+00	0.0	6.005083e-01	2.870713e-01	0.0	1.123067e+00	3.458871e-01	0.0	-1.373020e+00	1.087271e+00	0.0	-4.799264e-01	5.379448e-01	0.0	-6.471245e-01	5.678556e-01	0.0	-3.301363e-01	4.974207e-01	0.0	-7.447358e-02	9.800753e-01	0.0	-7.062724e-02	1.129533e+00	0.0	-1.899779e+00	1.481861e+00	0.0	5.112718e-01	5.645359e-01	0.0	5.902438e-01	6.996554e-01	0.0	7.658423e-01	3.311280e-01	0.0	-1.834304e-01	5.933276e-01	0.0	9.501438e-01	1.923732e+00	0.0	1.349793e+00	5.084757e-01	0.0	1.413214e+00	7.168210e-01	0.0	1.575636e+00	5.815035e-01	0.0	1.653743e+00	8.518948e-01	0.0	1.882476e+00	7.229160e-01	0.0	6.115307e-01	1.257146e+00	0.0	7.230685e-01	1.244465e+00	0.0	-4.686703e-01	3.660875e-01	0.0	-2.227545e-01	1.375057e+00	0.0	-5.389779e-01	2.346681e+00	0.0	-6.642614e-01	2.696520e+00	0.0	-9.608145e-01	2.482961e+00	0.0	-1.081220e+00	2.836678e+00	0.0	-1.461957e+00	2.518579e+00	0.0	-2.009263e-01	4.400315e-01	0.0	2.564633e-01	1.287328e+00	0.0	3.036996e-01	1.389298e+00	0.0	2.106601e-01	1.197052e+00	0.0	3.876090e-01	2.563771e+00	0.0	3.138412e-01	3.026188e+00	0.0	6.843720e-01	2.764879e+00	0.0	-1.174135e+00	1.925996e+00	0.0	7.829954e-01	9.624384e-01	0.0	-1.431009e-01	3.176008e+00	0.0	-1.328564e-01	8.207286e-01	0.0	4.517521e-01	2.473282e-01	0.0	3.573378e-01	3.145016e-01	0.0	3.174359e-01	2.182031e-01	0.0	2.828128e-01	1.125331e+00	0.0	1.730602e-01	1.105723e+00	0.0	1.847540e+00	2.551509e+00	0.0	1.576635e+00	1.258969e+00	0.0	2.537593e+00	2.479961e+00	0.0	1.105544e+00	2.883108e+00	0.0	-1.550115e+00	2.078976e+00	0.0	4.272487e-01	4.320666e-01	0.0	3.037237e-01	3.923848e-01	0.0	1.242923e+00	1.676490e-01	0.0	1.241601e-02	8.910848e-01	0.0	-9.918098e-02	5.219774e-01	0.0	4.806014e-01	3.521749e+00	0.0	-3.256366e-01	3.420421e-01	0.0	-2.130767e-01	3.064181e-01	0.0	7.279346e-01	8.016633e-01	0.0	2.220728e+00	9.928840e-01	0.0	-1.576127e+00	3.047697e+00	0.0	-1.935177e+00	2.700832e+00	0.0	6.594920e-01	1.374724e+00	0.0	-2.447067e+00	1.343654e+00	0.0	8.753435e-01	1.295545e+00	0.0	-1.174990e+00	2.600856e-01	0.0	-1.262490e+00	5.412490e-01	0.0	-1.552051e+00	5.904581e-01	0.0	-9.882617e-01	5.177016e-01	0.0	-1.067876e+00	7.809545e-01	0.0	1.778957e+00	3.012785e+00	0.0	2.503114e-01	1.621970e+00	0.0	6.318638e-01	8.364949e-01	0.0	1.218518e-01	1.292787e+00	0.0	5.483426e-02	9.800177e-01	0.0	5.127479e-01	7.662396e-01	0.0	-1.158513e-02	7.639386e-01	0.0	-5.438838e-01	2.021519e-01	0.0	5.900178e-01	9.650380e-02	0.0	1.004436e+00	1.553844e-01	0.0	-9.343124e-01	2.318182e-01	0.0	1.863586e+00	2.345864e-01	0.0	3.053702e-01	7.535691e-02	0.0	-2.752376e-01	1.099044e-01	0.0	-1.421046e+00	3.541455e+00	0.0	4.417007e-01	1.375553e+00	0.0	2.569764e+00	3.092208e+00	0.0	3.972207e-01	5.109234e-01	0.0	-1.815443e+00	3.311489e-01	0.0	-1.929858e+00	7.437171e-01	0.0	1.496154e+00	9.819394e-01	0.0	4.244523e-01	6.118879e-01	0.0	5.517246e-01	8.839967e-01	0.0	1.050584e+00	2.208995e+00	0.0	-2.487313e+00	2.550108e+00	0.0	1.536684e+00	3.498886e+00	0.0	-6.193517e-02	6.499669e-01	0.0	5.001200e-01	9.299497e-01	0.0	-2.417627e+00	3.088160e+00	0.0	1.666738e-01	8.582326e-01	0.0	8.937649e-01	2.499044e-01	0.0	7.271058e-01	2.407651e+00	0.0	-7.834401e-01	3.896946e-01	0.0	8.129065e-02	7.037603e-01	0.0	4.124698e-01	7.588768e-01	0.0	-2.092564e+00	1.111402e+00	0.0	3.209507e-01	6.113349e-01	0.0	2.340536e-03	5.524492e-01	0.0	2.452151e-01	4.598500e-01	0.0	1.263018e+00	8.283753e-01	0.0	2.123025e-01	3.857404e-01	0.0	-7.413092e-02	2.937495e-01	0.0	1.613074e-01	2.463371e-01	0.0	2.491535e-01	2.695771e-01	0.0	-3.035045e-02	4.623344e-01	0.0	2.416524e-01	1.404256e-01	0.0	-1.926556e-01	1.949965e-01	0.0	-7.031962e-01	7.351371e-01	0.0	7.729615e-02	1.184590e+00	0.0	2.185790e+00	6.635988e-01	0.0	7.940780e-01	1.124536e+00	0.0	1.926317e+00	1.052341e+00	0.0	3.853460e-01	1.069283e+00	0.0	8.363803e-01	4.636914e-01	0.0	-6.104586e-01	3.800350e-01	0.0	4.530285e-01	7.060917e-01	0.0	2.506910e-01	1.055725e+00	0.0	1.266831e-01	1.052359e-01	0.0	-1.067796e-01	1.278331e-01	0.0	-1.830751e+00	1.851321e+00	0.0	-1.985767e+00	2.226600e+00	0.0	-2.197722e-01	1.204226e+00	0.0	-7.597836e-01	3.088260e+00	0.0	4.851032e-01	1.249467e+00	0.0	1.357314e+00	1.131561e+00	0.0	-3.901168e-01	2.926223e+00	0.0	1.097376e+00	8.510560e-01	0.0	9.719659e-01	2.543783e+00	0.0	7.321060e-01	3.128497e+00	0.0	-1.074656e+00	1.022589e+00	0.0	2.178492e+00	2.825824e+00	0.0	1.408354e+00	3.108873e+00	0.0	-1.150180e-01	4.3
[...]
POINT_DATA 394

SCALARS Density float 1
LOOKUP_TABLE default
1.223711e+00	1.223947e+00	1.221413e+00	1.221798e+00	1.223258e+00	1.223552e+00	1.223279e+00	1.223582e+00	1.223566e+00	1.223578e+00	1.223620e+00	1.223647e+00	1.223712e+00	1.223719e+00	1.223730e+00	1.223720e+00	1.223751e+00	1.223772e+00	1.223814e+00	1.223841e+00	1.223861e+00	1.223928e+00	1.223899e+00	1.224007e+00	1.223894e+00	1.224046e+00	1.223900e+00	1.223909e+00	1.223893e+00	1.223848e+00	1.223816e+00	1.223756e+00	1.223739e+00	1.223639e+00	1.223724e+00	1.222903e+00	1.224866e+00	1.219530e+00	1.223739e+00	1.223238e+00	1.223270e+00	1.223254e+00	1.223194e+00	1.223158e+00	1.223143e+00	1.223136e+00	1.223151e+00	1.223182e+00	1.223107e+00	1.223323e+00	1.223110e+00	1.223216e+00	1.223145e+00	1.223090e+00	1.223050e+00	1.223021e+00	1.222939e+00	1.222945e+00	1.222960e+00	1.223112e+00	1.222648e+00	1.223287e+00	1.223027e+00	1.222864e+00	1.222812e+00	1.222949e+00	1.223100e+00	1.223105e+00	1.223243e+00	1.223276e+00	1.223358e+00	1.223408e+00	1.223488e+00	1.223540e+00	1.223571e+00	1.223572e+00	1.222909e+00	1.223635e+00	1.223761e+00	1.222903e+00	1.223197e+00	1.223719e+00	1.223840e+00	1.222986e+00	1.223617e+00	1.223293e+00	1.223508e+00	1.223305e+00	1.223153e+00	1.223857e+00	1.223915e+00	1.223092e+00	1.223344e+00	1.223503e+00	1.223231e+00	1.223920e+00	1.222925e+00	1.223711e+00	1.223591e+00	1.223131e+00	1.223962e+00	1.223194e+00	1.223059e+00	1.223703e+00	1.222935e+00	1.222840e+00	1.223092e+00	1.223074e+00	1.222952e+00	1.222967e+00	1.223000e+00	1.223243e+00	1.222743e+00	1.222820e+00	1.222870e+00	1.222998e+00	1.222824e+00	1.223133e+00	1.223111e+00	1.223252e+00	1.223160e+00	1.223223e+00	1.223437e+00	1.223314e+00	1.222799e+00	1.223010e+00	1.223248e+00	1.222661e+00	1.222835e+00	1.223402e+00	1.223492e+00	1.223497e+00	1.223430e+00	1.223574e+00	1.223646e+00	1.223536e+00	1.223620e+00	1.223623e+00	1.222991e+00	1.222888e+00	1.222992e+00	1.223498e+00	1.223023e+00	1.223174e+00	1.221088e+00	1.221505e+00	1.222680e+00	1.222685e+00	1.223406e+00	1.223693e+00	1.223680e+00	1.223731e+00	1.223747e+00	1.223760e+00	1.223642e+00	1.222924e+00	1.222742e+00	1.223029e+00	1.223510e+00	1.223193e+00	1.221580e+00	1.223111e+00	1.222555e+00	1.222629e+00	1.222458e+00	1.222888e+00	1.222960e+00	1.222873e+00	1.223116e+00	1.223702e+00	1.223748e+00	1.223780e+00	1.223753e+00	1.223671e+00	1.222534e+00	1.223464e+00	1.223452e+00	1.223172e+00	1.223083e+00	1.223057e+00	1.223047e+00	1.223103e+00	1.223284e+00	1.223639e+00	1.223174e+00	1.223098e+00	1.222851e+00	1.223717e+00	1.223819e+00	1.223842e+00	1.223921e+00	1.223625e+00	1.223566e+00	1.223678e+00	1.223150e+00	1.223233e+00	1.222985e+00	1.223820e+00	1.223362e+00	1.222729e+00	1.222930e+00	1.222694e+00	1.222690e+00	1.222842e+00	1.222754e+00	1.222740e+00	1.223884e+00	1.223505e+00	1.223524e+00	1.223506e+00	1.223568e+00	1.223551e+00	1.223608e+00	1.223846e+00	1.223110e+00	1.223469e+00	1.223431e+00	1.223328e+00	1.223367e+00	1.223395e+00	1.223613e+00	1.222738e+00	1.223404e+00	1.223786e+00	1.223084e+00	1.223110e+00	1.223150e+00	1.223635e+00	1.223072e+00	1.223096e+00	1.222722e+00	1.223291e+00	1.223295e+00	1.223630e+00	1.223187e+00	1.223063e+00	1.222748e+00	1.223583e+00	1.223938e+00	1.223403e+00	1.223887e+00	1.223920e+00	1.222937e+00	1.222720e+00	1.223546e+00	1.223583e+00	1.222589e+00	1.223657e+00	1.222830e+00	1.223799e+00	1.223819e+00	1.223691e+00	1.223794e+00	1.223719e+00	1.223261e+00	1.223470e+00	1.223011e+00	1.223403e+00	1.223656e+00	1.223289e+00	1.223787e+00	1.223942e+00	1.223066e+00	1.222970e+00	1.223836e+00	1.222760e+00	1.223219e+00	1.223976e+00	1.223549e+00	1.223021e+00	1.223166e+00	1.223231e+00	1.223758e+00	1.223705e+00	1.222827e+00	1.223183e+00	1.222871e+00	1.223217e+00	1.223620e+00	1.223240e+00	1.223735e+00	1.222968e+00	1.223605e+00	1.223994e+00	1.222966e+00	1.223342e+00	1.223802e+00	1.223767e+00	1.223244e+00	1.223676e+00	1.223268e+00	1.223769e+00	1.223179e+00	1.222815e+00	1.223168e+00	1.223903e+00	1.223162e+00	1.223095e+00	1.223792e+00	1.223071e+00	1.223953e+00	1.223755e+00	1.223554e+00	1.222721e+00	1.222828e+00	1.223124e+00	1.225497e+00	1.223007e+00	1.223885e+00	1.223148e+00	1.223397e+00	1.223137e+00	1.223930e+00	1.223625e+00	1.223630e+00	1.223623e+00	1.223505e+00	1.222649e+00	1.222902e+00	1.223466e+00	1.222755e+00	1.223235e+00	1.223280e+00	1.223753e+00	1.223304e+00	1.223244e+00	1.223893e+00	1.223547e+00	1.223503e+00	1.223068e+00	1.223549e+00	1.222727e+00	1.223149e+00	1.223870e+00	1.223045e+00	1.223361e+00	1.223099e+00	1.223362e+00	1.223724e+00	1.223002e+00	1.223290e+00	1.223618e+00	1.222809e+00	1.223727e+00	1.223062e+00	1.222226e+00	1.223736e+00	1.223719e+00	1.223161e+00	1.223371e+00	1.222339e+00	1.223592e+00	1.223077e+00	1.223586e+00	1.223802e+00	1.225552e+00	1.223901e+00	1.223718e+00	1.223089e+00	1.223182e+00	1.223560e+00	1.223413e+00	1.223757e+00	1.223033e+00	1.223920e+00	1.222890e+00	1.222822e+00	1.223568e+00	1.222846e+00	1.223564e+00	1.223285e+00	1.223791e+00	1.223735e+00	1.223682e+00	1.223095e+00	1.223110e+00	1.223958e+00	1.223300e+00	1.223476e+00	1.223135e+00	1.223504e+00	1.222685e+00	1.223385e+00	1.223157e+00	1.223129e+00	1.223460e+00	1.223743e+00	1.222854e+00	1.223261e+00	1.222591e+00	1.223270e+00	1.222867e+00	1.223623e+00	1.222710e+00	
SCALARS X-Momentum float 1
LOOKUP_TABLE default
8.790369e+00	3.935990e-01	6.792306e+00	-3.987253e-01	-6.200088e-01	-4.441289e+00	1.619019e+01	1.037514e+01	1.024333e+01	1.004032e+01	9.789398e+00	9.498398e+00	9.223925e+00	8.964765e+00	8.642643e+00	8.344310e+00	7.893475e+00	7.307764e+00	6.637489e+00	5.867340e+00	4.993844e+00	4.140970e+00	3.150890e+00	2.172302e+00	1.204489e+00	6.827461e-02	4.069143e-01	8.943346e-01	1.454579e+00	2.071728e+00	2.694141e+00	3.303941e+00	3.912405e+00	4.501010e+00	4.941863e+00	4.945143e+00	4.607090e+00	3.809797e+00	6.628112e-01	9.226097e-01	1.439622e+00	1.756258e+00	1.939497e+00	1.998724e+00	1.883471e+00	1.632882e+00	1.301576e+00	9.072294e-01	5.417626e-01	2.553432e-01	-2.010987e+00	-3.631904e+00	-4.984394e+00	-6.169447e+00	-7.115652e+00	-7.818474e+00	-8.306623e+00	-8.535302e+00	-8.041321e+00	-7.109208e+00	-6.122494e+00	-5.346850e-01	5.006921e+00	1.037536e+01	1.419204e+01	1.601456e+01	1.640580e+01	1.550205e+01	1.464596e+01	1.371987e+01	1.295005e+01	1.230594e+01	1.173222e+01	1.121623e+01	1.079008e+01	1.050637e+01	5.285661e+00	1.720650e+00	7.779559e+00	-5.787787e+00	1.934882e+00	4.266765e+00	5.703762e+00	-5.547420e+00	9.723729e+00	1.257464e+01	1.137287e+01	1.383333e+01	9.889861e-01	2.502141e+00	3.771890e+00	-4.171957e+00	2.032160e+00	5.242903e+00	-3.703329e-02	1.488937e+00	1.230507e+00	8.971819e+00	1.050077e+01	1.549341e+01	1.714149e+00	-1.951848e+00	-3.043502e+00	8.656687e+00	7.494190e+00	1.092424e+01	1.407544e+01	1.290890e+01	8.917561e+00	1.163309e+01	1.438312e+01	1.344916e+01	1.025705e+01	1.215396e+01	8.614662e+00	1.037075e+01	1.371167e+01	1.278190e+01	1.458953e+01	1.425766e+01	1.457974e+01	1.416967e+01	1.374657e+01	1.299834e+01	6.681534e+00	1.514221e+01	1.422635e+01	5.003397e+00	3.977615e+00	1.262155e+01	1.177112e+01	1.174461e+01	1.088002e+01	1.047756e+01	1.014177e+01	1.049339e+01	9.553297e+00	9.501573e+00	4.784475e+00	2.850407e+00	2.135268e+00	1.172913e+01	1.769731e+00	1.388908e+01	5.494533e+00	2.076199e+00	6.505421e+00	4.420693e+00	1.242595e+01	8.853560e+00	9.028386e+00	8.678570e+00	7.992131e+00	7.643602e+00	9.541432e+00	6.787694e-01	9.943747e-01	7.341474e-01	1.104175e+01	1.547899e+01	9.719560e+00	1.061390e+01	1.841306e+00	3.834362e+00	7.324660e+00	2.385222e+00	-8.897576e-01	-4.173241e-01	1.171582e+01	8.169138e+00	7.114580e+00	6.698303e+00	5.965336e+00	9.186050e+00	6.306547e+00	1.169843e+01	1.227643e+01	1.807038e+00	8.516964e-01	1.264677e+01	-5.082511e-01	-3.194715e-01	1.528801e+01	9.603821e+00	1.532724e+01	-1.842330e+00	-3.125307e+00	8.718169e+00	5.796923e+00	6.425697e+00	4.983858e+00	7.547424e+00	8.732399e+00	9.316645e+00	1.857423e+00	2.413334e+00	-2.058211e+00	4.950964e+00	1.494353e+01	-1.676843e+00	8.878211e-01	-9.339960e-01	2.383813e+00	7.263187e-01	1.011688e+01	9.130395e+00	4.978673e+00	9.791769e+00	1.110827e+01	1.121184e+01	1.070911e+01	1.083428e+01	1.033743e+01	3.953647e+00	1.215390e+01	1.300839e+01	1.081409e+01	1.316364e+01	1.283413e+01	1.379863e+01	9.979808e+00	3.321399e+00	1.210165e+01	6.483250e+00	-1.489288e+00	-6.773245e-03	-9.766567e-01	1.033318e+01	8.974366e+00	1.560672e+01	7.925585e+00	1.534165e+01	1.449845e+01	9.957909e+00	9.925851e-01	1.087690e+00	-5.987729e+00	6.611968e+00	4.078464e+00	1.294187e+01	4.126195e+00	3.141944e+00	2.442438e+00	3.745742e+00	1.055743e+01	1.020983e+01	1.217453e+01	9.272454e+00	9.566731e+00	7.208501e+00	7.738449e+00	8.208800e+00	7.172748e+00	7.843704e+00	1.531940e+01	1.296543e+01	2.461304e+00	1.103547e+01	7.220493e+00	2.389298e+00	5.654068e+00	4.813427e+00	-4.991879e+00	-5.774811e+00	6.522489e+00	-4.864973e+00	-3.139330e+00	2.716749e+00	1.087875e+01	1.345923e+01	1.611481e+01	1.751912e+00	8.283952e+00	8.676002e+00	4.262041e+00	2.137426e+00	2.042763e+00	1.512138e+01	9.968668e+00	1.461980e+01	4.844862e+00	1.028607e+00	1.022535e+01	5.580611e+00	-3.747296e+00	1.424175e+01	6.395100e+00	4.786068e+00	1.870600e+00	9.029735e+00	2.024935e+00	3.778956e+00	1.706296e+00	2.585851e+00	1.389281e+00	1.934368e+00	5.214512e-01	1.493845e-01	3.137150e+00	-1.380901e+00	2.255723e+00	7.161058e+00	9.670392e+00	7.634650e-02	5.977660e+00	4.821711e+00	8.430646e+00	-6.843484e-01	5.675372e+00	2.314057e+00	8.125369e+00	-5.351626e-01	1.085692e+00	9.668342e+00	9.901935e+00	9.040733e+00	1.129309e+01	1.127942e+01	6.399146e+00	1.168592e+01	2.785841e+00	1.471974e+01	1.353165e+01	8.436750e+00	1.576806e+01	1.474474e+01	3.377940e+00	1.102099e+01	1.192280e+01	1.501552e+01	1.050039e+01	3.632012e+00	1.453412e+01	3.352555e+00	-3.123446e+00	1.482833e+01	-2.431050e+00	1.331011e+01	8.909179e+00	-3.572187e+00	1.355863e+01	1.000907e+01	2.627377e+00	8.238130e+00	-2.865481e+00	-3.029862e+00	8.823637e+00	6.318857e+00	6.865205e+00	1.204335e+01	8.397730e+00	9.845952e+00	1.144058e+01	1.029750e+01	4.267462e+00	6.046826e+00	2.895479e+00	8.554302e+00	-3.427710e-01	1.292151e+01	1.034841e+01	1.238732e+01	5.642645e+00	1.599977e+01	2.353854e+00	-3.659145e+00	-1.983610e+00	1.035604e+01	-2.149621e+00	1.096502e+01	1.243309e+01	6.900364e+00	8.266358e+00	9.554350e+00	7.557648e-01	1.598118e+00	8.007953e-01	-8.685129e-01	1.383848e+01	1.480781e+01	5.896577e+00	1.324609e+01	9.279429e+00	1.549493e+01	1.960750e+00	1.166689e+01	7.408953e+00	7.523197e+00	2.362292e+00	5.515901e+00	1.370007e+01	9.227686e+00	4.958425e+00	7.373718e+00	
SCALARS Y-Momentum float 1
LOOKUP_TABLE default
-1.955714e-02	3.875452e-01	5.631996e+00	-9.352781e-01	5.882144e-01	2.359684e-01	5.954152e-02	-1.242185e-02	1.567467e-02	4.290549e-02	5.889328e-02	7.572455e-02	6.322756e-02	1.122444e-02	-3.721796e-03	-2.208547e-04	6.577709e-03	5.681659e-03	1.145501e-02	1.404454e-02	-1.339092e-03	2.260137e-02	8.205274e-03	7.300471e-03	-3.175021e-02	1.260621e+00	2.274907e+00	3.252581e+00	4.255078e+00	5.190214e+00	6.034012e+00	6.799922e+00	7.523739e+00	8.267829e+00	8.808613e+00	8.929192e+00	9.044905e+00	-2.618565e+00	1.113529e+00	1.936959e+00	2.717856e+00	3.339739e+00	3.755322e+00	4.005528e+00	4.046906e+00	3.891309e+00	3.570981e+00	3.078495e+00	2.452479e+00	1.596174e+00	-1.437351e-03	3.725550e-02	2.668900e-02	8.622122e-03	2.260008e-03	7.083416e-03	1.119543e-02	2.994604e-03	-4.381622e-02	-6.874162e-02	-1.030590e-01	-5.546352e-01	-5.466287e-01	-5.931140e-02	6.327779e-01	8.484229e-01	4.961861e-01	1.145225e-02	-8.063327e-04	-1.117112e-02	-4.078419e-02	-2.634898e-02	-5.282300e-03	-5.284174e-03	2.241388e-03	-3.131734e-03	9.168637e+00	2.420217e+00	5.035660e-01	-2.294091e-01	3.591919e+00	6.558599e+00	8.869889e-01	4.656927e-01	3.868130e-01	2.934421e-01	4.387295e-01	8.217761e-01	3.320873e+00	4.276865e+00	9.813709e-01	6.760201e-01	3.119692e+00	7.856311e+00	2.398104e+00	2.547798e+00	-9.033664e-01	3.260208e-01	2.537804e-01	8.180734e-01	8.463639e-01	9.096472e-01	-6.630554e-01	2.487863e-01	-5.345824e-01	1.812649e-02	8.755911e-01	8.324610e-01	2.194854e-02	8.415733e-01	1.677836e+00	1.738138e+00	1.026974e+00	1.861179e+00	1.360940e+00	2.047993e+00	2.869935e+00	3.185789e+00	3.916938e+00	4.451181e+00	4.501621e+00	5.211080e+00	4.349892e+00	5.002526e+00	1.642585e+00	2.401552e+00	3.761244e+00	1.388719e+00	2.012934e+00	3.612687e+00	3.706289e+00	5.104045e+00	3.518634e+00	4.326757e+00	3.105620e+00	2.644499e+00	3.601375e+00	2.573434e+00	2.171009e+00	2.778478e+00	2.355706e+00	2.697894e+00	2.954410e+00	5.174603e+00	2.095691e-01	4.072693e-01	1.444261e+00	1.227810e+00	2.565247e+00	2.769014e+00	2.043116e+00	3.862609e+00	2.617471e+00	3.591057e+00	1.897315e+00	2.264987e+00	1.754677e+00	2.590456e+00	6.244430e+00	2.027581e+00	5.464788e+00	4.731011e+00	2.030678e+00	2.123913e+00	2.210316e+00	3.051240e+00	1.498771e+00	9.305212e-01	8.119024e+00	4.982419e+00	4.613867e+00	3.346998e+00	4.202411e+00	1.482662e+00	2.174961e+00	1.903825e+00	1.686811e+00	3.220244e+00	2.754360e+00	7.049933e+00	2.117155e+00	2.303682e+00	2.374119e+00	1.368638e+00	1.868243e+00	1.610138e+00	6.353618e-01	1.489917e+00	2.915915e+00	2.397317e+00	3.341713e+00	6.464710e+00	6.676801e+00	9.550763e-01	3.230588e+00	3.558800e+00	1.456186e+00	4.491854e+00	3.419168e+00	2.906828e-01	3.201925e-01	-1.230612e-01	-2.206981e-01	-7.184334e-01	2.943340e+00	2.411015e+00	2.232291e+00	4.926675e+00	1.988952e+00	1.416993e+00	1.466230e+00	1.025497e+00	1.030232e+00	3.630601e+00	8.567195e+00	7.548113e+00	9.530334e+00	2.386672e+00	1.325794e+00	2.054407e+00	1.688708e+00	2.851180e+00	9.641250e-01	5.637603e+00	1.841472e+00	2.615254e+00	2.128522e+00	9.605835e+00	1.004316e+01	1.691924e+00	3.768680e-01	1.049438e+00	1.798926e+00	1.200863e+00	2.960137e+00	3.203639e+00	9.578562e-02	7.166048e+00	4.806331e+00	6.217489e-01	2.536892e+00	2.709194e+00	3.477416e+00	-9.645614e-01	6.286867e-01	6.037317e-01	3.610050e+00	4.573227e-01	2.152721e+00	6.278018e-01	1.100814e+00	8.499251e-01	1.422206e+00	1.745086e+00	1.415066e+00	6.094250e+00	3.664730e+00	8.179593e+00	8.230787e+00	3.246948e+00	6.569204e+00	1.106089e+00	5.486758e-01	3.383574e-01	7.597538e-01	-4.352128e-01	8.521870e-01	9.611653e-01	3.332305e-01	6.144948e+00	1.016184e+00	3.278935e+00	3.896491e-01	6.548542e-01	3.653876e-01	3.287241e+00	3.085361e+00	3.005269e+00	3.600007e-01	7.676728e-01	5.680875e+00	1.851844e+00	2.681638e-01	8.711348e+00	8.909073e-01	2.969499e+00	1.562303e+00	7.195283e+00	2.703998e+00	6.937989e-01	3.398519e+00	5.828044e+00	3.635715e+00	1.093803e+00	3.546585e+00	3.443531e+00	2.950709e+00	2.768098e+00	5.041764e+00	1.736573e+00	1.920846e+00	2.638515e+00	8.478587e+00	-9.472017e-01	2.184071e+00	-5.821712e-01	3.140296e+00	1.880069e+00	1.863086e+00	3.160279e+00	1.061960e+01	1.725647e+00	1.600379e+00	9.818140e-01	7.522596e-01	5.219176e+00	9.170103e-01	4.241912e+00	8.884291e-01	1.255134e+00	1.783767e+00	2.525681e+00	1.301725e+00	1.981772e+00	1.402089e+00	1.380048e+00	4.201133e+00	2.657153e+00	4.299379e-01	1.527896e+00	1.991543e+00	2.650877e+00	2.620829e+00	1.838790e+00	1.154519e+00	3.585683e+00	1.416414e+00	3.338821e+00	1.049620e+00	1.001209e+00	6.569851e+00	2.291274e+00	3.422535e+00	1.355680e+00	-4.602530e-01	-5.114728e-01	1.094262e-01	8.686338e+00	9.923304e+00	7.775836e+00	2.408005e+00	6.633645e+00	2.902395e+00	1.450325e+00	1.739049e+00	1.053559e+01	3.502196e+00	1.044352e+00	2.413453e+00	4.479672e+00	1.066816e-01	6.023375e-01	5.227690e+00	4.868369e-01	2.825108e+00	1.162963e-02	-7.795319e-01	4.418757e-01	1.262738e+00	6.695933e-01	6.738192e+00	2.018599e+00	8.456744e+00	6.106605e-01	3.104256e+00	3.338750e+00	7.337856e-01	9.103984e-01	6.002927e+00	3.980480e+00	7.746459e+00	3.797830e+00	4.328376e+00	1.416041e+00	3.376305e+00	7.582538e-01	2.068743e+00	-5.804596e-01	3.361703e+00	-1.028146e-01	3.123291e+00	7.879908e+00	6.396130e+00	1.836245e+00	
SCALARS Energy float 1
LOOKUP_TABLE default