# vtk DataFile Version 3.0
vtk output
ASCII
DATASET UNSTRUCTURED_GRID
POINTS 394 float
-3.000000e+00	0.000000e+00	0.0	-5.000000e-02	3.811804e-17	0.0	4.165463e-01	1.031785e+00	0.0	5.166016e-01	9.678645e-01	0.0	5.000000e-02	-6.780798e-18	0.0	3.000000e+00	0.000000e+00	0.0	3.000000e+00	4.000000e+00	0.0	-3.000000e+00	4.000000e+00	0.0	-3.000000e+00	3.428571e+00	0.0	-3.000000e+00	2.857143e+00	0.0	-3.000000e+00	2.285714e+00	0.0	-3.000000e+00	1.714286e+00	0.0	-3.000000e+00	1.142857e+00	0.0	-3.000000e+00	5.714286e-01	0.0	-2.473871e+00	0.000000e+00	0.0	-2.029066e+00	0.000000e+00	0.0	-1.653013e+00	0.000000e+00	0.0	-1.335087e+00	0.000000e+00	0.0	-1.066302e+00	0.000000e+00	0.0	-8.390627e-01	0.000000e+00	0.0	-6.469477e-01	0.000000e+00	0.0	-4.845277e-01	0.000000e+00	0.0	-3.472127e-01	0.000000e+00	0.0	-2.311224e-01	0.000000e+00	0.0	-1.329760e-01	0.000000e+00	0.0	-4.438897e-02	8.279857e-02	0.0	-3.074044e-02	1.650432e-01	0.0	-9.400639e-03	2.465607e-01	0.0	1.851165e-02	3.273886e-01	0.0	5.195489e-02	4.075570e-01	0.0	8.992825e-02	4.871015e-01	0.0	1.314930e-01	5.660745e-01	0.0	1.758052e-01	6.445406e-01	0.0	2.221252e-01	7.225718e-01	0.0	2.698286e-01	8.002360e-01	0.0	3.183781e-01	8.776193e-01	0.0	3.674355e-01	9.547485e-01	0.0	4.665752e-01	9.998727e-01	0.0	4.673785e-01	8.910140e-01	0.0	4.183845e-01	8.142706e-01	0.0	3.698265e-01	7.377769e-01	0.0	3.221327e-01	6.615914e-01	0.0	2.758184e-01	5.857868e-01	0.0	2.315123e-01	5.104330e-01	0.0	1.899520e-01	4.355989e-01	0.0	1.519824e-01	3.613479e-01	0.0	1.185413e-01	2.877300e-01	0.0	9.063041e-02	2.147794e-01	0.0	6.929719e-02	1.425183e-01	0.0	5.557454e-02	7.095302e-02	0.0	1.329760e-01	0.000000e+00	0.0	2.311224e-01	0.000000e+00	0.0	3.472127e-01	0.000000e+00	0.0	4.845277e-01	0.000000e+00	0.0	6.469477e-01	0.000000e+00	0.0	8.390627e-01	0.000000e+00	0.0	1.066302e+00	0.000000e+00	0.0	1.335087e+00	0.000000e+00	0.0	1.653013e+00	0.000000e+00	0.0	2.029066e+00	0.000000e+00	0.0	2.473871e+00	0.000000e+00	0.0	3.000000e+00	5.714286e-01	0.0	3.000000e+00	1.142857e+00	0.0	3.000000e+00	1.714286e+00	0.0	3.000000e+00	2.285714e+00	0.0	3.000000e+00	2.857143e+00	0.0	3.000000e+00	3.428571e+00	0.0	2.400000e+00	4.000000e+00	0.0	1.800000e+00	4.000000e+00	0.0	1.200000e+00	4.000000e+00	0.0	6.000000e-01	4.000000e+00	0.0	0.000000e+00	4.000000e+00	0.0	-6.000000e-01	4.000000e+00	0.0	-1.200000e+00	4.000000e+00	0.0	-1.800000e+00	4.000000e+00	0.0	-2.400000e+00	4.000000e+00	0.0	2.422360e-01	9.385194e-01	0.0	4.903087e-01	8.371399e-01	0.0	-1.461610e+00	2.912322e-01	0.0	1.541467e+00	1.839647e-01	0.0	2.977565e-01	5.297227e-01	0.0	6.378626e-02	6.276008e-01	0.0	-7.248737e-01	2.034389e-01	0.0	7.832776e-01	1.167938e-01	0.0	-2.539000e+00	2.106417e+00	0.0	2.610715e+00	1.904020e+00	0.0	-8.242061e-01	3.526193e+00	0.0	1.048783e+00	3.444831e+00	0.0	1.939075e-01	3.137833e-01	0.0	-4.472992e-02	3.802641e-01	0.0	-4.007334e-01	1.391732e-01	0.0	4.371100e-01	8.475893e-02	0.0	3.924185e-01	6.792266e-01	0.0	1.476889e-01	7.855998e-01	0.0	1.530195e-01	1.741315e-01	0.0	-9.330633e-02	2.171188e-01	0.0	2.571966e+00	7.558763e-01	0.0	-2.477360e+00	8.242601e-01	0.0	-2.012240e+00	3.473800e+00	0.0	2.133443e+00	3.415984e+00	0.0	-1.776750e-01	8.659056e-02	0.0	1.924421e-01	6.362962e-02	0.0	2.264336e+00	3.467903e-01	0.0	-2.237375e+00	3.824590e-01	0.0	2.565078e+00	1.343194e+00	0.0	2.244183e+00	1.632527e+00	0.0	2.229777e+00	2.059669e+00	0.0	1.933317e+00	1.784618e+00	0.0	1.902639e+00	1.368289e+00	0.0	1.665066e+00	1.572187e+00	0.0	1.642044e+00	1.932425e+00	0.0	1.429252e+00	1.716728e+00	0.0	1.429200e+00	1.406510e+00	0.0	1.236595e+00	1.533773e+00	0.0	1.233608e+00	1.275938e+00	0.0	1.059666e+00	1.361562e+00	0.0	1.041144e+00	1.637579e+00	0.0	8.895993e-01	1.497487e+00	0.0	8.482482e-01	1.743553e+00	0.0	7.019430e-01	1.632616e+00	0.0	6.467715e-01	1.853918e+00	0.0	5.066377e-01	1.740417e+00	0.0	4.260166e-01	1.965506e+00	0.0	2.744600e-01	1.808573e+00	0.0	1.077418e+00	1.141248e+00	0.0	1.374102e+00	2.067396e+00	0.0	6.248679e-01	2.121694e+00	0.0	1.195278e+00	1.021247e+00	0.0	1.035493e+00	9.500469e-01	0.0	1.624922e-01	2.090761e+00	0.0	-5.030203e-02	1.948650e+00	0.0	6.484175e-02	1.675613e+00	0.0	-2.856494e-01	1.809737e+00	0.0	-2.098908e-01	1.575436e+00	0.0	-5.204933e-01	1.657298e+00	0.0	-5.492805e-01	1.890770e+00	0.0	-4.631050e-01	1.420154e+00	0.0	-7.873607e-01	1.492928e+00	0.0	9.355048e-01	1.040211e+00	0.0	8.940490e-01	8.677685e-01	0.0	9.854869e-01	7.715459e-01	0.0	-1.475170e-01	2.234756e+00	0.0	8.306854e-01	6.942831e-01	0.0	5.626429e-01	1.509801e+00	0.0	4.720250e-01	1.052770e+00	0.0	5.325351e-01	1.014864e+00	0.0	5.013160e-01	1.099623e+00	0.0	5.672772e-01	1.081302e+00	0.0	1.002135e-01	2.403241e+00	0.0	-7.489596e-01	1.231052e+00	0.0	-1.073627e+00	1.305794e+00	0.0	-4.379416e-01	1.159819e+00	0.0	-7.793680e-01	9.511553e-01	0.0	-4.878090e-01	9.306900e-01	0.0	-1.116704e+00	1.603094e+00	0.0	9.220839e-01	5.996395e-01	0.0	1.089530e+00	6.692940e-01	0.0	7.603566e-01	5.410802e-01	0.0	5.307999e-02	1.446673e+00	0.0	1.594922e+00	2.302903e+00	0.0	4.237764e-01	1.116737e+00	0.0	4.631213e-01	1.178491e+00	0.0	5.870715e-01	9.878612e-01	0.0	6.384527e-01	1.060748e+00	0.0	6.059034e-01	1.155969e+00	0.0	6.530748e-01	9.556052e-01	0.0	1.021210e+00	4.972879e-01	0.0	1.224953e+00	5.865269e-01	0.0	3.626217e-01	1.195617e+00	0.0	-2.376894e-01	1.046618e+00	0.0	-2.766250e-01	8.681262e-01	0.0	-4.867976e-01	7.275927e-01	0.0	-2.807034e-01	6.934600e-01	0.0	-1.421175e+00	1.390293e+00	0.0	7.001871e-01	1.145273e+00	0.0	-2.511640e-01	2.553006e+00	0.0	1.724980e-02	2.763614e+00	0.0	6.792117e-01	6.191308e-01	0.0	6.059592e-01	4.820782e-01	0.0	4.144122e-01	1.275649e+00	0.0	6.871659e-01	4.052487e-01	0.0	5.319429e-01	3.563959e-01	0.0	1.292899e+00	2.453593e+00	0.0	-1.475493e+00	1.722463e+00	0.0	1.526589e+00	2.697011e+00	0.0	6.098294e-01	2.818331e-01	0.0	1.132773e+00	3.391331e-01	0.0	-1.364740e+00	1.094899e+00	0.0	-4.721214e-01	5.451781e-01	0.0	-6.398268e-01	5.751748e-01	0.0	-3.217491e-01	5.044623e-01	0.0	-4.879425e-02	9.873948e-01	0.0	-4.277822e-02	1.136272e+00	0.0	-1.892486e+00	1.487678e+00	0.0	5.326126e-01	5.580813e-01	0.0	6.158469e-01	6.934118e-01	0.0	7.767479e-01	3.251944e-01	0.0	-1.701079e-01	6.006628e-01	0.0	9.789736e-01	1.921532e+00	0.0	1.362354e+00	5.015431e-01	0.0	1.429116e+00	7.086587e-01	0.0	1.587433e+00	5.740738e-01	0.0	1.669348e+00	8.440156e-01	0.0	1.893330e+00	7.157979e-01	0.0	6.455830e-01	1.255202e+00	0.0	7.562268e-01	1.241416e+00	0.0	-4.642141e-01	3.716686e-01	0.0	-1.961819e-01	1.383093e+00	0.0	-5.189947e-01	2.351581e+00	0.0	-6.483485e-01	2.700267e+00	0.0	-9.455907e-01	2.487732e+00	0.0	-1.068907e+00	2.839743e+00	0.0	-1.450552e+00	2.523306e+00	0.0	-1.927253e-01	4.462487e-01	0.0	2.898332e-01	1.290059e+00	0.0	3.373187e-01	1.391484e+00	0.0	2.433814e-01	1.200386e+00	0.0	4.121735e-01	2.564118e+00	0.0	3.309014e-01	3.027311e+00	0.0	7.057748e-01	2.764139e+00	0.0	-1.159563e+00	1.932689e+00	0.0	8.132039e-01	9.570961e-01	0.0	-1.300762e-01	3.178717e+00	0.0	-1.124135e-01	8.288717e-01	0.0	4.590292e-01	2.427938e-01	0.0	3.670938e-01	3.089131e-01	0.0	3.234354e-01	2.140861e-01	0.0	3.162536e-01	1.127724e+00	0.0	2.045383e-01	1.109495e+00	0.0	1.862895e+00	2.548001e+00	0.0	1.597383e+00	1.250962e+00	0.0	2.545737e+00	2.478047e+00	0.0	1.123969e+00	2.881344e+00	0.0	-1.538851e+00	2.085039e+00	0.0	4.429503e-01	4.255680e-01	0.0	3.166675e-01	3.872179e-01	0.0	1.247050e+00	1.643338e-01	0.0	3.766140e-02	8.970714e-01	0.0	-8.713238e-02	5.276143e-01	0.0	4.903959e-01	3.522649e+00	0.0	-3.209176e-01	3.471862e-01	0.0	-2.084366e-01	3.109201e-01	0.0	7.555862e-01	7.959500e-01	0.0	2.231621e+00	9.860104e-01	0.0	-1.568607e+00	3.050085e+00	0.0	-1.928295e+00	2.703500e+00	0.0	6.930260e-01	1.372590e+00	0.0	-2.443540e+00	1.347371e+00	0.0	9.068260e-01	1.291058e+00	0.0	-1.173213e+00	2.634260e-01	0.0	-1.258126e+00	5.470585e-01	0.0	-1.548193e+00	5.958713e-01	0.0	-9.831879e-01	5.247256e-01	0.0	-1.060611e+00	7.890304e-01	0.0	1.791790e+00	3.010469e+00	0.0	2.831231e-01	1.624145e+00	0.0	6.615241e-01	8.318925e-01	0.0	1.539529e-01	1.297090e+00	0.0	8.246322e-02	9.854961e-01	0.0	5.410067e-01	7.612596e-01	0.0	9.585799e-03	7.700259e-01	0.0	-5.419744e-01	2.061805e-01	0.0	5.928047e-01	9.409834e-02	0.0	1.008945e+00	1.515151e-01	0.0	-9.325432e-01	2.355062e-01	0.0	1.867489e+00	2.309618e-01	0.0	3.071571e-01	7.381568e-02	0.0	-2.741917e-01	1.118002e-01	0.0	-1.415957e+00	3.542728e+00	0.0	4.759487e-01	1.375975e+00	0.0	2.574202e+00	3.091259e+00	0.0	4.160679e-01	5.050182e-01	0.0	-1.814087e+00	3.339547e-01	0.0	-1.926118e+00	7.489129e-01	0.0	1.515081e+00	9.739684e-01	0.0	4.473053e-01	6.067250e-01	0.0	5.837869e-01	8.804567e-01	0.0	1.076550e+00	2.206991e+00	0.0	-2.483898e+00	2.552090e+00	0.0	1.545428e+00	3.497780e+00	0.0	-4.478367e-02	6.560226e-01	0.0	5.340335e-01	9.273130e-01	0.0	-2.414360e+00	3.089076e+00	0.0	1.935155e-01	8.611598e-01	0.0	9.016917e-01	2.444516e-01	0.0	7.528807e-01	2.406953e+00	0.0	-7.793514e-01	3.955882e-01	0.0	1.023884e-01	7.074233e-01	0.0	4.405070e-01	7.554720e-01	0.0	-2.087810e+00	1.116602e+00	0.0	3.433341e-01	6.077144e-01	0.0	1.729107e-02	5.564839e-01	0.0	2.607742e-01	4.560336e-01	0.0	1.283297e+00	8.198674e-01	0.0	2.242011e-01	3.821497e-01	0.0	-6.875713e-02	2.964097e-01	0.0	1.673776e-01	2.436691e-01	0.0	2.567358e-01	2.656045e-01	0.0	-1.917737e-02	4.660408e-01	0.0	2.450856e-01	1.378251e-01	0.0	-1.901115e-01	1.978758e-01	0.0	-6.941558e-01	7.435497e-01	0.0	1.080585e-01	1.189669e+00	0.0	2.193156e+00	6.573375e-01	0.0	8.257634e-01	1.120061e+00	0.0	1.941056e+00	1.044593e+00	0.0	4.201257e-01	1.070312e+00	0.0	8.512602e-01	4.567285e-01	0.0	-6.060754e-01	3.859243e-01	0.0	4.792650e-01	7.015559e-01	0.0	2.828306e-01	1.058177e+00	0.0	1.282638e-01	1.039970e-01	0.0	-1.054731e-01	1.291441e-01	0.0	-1.821841e+00	1.856935e+00	0.0	-1.978168e+00	2.231198e+00	0.0	-1.940848e-01	1.211931e+00	0.0	-7.479299e-01	3.090623e+00	0.0	5.199660e-01	1.249233e+00	0.0	1.380357e+00	1.123795e+00	0.0	-3.750992e-01	2.929211e+00	0.0	1.120389e+00	8.431255e-01	0.0	9.949519e-01	2.542200e+00	0.0	7.482895e-01	3.128257e+00	0.0	-1.064950e+00	1.030927e+00	0.0	2.189077e+00	2.822986e+00	0.0	1.422167e+00	3.106768e+00	0.0	-1.059017e-01	4.389
[...]
POINT_DATA 394

SCALARS Density float 1
LOOKUP_TABLE default
1.223708e+00	1.223937e+00	1.221395e+00	1.221843e+00	1.223281e+00	1.223554e+00	1.223279e+00	1.223581e+00	1.223565e+00	1.223577e+00	1.223618e+00	1.223644e+00	1.223709e+00	1.223715e+00	1.223726e+00	1.223716e+00	1.223747e+00	1.223766e+00	1.223809e+00	1.223835e+00	1.223853e+00	1.223922e+00	1.223891e+00	1.224003e+00	1.223884e+00	1.224045e+00	1.223890e+00	1.223897e+00	1.223879e+00	1.223831e+00	1.223799e+00	1.223738e+00	1.223723e+00	1.223626e+00	1.223711e+00	1.222899e+00	1.224848e+00	1.219524e+00	1.223753e+00	1.223264e+00	1.223304e+00	1.223288e+00	1.223228e+00	1.223192e+00	1.223175e+00	1.223167e+00	1.223180e+00	1.223210e+00	1.223134e+00	1.223344e+00	1.223133e+00	1.223234e+00	1.223164e+00	1.223110e+00	1.223070e+00	1.223040e+00	1.222960e+00	1.222958e+00	1.222972e+00	1.223123e+00	1.222658e+00	1.223289e+00	1.223032e+00	1.222867e+00	1.222814e+00	1.222949e+00	1.223099e+00	1.223106e+00	1.223245e+00	1.223279e+00	1.223360e+00	1.223409e+00	1.223488e+00	1.223539e+00	1.223570e+00	1.223570e+00	1.222893e+00	1.223660e+00	1.223756e+00	1.222918e+00	1.223231e+00	1.223706e+00	1.223835e+00	1.223006e+00	1.223615e+00	1.223298e+00	1.223507e+00	1.223305e+00	1.223182e+00	1.223846e+00	1.223910e+00	1.223110e+00	1.223377e+00	1.223491e+00	1.223256e+00	1.223910e+00	1.222940e+00	1.223708e+00	1.223590e+00	1.223130e+00	1.223958e+00	1.223213e+00	1.223069e+00	1.223700e+00	1.222945e+00	1.222842e+00	1.223093e+00	1.223079e+00	1.222961e+00	1.222972e+00	1.223000e+00	1.223249e+00	1.222743e+00	1.222819e+00	1.222881e+00	1.223005e+00	1.222821e+00	1.223131e+00	1.223111e+00	1.223250e+00	1.223157e+00	1.223221e+00	1.223433e+00	1.223311e+00	1.222800e+00	1.223010e+00	1.223246e+00	1.222672e+00	1.222849e+00	1.223399e+00	1.223490e+00	1.223493e+00	1.223427e+00	1.223569e+00	1.223640e+00	1.223531e+00	1.223613e+00	1.223619e+00	1.223002e+00	1.222901e+00	1.223013e+00	1.223494e+00	1.223049e+00	1.223170e+00	1.221041e+00	1.221503e+00	1.222691e+00	1.222680e+00	1.223405e+00	1.223689e+00	1.223675e+00	1.223725e+00	1.223741e+00	1.223754e+00	1.223637e+00	1.222950e+00	1.222763e+00	1.223055e+00	1.223505e+00	1.223192e+00	1.221587e+00	1.223108e+00	1.222546e+00	1.222632e+00	1.222454e+00	1.222897e+00	1.222985e+00	1.222893e+00	1.223115e+00	1.223693e+00	1.223741e+00	1.223771e+00	1.223744e+00	1.223668e+00	1.222529e+00	1.223461e+00	1.223450e+00	1.223200e+00	1.223113e+00	1.223052e+00	1.223075e+00	1.223134e+00	1.223285e+00	1.223636e+00	1.223174e+00	1.223118e+00	1.222878e+00	1.223713e+00	1.223812e+00	1.223834e+00	1.223915e+00	1.223609e+00	1.223555e+00	1.223675e+00	1.223180e+00	1.223264e+00	1.223013e+00	1.223805e+00	1.223364e+00	1.222747e+00	1.222949e+00	1.222711e+00	1.222703e+00	1.222858e+00	1.222751e+00	1.222742e+00	1.223873e+00	1.223498e+00	1.223522e+00	1.223504e+00	1.223565e+00	1.223549e+00	1.223606e+00	1.223835e+00	1.223105e+00	1.223467e+00	1.223425e+00	1.223327e+00	1.223366e+00	1.223393e+00	1.223610e+00	1.222749e+00	1.223404e+00	1.223769e+00	1.223111e+00	1.223137e+00	1.223174e+00	1.223617e+00	1.223075e+00	1.223096e+00	1.222728e+00	1.223290e+00	1.223296e+00	1.223628e+00	1.223217e+00	1.223091e+00	1.222769e+00	1.223571e+00	1.223924e+00	1.223404e+00	1.223883e+00	1.223913e+00	1.222959e+00	1.222725e+00	1.223545e+00	1.223582e+00	1.222586e+00	1.223654e+00	1.222823e+00	1.223794e+00	1.223813e+00	1.223687e+00	1.223788e+00	1.223713e+00	1.223262e+00	1.223463e+00	1.223035e+00	1.223396e+00	1.223652e+00	1.223316e+00	1.223774e+00	1.223937e+00	1.223088e+00	1.222990e+00	1.223831e+00	1.222777e+00	1.223239e+00	1.223971e+00	1.223548e+00	1.223020e+00	1.223165e+00	1.223262e+00	1.223753e+00	1.223702e+00	1.222845e+00	1.223217e+00	1.222894e+00	1.223217e+00	1.223618e+00	1.223241e+00	1.223721e+00	1.222989e+00	1.223604e+00	1.223988e+00	1.222987e+00	1.223342e+00	1.223794e+00	1.223756e+00	1.223270e+00	1.223672e+00	1.223301e+00	1.223754e+00	1.223211e+00	1.222829e+00	1.223198e+00	1.223894e+00	1.223189e+00	1.223119e+00	1.223778e+00	1.223093e+00	1.223944e+00	1.223745e+00	1.223543e+00	1.222726e+00	1.222833e+00	1.223133e+00	1.225552e+00	1.223032e+00	1.223875e+00	1.223178e+00	1.223392e+00	1.223160e+00	1.223923e+00	1.223622e+00	1.223627e+00	1.223611e+00	1.223504e+00	1.222649e+00	1.222914e+00	1.223465e+00	1.222771e+00	1.223235e+00	1.223281e+00	1.223747e+00	1.223303e+00	1.223245e+00	1.223878e+00	1.223543e+00	1.223503e+00	1.223069e+00	1.223546e+00	1.222730e+00	1.223148e+00	1.223861e+00	1.223069e+00	1.223361e+00	1.223123e+00	1.223360e+00	1.223718e+00	1.223029e+00	1.223283e+00	1.223615e+00	1.222822e+00	1.223722e+00	1.223075e+00	1.222233e+00	1.223732e+00	1.223703e+00	1.223143e+00	1.223363e+00	1.222318e+00	1.223587e+00	1.223079e+00	1.223583e+00	1.223788e+00	1.225562e+00	1.223886e+00	1.223713e+00	1.223116e+00	1.223176e+00	1.223559e+00	1.223413e+00	1.223742e+00	1.223034e+00	1.223907e+00	1.222905e+00	1.222833e+00	1.223566e+00	1.222864e+00	1.223562e+00	1.223282e+00	1.223784e+00	1.223724e+00	1.223679e+00	1.223124e+00	1.223142e+00	1.223949e+00	1.223323e+00	1.223477e+00	1.223133e+00	1.223489e+00	1.222675e+00	1.223377e+00	1.223156e+00	1.223163e+00	1.223458e+00	1.223735e+00	1.222864e+00	1.223289e+00	1.222599e+00	1.223268e+00	1.222860e+00	1.223604e+00	1.222712e+00	
SCALARS X-Momentum float 1
LOOKUP_TABLE default
8.842229e+00	4.112899e-01	6.906474e+00	-3.392628e-01	-6.081007e-01	-4.354014e+00	1.617950e+01	1.039182e+01	1.026268e+01	1.006353e+01	9.817500e+00	9.532379e+00	9.264639e+00	9.012143e+00	8.697078e+00	8.403171e+00	7.959508e+00	7.381342e+00	6.718858e+00	5.955157e+00	5.084530e+00	4.229677e+00	3.228753e+00	2.233595e+00	1.244703e+00	8.599425e-02	4.708597e-01	1.019423e+00	1.645670e+00	2.322581e+00	2.989001e+00	3.624921e+00	4.243838e+00	4.828838e+00	5.253977e+00	5.229938e+00	4.871966e+00	3.785921e+00	7.312418e-01	9.747250e-01	1.492170e+00	1.819299e+00	2.016424e+00	2.088359e+00	1.980873e+00	1.729384e+00	1.386651e+00	9.731543e-01	5.834299e-01	2.711529e-01	-1.988832e+00	-3.597608e+00	-4.936825e+00	-6.103216e+00	-7.030305e+00	-7.722645e+00	-8.204453e+00	-8.433828e+00	-7.954904e+00	-7.028733e+00	-6.039790e+00	-4.484286e-01	5.078455e+00	1.041948e+01	1.420866e+01	1.601307e+01	1.639726e+01	1.548980e+01	1.463412e+01	1.370733e+01	1.293735e+01	1.229508e+01	1.172744e+01	1.121900e+01	1.079934e+01	1.052041e+01	5.544993e+00	1.787832e+00	7.850094e+00	-5.717023e+00	2.006884e+00	4.558817e+00	5.803307e+00	-5.465681e+00	9.754421e+00	1.257940e+01	1.137903e+01	1.382690e+01	1.070476e+00	2.705761e+00	3.872891e+00	-4.113369e+00	2.086233e+00	5.531582e+00	1.621917e-02	1.595064e+00	1.276002e+00	9.019443e+00	1.051708e+01	1.548279e+01	1.780769e+00	-1.916961e+00	-2.987596e+00	8.710793e+00	7.510857e+00	1.090767e+01	1.406043e+01	1.288136e+01	8.881998e+00	1.159056e+01	1.435816e+01	1.341534e+01	1.020663e+01	1.211406e+01	8.559139e+00	1.032681e+01	1.369608e+01	1.277008e+01	1.459869e+01	1.427748e+01	1.460651e+01	1.421044e+01	1.378335e+01	1.304807e+01	6.627590e+00	1.512965e+01	1.425026e+01	4.952779e+00	3.946696e+00	1.265898e+01	1.181714e+01	1.181044e+01	1.093390e+01	1.055148e+01	1.020220e+01	1.053971e+01	9.636170e+00	9.563785e+00	4.751490e+00	2.852393e+00	2.139076e+00	1.176161e+01	1.806808e+00	1.392501e+01	5.510058e+00	2.105476e+00	6.513302e+00	4.427416e+00	1.245142e+01	8.932250e+00	9.089702e+00	8.786645e+00	8.086638e+00	7.768958e+00	9.590763e+00	7.141765e-01	1.001998e+00	7.906693e-01	1.113458e+01	1.546737e+01	9.778428e+00	1.065774e+01	1.882395e+00	3.839012e+00	7.321653e+00	2.423773e+00	-8.512843e-01	-4.009290e-01	1.180187e+01	8.315585e+00	7.281574e+00	6.834307e+00	6.144714e+00	9.236900e+00	6.289475e+00	1.172019e+01	1.229128e+01	1.865092e+00	9.148420e-01	1.271212e+01	-4.425651e-01	-2.530365e-01	1.528662e+01	9.645278e+00	1.532195e+01	-1.774350e+00	-3.070853e+00	8.778994e+00	5.934027e+00	6.541016e+00	5.147306e+00	7.736844e+00	8.885894e+00	9.359802e+00	1.915919e+00	2.472780e+00	-1.989837e+00	5.158941e+00	1.494748e+01	-1.647181e+00	8.833076e-01	-9.150723e-01	2.370347e+00	7.383116e-01	1.011646e+01	9.109509e+00	5.107220e+00	9.889842e+00	1.113684e+01	1.123139e+01	1.073463e+01	1.085333e+01	1.036322e+01	4.138494e+00	1.225103e+01	1.308454e+01	1.094454e+01	1.318201e+01	1.284022e+01	1.380648e+01	1.001861e+01	3.320950e+00	1.210782e+01	6.693021e+00	-1.424686e+00	5.983173e-02	-9.164419e-01	1.046084e+01	9.148708e+00	1.559562e+01	7.876220e+00	1.533598e+01	1.449816e+01	9.991387e+00	1.056475e+00	1.160980e+00	-5.907260e+00	6.844258e+00	4.307557e+00	1.293706e+01	4.267150e+00	3.288141e+00	2.485559e+00	3.749089e+00	1.057609e+01	1.023357e+01	1.217991e+01	9.313407e+00	9.531778e+00	7.288808e+00	7.814765e+00	8.274368e+00	7.262866e+00	7.926265e+00	1.531120e+01	1.302748e+01	2.523204e+00	1.115239e+01	7.443452e+00	2.449563e+00	5.907735e+00	4.920903e+00	-4.919360e+00	-5.694577e+00	6.613279e+00	-4.804368e+00	-3.093263e+00	2.804549e+00	1.089020e+01	1.351048e+01	1.610510e+01	1.812820e+00	8.345482e+00	8.731379e+00	4.226943e+00	2.193466e+00	2.116323e+00	1.512562e+01	9.994777e+00	1.461070e+01	5.095477e+00	1.109603e+00	1.024641e+01	5.857182e+00	-3.676142e+00	1.425682e+01	6.497834e+00	5.081611e+00	1.922446e+00	9.077400e+00	2.086621e+00	4.052769e+00	1.787540e+00	2.559150e+00	1.474645e+00	2.089223e+00	5.914248e-01	2.190138e-01	3.381379e+00	-1.332011e+00	2.359302e+00	7.270658e+00	9.817924e+00	1.011453e-01	5.947749e+00	4.801495e+00	8.477838e+00	-6.273517e-01	5.790001e+00	2.365447e+00	8.311107e+00	-5.003498e-01	1.148385e+00	9.704644e+00	9.932165e+00	9.163316e+00	1.130588e+01	1.130756e+01	6.347259e+00	1.169896e+01	2.762542e+00	1.472602e+01	1.353191e+01	8.510012e+00	1.575784e+01	1.473918e+01	3.585096e+00	1.106037e+01	1.192267e+01	1.499710e+01	1.053626e+01	3.632555e+00	1.451787e+01	3.467726e+00	-3.057683e+00	1.484240e+01	-2.374340e+00	1.333950e+01	8.961733e+00	-3.499322e+00	1.361913e+01	1.005707e+01	2.661616e+00	8.307914e+00	-2.824519e+00	-2.956374e+00	8.874626e+00	6.572070e+00	7.090174e+00	1.213784e+01	8.411659e+00	9.967737e+00	1.142660e+01	1.032842e+01	4.385696e+00	6.285687e+00	3.069366e+00	8.614569e+00	-2.824346e-01	1.294889e+01	1.036609e+01	1.238601e+01	5.864318e+00	1.598821e+01	2.491605e+00	-3.606203e+00	-1.945822e+00	1.037608e+01	-2.090534e+00	1.097884e+01	1.251132e+01	7.002701e+00	8.452382e+00	9.589943e+00	8.316922e-01	1.666134e+00	8.373361e-01	-8.472214e-01	1.388987e+01	1.482378e+01	6.157700e+00	1.325180e+01	9.382638e+00	1.548200e+01	2.022387e+00	1.167378e+01	7.504300e+00	7.505864e+00	2.415941e+00	5.478770e+00	1.372338e+01	9.328990e+00	5.230237e+00	7.324162e+00	
SCALARS Y-Momentum float 1
LOOKUP_TABLE default
-1.905945e-02	4.051007e-01	5.444942e+00	-9.454778e-01	5.755335e-01	2.364801e-01	5.973651e-02	-1.229809e-02	1.515947e-02	4.207298e-02	5.768324e-02	7.420274e-02	6.176066e-02	1.066208e-02	-3.638623e-03	-2.266815e-04	6.689947e-03	5.854616e-03	1.176154e-02	1.445187e-02	2.375505e-05	2.557049e-02	1.014748e-02	7.526847e-03	-3.305527e-02	1.321181e+00	2.378554e+00	3.378245e+00	4.383005e+00	5.301714e+00	6.115264e+00	6.843355e+00	7.528298e+00	8.237433e+00	8.743621e+00	8.842024e+00	8.916603e+00	-2.690697e+00	1.024631e+00	1.824583e+00	2.587984e+00	3.198804e+00	3.605626e+00	3.849697e+00	3.893704e+00	3.749454e+00	3.445690e+00	2.976416e+00	2.379457e+00	1.555451e+00	-9.589725e-04	3.797991e-02	2.602697e-02	8.376824e-03	1.803545e-03	6.403466e-03	1.060775e-02	3.544314e-03	-4.179958e-02	-6.675563e-02	-1.027694e-01	-5.523676e-01	-5.363949e-01	-4.044220e-02	6.529180e-01	8.628171e-01	5.016464e-01	1.098365e-02	-1.024330e-03	-1.127100e-02	-4.083630e-02	-2.654060e-02	-5.506362e-03	-5.396525e-03	2.014353e-03	-3.230885e-03	9.081089e+00	2.308638e+00	5.014336e-01	-2.206233e-01	3.445047e+00	6.584405e+00	8.978848e-01	4.473438e-01	3.811750e-01	3.062127e-01	4.317183e-01	8.229967e-01	3.196381e+00	4.380923e+00	1.008417e+00	6.471585e-01	2.983299e+00	7.823964e+00	2.315748e+00	2.645802e+00	-8.987815e-01	3.216466e-01	2.493537e-01	8.216405e-01	8.788491e-01	8.832459e-01	-6.576934e-01	2.458811e-01	-5.270852e-01	1.839238e-02	8.800622e-01	8.215236e-01	6.962086e-03	8.120996e-01	1.660402e+00	1.699763e+00	9.816658e-01	1.804378e+00	1.303810e+00	1.972989e+00	2.809476e+00	3.105116e+00	3.864233e+00	4.386707e+00	4.465776e+00	5.168325e+00	4.325756e+00	4.970736e+00	1.579833e+00	2.382355e+00	3.741343e+00	1.347536e+00	1.967611e+00	3.592160e+00	3.681660e+00	5.069366e+00	3.491572e+00	4.295716e+00	3.079898e+00	2.619094e+00	3.576514e+00	2.551013e+00	2.112005e+00	2.728158e+00	2.315382e+00	2.677264e+00	2.891214e+00	5.098934e+00	1.241683e-01	3.540370e-01	1.334905e+00	1.146462e+00	2.549496e+00	2.750634e+00	2.023925e+00	3.844063e+00	2.605450e+00	3.582413e+00	1.876269e+00	2.216329e+00	1.729797e+00	2.512269e+00	6.196206e+00	2.023034e+00	5.323087e+00	4.604685e+00	1.973197e+00	2.051617e+00	2.107200e+00	2.990719e+00	1.470943e+00	9.232805e-01	7.989124e+00	4.961544e+00	4.607925e+00	3.352487e+00	4.221112e+00	1.465433e+00	2.086623e+00	1.885885e+00	1.674109e+00	3.123844e+00	2.653012e+00	6.938233e+00	2.038946e+00	2.209999e+00	2.369042e+00	1.351463e+00	1.870724e+00	1.542585e+00	6.265368e-01	1.474584e+00	2.938009e+00	2.407809e+00	3.382885e+00	6.431498e+00	6.628656e+00	9.426269e-01	3.110634e+00	3.449553e+00	1.403842e+00	4.534710e+00	3.381952e+00	2.951575e-01	3.168796e-01	-1.151214e-01	-2.218658e-01	-7.120921e-01	2.836776e+00	2.313672e+00	2.264636e+00	4.891386e+00	1.967447e+00	1.399286e+00	1.446568e+00	1.010584e+00	1.015331e+00	3.696722e+00	8.470307e+00	7.466411e+00	9.421775e+00	2.376641e+00	1.319054e+00	2.050033e+00	1.667934e+00	2.794782e+00	9.543102e-01	5.632474e+00	1.765153e+00	2.512979e+00	2.048079e+00	9.460548e+00	9.933488e+00	1.695743e+00	3.498882e-01	1.060922e+00	1.799323e+00	1.184502e+00	2.843115e+00	3.075495e+00	9.673461e-02	7.132493e+00	4.868390e+00	6.195928e-01	2.587360e+00	2.780604e+00	3.404764e+00	-9.636688e-01	6.188359e-01	5.948789e-01	3.513811e+00	4.508600e-01	2.063243e+00	6.278574e-01	1.096358e+00	8.435159e-01	1.422418e+00	1.736447e+00	1.420444e+00	6.048983e+00	3.580524e+00	8.103864e+00	8.171820e+00	3.127968e+00	6.563137e+00	1.126946e+00	5.237457e-01	3.283438e-01	7.637917e-01	-4.254682e-01	8.221750e-01	9.931410e-01	3.275974e-01	6.052706e+00	1.023251e+00	3.147561e+00	3.863723e-01	6.477825e-01	3.495749e-01	3.153115e+00	2.999147e+00	2.987778e+00	3.545560e-01	7.707538e-01	5.712158e+00	1.782654e+00	2.639008e-01	8.650944e+00	8.634612e-01	2.958639e+00	1.571859e+00	7.191452e+00	2.577584e+00	6.848812e-01	3.256421e+00	5.883039e+00	3.489488e+00	1.075253e+00	3.408798e+00	3.553594e+00	2.845009e+00	2.664042e+00	5.125835e+00	1.675804e+00	1.987441e+00	2.636567e+00	8.399754e+00	-9.399037e-01	2.109218e+00	-5.871845e-01	2.987669e+00	1.824441e+00	1.882895e+00	3.029023e+00	1.047843e+01	1.673602e+00	1.668141e+00	9.685126e-01	7.415064e-01	5.187173e+00	9.041258e-01	4.126476e+00	8.539073e-01	1.240553e+00	1.753060e+00	2.521176e+00	1.299857e+00	1.966730e+00	1.408998e+00	1.384599e+00	4.284004e+00	2.632633e+00	4.240461e-01	1.526041e+00	1.968578e+00	2.588084e+00	2.580988e+00	1.889138e+00	1.103850e+00	3.564221e+00	1.359690e+00	3.323275e+00	1.036899e+00	9.591868e-01	6.504986e+00	2.267594e+00	3.363835e+00	1.344992e+00	-4.478846e-01	-5.098362e-01	1.079580e-01	8.626324e+00	9.830435e+00	7.705471e+00	2.293111e+00	6.580126e+00	2.807103e+00	1.430772e+00	1.777416e+00	1.040806e+01	3.593014e+00	1.033719e+00	2.325439e+00	4.378651e+00	1.047605e-01	5.970432e-01	5.247253e+00	4.890280e-01	2.916894e+00	2.167419e-02	-7.680311e-01	4.349277e-01	1.228438e+00	6.589661e-01	6.684000e+00	2.022092e+00	8.384470e+00	6.021913e-01	2.982819e+00	3.202005e+00	7.653468e-01	8.866216e-01	5.952471e+00	3.948687e+00	7.711366e+00	3.711658e+00	4.302116e+00	1.422672e+00	3.236537e+00	7.475251e-01	2.064065e+00	-5.856162e-01	3.236265e+00	-1.155034e-01	3.111283e+00	7.700088e+00	6.409463e+00	1.760640e+00	
SCALARS Energy float 1
LOOKUP_TABLE default