# vtk DataFile Version 3.0
vtk output
ASCII
DATASET UNSTRUCTURED_GRID
POINTS 394 float
-3.000000e+00	0.000000e+00	0.0	-5.000000e-02	1.402048e-17	0.0	2.166531e-01	1.017724e+00	0.0	3.167078e-01	9.826131e-01	0.0	5.000000e-02	-8.401348e-18	0.0	3.000000e+00	0.000000e+00	0.0	3.000000e+00	4.000000e+00	0.0	-3.000000e+00	4.000000e+00	0.0	-3.000000e+00	3.428571e+00	0.0	-3.000000e+00	2.857143e+00	0.0	-3.000000e+00	2.285714e+00	0.0	-3.000000e+00	1.714286e+00	0.0	-3.000000e+00	1.142857e+00	0.0	-3.000000e+00	5.714286e-01	0.0	-2.473871e+00	0.000000e+00	0.0	-2.029066e+00	0.000000e+00	0.0	-1.653013e+00	0.000000e+00	0.0	-1.335087e+00	0.000000e+00	0.0	-1.066302e+00	0.000000e+00	0.0	-8.390627e-01	0.000000e+00	0.0	-6.469477e-01	0.000000e+00	0.0	-4.845277e-01	0.000000e+00	0.0	-3.472127e-01	0.000000e+00	0.0	-2.311224e-01	0.000000e+00	0.0	-1.329760e-01	0.000000e+00	0.0	-4.611703e-02	8.083377e-02	0.0	-3.715264e-02	1.610598e-01	0.0	-2.365100e-02	2.406317e-01	0.0	-6.565119e-03	3.196492e-01	0.0	1.332835e-02	3.982049e-01	0.0	3.538367e-02	4.763785e-01	0.0	5.906733e-02	5.542413e-01	0.0	8.395040e-02	6.318565e-01	0.0	1.096914e-01	7.092782e-01	0.0	1.360281e-01	7.865461e-01	0.0	1.627311e-01	8.637020e-01	0.0	1.897097e-01	9.407404e-01	0.0	2.666808e-01	1.000216e+00	0.0	2.896446e-01	9.057167e-01	0.0	2.627232e-01	8.288585e-01	0.0	2.360052e-01	7.521108e-01	0.0	2.096740e-01	6.754877e-01	0.0	1.839355e-01	5.990248e-01	0.0	1.590564e-01	5.227644e-01	0.0	1.353761e-01	4.467593e-01	0.0	1.133246e-01	3.710717e-01	0.0	9.343458e-02	2.957711e-01	0.0	7.635225e-02	2.209361e-01	0.0	6.285851e-02	1.466538e-01	0.0	5.384469e-02	7.300420e-02	0.0	1.329760e-01	0.000000e+00	0.0	2.311224e-01	0.000000e+00	0.0	3.472127e-01	0.000000e+00	0.0	4.845277e-01	0.000000e+00	0.0	6.469477e-01	0.000000e+00	0.0	8.390627e-01	0.000000e+00	0.0	1.066302e+00	0.000000e+00	0.0	1.335087e+00	0.000000e+00	0.0	1.653013e+00	0.000000e+00	0.0	2.029066e+00	0.000000e+00	0.0	2.473871e+00	0.000000e+00	0.0	3.000000e+00	5.714286e-01	0.0	3.000000e+00	1.142857e+00	0.0	3.000000e+00	1.714286e+00	0.0	3.000000e+00	2.285714e+00	0.0	3.000000e+00	2.857143e+00	0.0	3.000000e+00	3.428571e+00	0.0	2.400000e+00	4.000000e+00	0.0	1.800000e+00	4.000000e+00	0.0	1.200000e+00	4.000000e+00	0.0	6.000000e-01	4.000000e+00	0.0	0.000000e+00	4.000000e+00	0.0	-6.000000e-01	4.000000e+00	0.0	-1.200000e+00	4.000000e+00	0.0	-1.800000e+00	4.000000e+00	0.0	-2.400000e+00	4.000000e+00	0.0	8.545986e-02	9.161117e-01	0.0	3.234007e-01	8.599958e-01	0.0	-1.469838e+00	2.734962e-01	0.0	1.520866e+00	2.034284e-01	0.0	2.155351e-01	5.493533e-01	0.0	-1.628613e-02	6.048348e-01	0.0	-7.331230e-01	1.851253e-01	0.0	7.656475e-01	1.346462e-01	0.0	-2.558925e+00	2.092794e+00	0.0	2.566564e+00	1.921229e+00	0.0	-8.694223e-01	3.516592e+00	0.0	9.849281e-01	3.449146e+00	0.0	1.597935e-01	3.276404e-01	0.0	-7.617857e-02	3.649536e-01	0.0	-4.059670e-01	1.264660e-01	0.0	4.272426e-01	9.515804e-02	0.0	2.698001e-01	7.012798e-01	0.0	2.977675e-02	7.611799e-01	0.0	1.391845e-01	1.831524e-01	0.0	-1.051728e-01	2.073286e-01	0.0	2.546950e+00	7.834653e-01	0.0	-2.487775e+00	8.081533e-01	0.0	-2.031514e+00	3.463493e+00	0.0	2.100263e+00	3.425556e+00	0.0	-1.800734e-01	8.138229e-02	0.0	1.885666e-01	6.831855e-02	0.0	2.243344e+00	3.705269e-01	0.0	-2.242386e+00	3.713240e-01	0.0	2.516767e+00	1.370453e+00	0.0	2.168193e+00	1.666902e+00	0.0	2.151462e+00	2.082849e+00	0.0	1.831474e+00	1.818235e+00	0.0	1.807172e+00	1.414989e+00	0.0	1.542337e+00	1.613671e+00	0.0	1.519355e+00	1.963095e+00	0.0	1.286478e+00	1.751378e+00	0.0	1.290677e+00	1.450478e+00	0.0	1.079524e+00	1.568956e+00	0.0	1.080906e+00	1.319772e+00	0.0	8.867150e-01	1.397456e+00	0.0	8.688034e-01	1.661240e+00	0.0	7.016818e-01	1.518061e+00	0.0	6.694809e-01	1.755242e+00	0.0	5.120858e-01	1.640728e+00	0.0	4.667712e-01	1.856816e+00	0.0	3.180515e-01	1.734298e+00	0.0	2.500928e-01	1.958830e+00	0.0	8.959476e-02	1.792201e+00	0.0	9.157955e-01	1.183952e+00	0.0	1.237332e+00	2.092701e+00	0.0	4.588046e-01	2.123051e+00	0.0	1.054760e+00	1.071863e+00	0.0	8.895596e-01	9.958255e-01	0.0	1.182127e-03	2.074918e+00	0.0	-2.065718e-01	1.919574e+00	0.0	-1.151395e-01	1.643850e+00	0.0	-4.267905e-01	1.766477e+00	0.0	-3.611469e-01	1.524747e+00	0.0	-6.455219e-01	1.607655e+00	0.0	-6.729770e-01	1.845177e+00	0.0	-5.903614e-01	1.360562e+00	0.0	-8.866325e-01	1.440382e+00	0.0	7.704665e-01	1.078264e+00	0.0	7.446722e-01	9.096236e-01	0.0	8.593189e-01	8.180476e-01	0.0	-2.874566e-01	2.206651e+00	0.0	7.077798e-01	7.385117e-01	0.0	3.651338e-01	1.508639e+00	0.0	2.697083e-01	1.049444e+00	0.0	3.298353e-01	1.026197e+00	0.0	2.983207e-01	1.098892e+00	0.0	3.660625e-01	1.089965e+00	0.0	-4.335981e-02	2.384817e+00	0.0	-8.366218e-01	1.176718e+00	0.0	-1.142944e+00	1.255102e+00	0.0	-5.526560e-01	1.099948e+00	0.0	-8.367709e-01	8.969187e-01	0.0	-5.673614e-01	8.718901e-01	0.0	-1.196413e+00	1.554417e+00	0.0	8.220201e-01	6.467483e-01	0.0	9.846167e-01	7.198160e-01	0.0	6.658798e-01	5.845196e-01	0.0	-1.264837e-01	1.406179e+00	0.0	1.480711e+00	2.325572e+00	0.0	2.216636e-01	1.103625e+00	0.0	2.601775e-01	1.171380e+00	0.0	3.918644e-01	1.005656e+00	0.0	4.425627e-01	1.077936e+00	0.0	4.042149e-01	1.165185e+00	0.0	4.687449e-01	9.805231e-01	0.0	9.418069e-01	5.463136e-01	0.0	1.139797e+00	6.350498e-01	0.0	1.658221e-01	1.177048e+00	0.0	-3.580368e-01	9.897669e-01	0.0	-3.664615e-01	8.112888e-01	0.0	-5.421307e-01	6.784618e-01	0.0	-3.445883e-01	6.426348e-01	0.0	-1.477155e+00	1.343587e+00	0.0	5.054889e-01	1.163279e+00	0.0	-3.701211e-01	2.527622e+00	0.0	-9.800750e-02	2.743782e+00	0.0	5.652161e-01	6.626031e-01	0.0	5.213790e-01	5.210072e-01	0.0	2.144180e-01	1.262240e+00	0.0	6.192193e-01	4.429077e-01	0.0	4.759304e-01	3.882821e-01	0.0	1.166859e+00	2.468917e+00	0.0	-1.539147e+00	1.680408e+00	0.0	1.425982e+00	2.714187e+00	0.0	5.666345e-01	3.114357e-01	0.0	1.083043e+00	3.798693e-01	0.0	-1.409081e+00	1.049279e+00	0.0	-5.078918e-01	5.060148e-01	0.0	-6.745953e-01	5.345890e-01	0.0	-3.580279e-01	4.674124e-01	0.0	-1.817803e-01	9.349641e-01	0.0	-1.938732e-01	1.086374e+00	0.0	-1.932938e+00	1.452043e+00	0.0	4.292771e-01	5.988351e-01	0.0	4.827857e-01	7.347051e-01	0.0	7.233744e-01	3.606316e-01	0.0	-2.283079e-01	5.596006e-01	0.0	8.102913e-01	1.933690e+00	0.0	1.295480e+00	5.445094e-01	0.0	1.342908e+00	7.590417e-01	0.0	1.524131e+00	6.192246e-01	0.0	1.583579e+00	8.925142e-01	0.0	1.834551e+00	7.586350e-01	0.0	4.472459e-01	1.265585e+00	0.0	5.636201e-01	1.259955e+00	0.0	-4.833699e-01	3.431951e-01	0.0	-3.434944e-01	1.326803e+00	0.0	-6.351203e-01	2.318310e+00	0.0	-7.415880e-01	2.674959e+00	0.0	-1.034020e+00	2.455994e+00	0.0	-1.141071e+00	2.818918e+00	0.0	-1.516448e+00	2.492553e+00	0.0	-2.257087e-01	4.152704e-01	0.0	9.794198e-02	1.265363e+00	0.0	1.424723e-01	1.371021e+00	0.0	5.746411e-02	1.171057e+00	0.0	2.678913e-01	2.558961e+00	0.0	2.305190e-01	3.018903e+00	0.0	5.803719e-01	2.766612e+00	0.0	-1.242421e+00	1.889469e+00	0.0	6.423914e-01	9.933026e-01	0.0	-2.071104e-01	3.160957e+00	0.0	-2.108257e-01	7.771913e-01	0.0	4.275027e-01	2.660403e-01	0.0	3.268857e-01	3.364540e-01	0.0	2.997334e-01	2.333323e-01	0.0	1.256657e-01	1.104607e+00	0.0	2.914778e-02	1.077250e+00	0.0	1.773991e+00	2.569160e+00	0.0	1.480575e+00	1.300455e+00	0.0	2.498221e+00	2.489939e+00	0.0	1.016466e+00	2.890902e+00	0.0	-1.602930e+00	2.046453e+00	0.0	3.733139e-01	4.620307e-01	0.0	2.629683e-01	4.129107e-01	0.0	1.226087e+00	1.839746e-01	0.0	-8.988217e-02	8.537970e-01	0.0	-1.375953e-01	4.978555e-01	0.0	4.325116e-01	3.516654e+00	0.0	-3.401927e-01	3.219989e-01	0.0	-2.261682e-01	2.899159e-01	0.0	6.039059e-01	8.354280e-01	0.0	2.171771e+00	1.027502e+00	0.0	-1.612738e+00	3.034273e+00	0.0	-1.968257e+00	2.686116e+00	0.0	4.973373e-01	1.383885e+00	0.0	-2.462829e+00	1.324919e+00	0.0	7.246536e-01	1.319109e+00	0.0	-1.181515e+00	2.449154e-01	0.0	-1.279785e+00	5.138612e-01	0.0	-1.567732e+00	5.645040e-01	0.0	-1.007250e+00	4.853647e-01	0.0	-1.097296e+00	7.424413e-01	0.0	1.717425e+00	3.024044e+00	0.0	9.197845e-02	1.604079e+00	0.0	4.984463e-01	8.643899e-01	0.0	-2.833897e-02	1.261554e+00	0.0	-6.285911e-02	9.438985e-01	0.0	3.928190e-01	7.948000e-01	0.0	-9.040696e-02	7.308161e-01	0.0	-5.493291e-01	1.862233e-01	0.0	5.803735e-01	1.072062e-01	0.0	9.868770e-01	1.744405e-01	0.0	-9.402551e-01	2.157363e-01	0.0	1.847047e+00	2.523850e-01	0.0	3.002545e-01	8.093959e-02	0.0	-2.779525e-01	1.032535e-01	0.0	-1.446298e+00	3.533977e+00	0.0	2.762094e-01	1.368350e+00	0.0	2.548508e+00	3.096826e+00	0.0	3.307718e-01	5.388073e-01	0.0	-1.820731e+00	3.177956e-01	0.0	-1.945509e+00	7.182957e-01	0.0	1.410168e+00	1.023492e+00	0.0	3.378743e-01	6.384506e-01	0.0	4.050713e-01	9.062823e-01	0.0	9.245314e-01	2.218032e+00	0.0	-2.503372e+00	2.539591e+00	0.0	1.494923e+00	3.504075e+00	0.0	-1.213637e-01	6.195620e-01	0.0	3.414790e-01	9.466035e-01	0.0	-2.433508e+00	3.082865e+00	0.0	5.686506e-02	8.376561e-01	0.0	8.626518e-01	2.771093e-01	0.0	6.015195e-01	2.408883e+00	0.0	-7.980311e-01	3.637317e-01	0.0	4.905298e-03	6.833491e-01	0.0	2.975228e-01	7.781327e-01	0.0	-2.113424e+00	1.085421e+00	0.0	2.410430e-01	6.283846e-01	0.0	-4.593669e-02	5.337039e-01	0.0	1.965569e-01	4.746167e-01	0.0	1.171853e+00	8.735498e-01	0.0	1.771132e-01	3.983786e-01	0.0	-8.904733e-02	2.843082e-01	0.0	1.449093e-01	2.547823e-01	0.0	2.273046e-01	2.837495e-01	0.0	-6.451212e-02	4.471010e-01	0.0	2.322901e-01	1.493868e-01	0.0	-1.993663e-01	1.849542e-01	0.0	-7.387759e-01	6.956186e-01	0.0	-6.320085e-02	1.149137e+00	0.0	2.153692e+00	6.944338e-01	0.0	6.436055e-01	1.149121e+00	0.0	1.859384e+00	1.091845e+00	0.0	2.196920e-01	1.057304e+00	0.0	7.755998e-01	4.993541e-01	0.0	-6.255833e-01	3.549256e-01	0.0	3.468631e-01	7.313003e-01	0.0	1.030198e-01	1.035149e+00	0.0	1.227141e-01	1.087846e-01	0.0	-1.101017e-01	1.237328e-01	0.0	-1.872105e+00	1.821756e+00	0.0	-2.021368e+00	2.202190e+00	0.0	-3.341129e-01	1.157664e+00	0.0	-8.178889e-01	3.074378e+00	0.0	3.164649e-01	1.246623e+00	0.0	1.250598e+00	1.172648e+00	0.0	-4.636198e-01	2.909115e+00	0.0	9.933805e-01	8.939489e-01	0.0	8.604205e-01	2.550322e+00	0.0	6.534677e-01	3.128433e+00	0.0	-1.116369e+00	9.813846e-01	0.0	2.127722e+00	2.839946e+00	0.0	1.342090e+00	3.118892e+00	0.0	-1.4267
[...]
POINT_DATA 394

SCALARS Density float 1
LOOKUP_TABLE default
1.223727e+00	1.223976e+00	1.221701e+00	1.221654e+00	1.223214e+00	1.223561e+00	1.223272e+00	1.223590e+00	1.223572e+00	1.223586e+00	1.223631e+00	1.223661e+00	1.223731e+00	1.223737e+00	1.223750e+00	1.223739e+00	1.223773e+00	1.223796e+00	1.223840e+00	1.223866e+00	1.223890e+00	1.223948e+00	1.223927e+00	1.224017e+00	1.223925e+00	1.224044e+00	1.223932e+00	1.223949e+00	1.223943e+00	1.223914e+00	1.223893e+00	1.223845e+00	1.223832e+00	1.223737e+00	1.223821e+00	1.222956e+00	1.224934e+00	1.219749e+00	1.223638e+00	1.223158e+00	1.223167e+00	1.223130e+00	1.223078e+00	1.223051e+00	1.223049e+00	1.223053e+00	1.223079e+00	1.223120e+00	1.223051e+00	1.223292e+00	1.223070e+00	1.223189e+00	1.223110e+00	1.223048e+00	1.223005e+00	1.222976e+00	1.222887e+00	1.222920e+00	1.222937e+00	1.223091e+00	1.222630e+00	1.223291e+00	1.223014e+00	1.222859e+00	1.222806e+00	1.222947e+00	1.223102e+00	1.223103e+00	1.223232e+00	1.223264e+00	1.223347e+00	1.223405e+00	1.223489e+00	1.223544e+00	1.223578e+00	1.223578e+00	1.223089e+00	1.223478e+00	1.223783e+00	1.222868e+00	1.223091e+00	1.223790e+00	1.223859e+00	1.222941e+00	1.223629e+00	1.223271e+00	1.223512e+00	1.223305e+00	1.223081e+00	1.223901e+00	1.223934e+00	1.223054e+00	1.223222e+00	1.223581e+00	1.223179e+00	1.223954e+00	1.222873e+00	1.223729e+00	1.223599e+00	1.223131e+00	1.223976e+00	1.223157e+00	1.223036e+00	1.223722e+00	1.222890e+00	1.222833e+00	1.223086e+00	1.223050e+00	1.222911e+00	1.222944e+00	1.222995e+00	1.223211e+00	1.222742e+00	1.222823e+00	1.222810e+00	1.222981e+00	1.222837e+00	1.223148e+00	1.223112e+00	1.223258e+00	1.223180e+00	1.223237e+00	1.223456e+00	1.223331e+00	1.222817e+00	1.223006e+00	1.223262e+00	1.222619e+00	1.222787e+00	1.223417e+00	1.223505e+00	1.223519e+00	1.223455e+00	1.223603e+00	1.223671e+00	1.223559e+00	1.223652e+00	1.223645e+00	1.222941e+00	1.222847e+00	1.222916e+00	1.223516e+00	1.222938e+00	1.223200e+00	1.221558e+00	1.221642e+00	1.222635e+00	1.222747e+00	1.223410e+00	1.223715e+00	1.223706e+00	1.223760e+00	1.223769e+00	1.223789e+00	1.223665e+00	1.222837e+00	1.222669e+00	1.222941e+00	1.223533e+00	1.223199e+00	1.221644e+00	1.223149e+00	1.222688e+00	1.222665e+00	1.222536e+00	1.222885e+00	1.222875e+00	1.222803e+00	1.223118e+00	1.223743e+00	1.223769e+00	1.223821e+00	1.223795e+00	1.223684e+00	1.222610e+00	1.223478e+00	1.223460e+00	1.223074e+00	1.222996e+00	1.223099e+00	1.222956e+00	1.223020e+00	1.223282e+00	1.223657e+00	1.223173e+00	1.223044e+00	1.222760e+00	1.223737e+00	1.223854e+00	1.223871e+00	1.223934e+00	1.223711e+00	1.223624e+00	1.223694e+00	1.223043e+00	1.223109e+00	1.222902e+00	1.223885e+00	1.223352e+00	1.222676e+00	1.222856e+00	1.222634e+00	1.222650e+00	1.222784e+00	1.222800e+00	1.222756e+00	1.223927e+00	1.223546e+00	1.223531e+00	1.223515e+00	1.223581e+00	1.223558e+00	1.223622e+00	1.223884e+00	1.223161e+00	1.223482e+00	1.223466e+00	1.223335e+00	1.223371e+00	1.223408e+00	1.223629e+00	1.222737e+00	1.223404e+00	1.223849e+00	1.223018e+00	1.223040e+00	1.223082e+00	1.223727e+00	1.223057e+00	1.223090e+00	1.222694e+00	1.223293e+00	1.223289e+00	1.223645e+00	1.223089e+00	1.222987e+00	1.222688e+00	1.223660e+00	1.223985e+00	1.223400e+00	1.223908e+00	1.223946e+00	1.222880e+00	1.222710e+00	1.223553e+00	1.223591e+00	1.222632e+00	1.223673e+00	1.222879e+00	1.223821e+00	1.223846e+00	1.223713e+00	1.223817e+00	1.223751e+00	1.223257e+00	1.223515e+00	1.222953e+00	1.223438e+00	1.223681e+00	1.223195e+00	1.223850e+00	1.223956e+00	1.223017e+00	1.222913e+00	1.223859e+00	1.222712e+00	1.223182e+00	1.223992e+00	1.223553e+00	1.223047e+00	1.223164e+00	1.223126e+00	1.223778e+00	1.223722e+00	1.222753e+00	1.223073e+00	1.222836e+00	1.223223e+00	1.223630e+00	1.223235e+00	1.223798e+00	1.222929e+00	1.223614e+00	1.224004e+00	1.222903e+00	1.223340e+00	1.223836e+00	1.223824e+00	1.223167e+00	1.223692e+00	1.223158e+00	1.223833e+00	1.223083e+00	1.222757e+00	1.223085e+00	1.223936e+00	1.223099e+00	1.223038e+00	1.223847e+00	1.223027e+00	1.223978e+00	1.223803e+00	1.223618e+00	1.222714e+00	1.222814e+00	1.223092e+00	1.224964e+00	1.222928e+00	1.223919e+00	1.223064e+00	1.223427e+00	1.223093e+00	1.223954e+00	1.223641e+00	1.223644e+00	1.223685e+00	1.223513e+00	1.222683e+00	1.222858e+00	1.223469e+00	1.222691e+00	1.223241e+00	1.223277e+00	1.223783e+00	1.223307e+00	1.223243e+00	1.223951e+00	1.223564e+00	1.223505e+00	1.223056e+00	1.223565e+00	1.222760e+00	1.223153e+00	1.223900e+00	1.222985e+00	1.223361e+00	1.223041e+00	1.223370e+00	1.223749e+00	1.222928e+00	1.223327e+00	1.223633e+00	1.222798e+00	1.223748e+00	1.223024e+00	1.222220e+00	1.223757e+00	1.223824e+00	1.223305e+00	1.223421e+00	1.222535e+00	1.223620e+00	1.223070e+00	1.223602e+00	1.223852e+00	1.225309e+00	1.223956e+00	1.223741e+00	1.223025e+00	1.223230e+00	1.223563e+00	1.223416e+00	1.223818e+00	1.223030e+00	1.223959e+00	1.222848e+00	1.222798e+00	1.223581e+00	1.222792e+00	1.223575e+00	1.223311e+00	1.223820e+00	1.223802e+00	1.223696e+00	1.223007e+00	1.223007e+00	1.223984e+00	1.223257e+00	1.223464e+00	1.223149e+00	1.223629e+00	1.222767e+00	1.223437e+00	1.223158e+00	1.223026e+00	1.223470e+00	1.223776e+00	1.222819e+00	1.223147e+00	1.222561e+00	1.223287e+00	1.222960e+00	1.223742e+00	1.222713e+00	
SCALARS X-Momentum float 1
LOOKUP_TABLE default
8.515709e+00	3.215272e-01	5.947028e+00	-8.517352e-02	-6.603058e-01	-4.795175e+00	1.622466e+01	1.028222e+01	1.013569e+01	9.912070e+00	9.636160e+00	9.315274e+00	9.006326e+00	8.712590e+00	8.355282e+00	8.035479e+00	7.549879e+00	6.928615e+00	6.222906e+00	5.425368e+00	4.543442e+00	3.703989e+00	2.769880e+00	1.875088e+00	1.017383e+00	2.301960e-02	2.221150e-01	4.992971e-01	7.966377e-01	1.121045e+00	1.451118e+00	1.785464e+00	2.134538e+00	2.491687e+00	2.785398e+00	2.812078e+00	2.604944e+00	4.464274e+00	5.430316e-01	6.913891e-01	1.039694e+00	1.241324e+00	1.369317e+00	1.420160e+00	1.348085e+00	1.181758e+00	9.604449e-01	6.814105e-01	4.209762e-01	2.181010e-01	-2.110064e+00	-3.799680e+00	-5.217450e+00	-6.480508e+00	-7.497296e+00	-8.235022e+00	-8.747326e+00	-8.962119e+00	-8.396679e+00	-7.436116e+00	-6.455053e+00	-9.071473e-01	4.668897e+00	1.014353e+01	1.408542e+01	1.599734e+01	1.642577e+01	1.555296e+01	1.470154e+01	1.378371e+01	1.301666e+01	1.236262e+01	1.175633e+01	1.119920e+01	1.073765e+01	1.042777e+01	3.405477e+00	1.408150e+00	7.411704e+00	-6.097663e+00	1.380268e+00	2.786547e+00	5.209322e+00	-5.945020e+00	9.556187e+00	1.254179e+01	1.133669e+01	1.387218e+01	5.912789e-01	1.711581e+00	3.298669e+00	-4.480556e+00	1.548596e+00	3.440538e+00	-2.523742e-01	1.102880e+00	1.029681e+00	8.717807e+00	1.040891e+01	1.554495e+01	1.425222e+00	-2.115165e+00	-3.277199e+00	8.370448e+00	7.409013e+00	1.100384e+01	1.415492e+01	1.305807e+01	9.086822e+00	1.186269e+01	1.453581e+01	1.365032e+01	1.053926e+01	1.239387e+01	8.944426e+00	1.065110e+01	1.380273e+01	1.283494e+01	1.450885e+01	1.407477e+01	1.438444e+01	1.385976e+01	1.350757e+01	1.266750e+01	7.030260e+00	1.523422e+01	1.408140e+01	5.289473e+00	4.173644e+00	1.240119e+01	1.149915e+01	1.132551e+01	1.056376e+01	1.003203e+01	9.791573e+00	1.022693e+01	9.069374e+00	9.147366e+00	5.056052e+00	2.876746e+00	2.088106e+00	1.154576e+01	1.502206e+00	1.356125e+01	5.688085e+00	2.353593e+00	6.626544e+00	4.651564e+00	1.228635e+01	8.411598e+00	8.687498e+00	8.056319e+00	7.475929e+00	6.950416e+00	9.263635e+00	4.082150e-01	9.104356e-01	3.001401e-01	1.043318e+01	1.556384e+01	9.263327e+00	1.023906e+01	1.960126e+00	4.066964e+00	7.446415e+00	2.401129e+00	-1.152442e+00	-5.377514e-01	1.097493e+01	7.301751e+00	6.176921e+00	5.983725e+00	5.037449e+00	8.906428e+00	6.562858e+00	1.157786e+01	1.219713e+01	1.340811e+00	3.359130e-01	1.205515e+01	-9.802589e-01	-8.018507e-01	1.531688e+01	9.373415e+00	1.537299e+01	-2.280948e+00	-3.421080e+00	8.388520e+00	5.117688e+00	5.838246e+00	4.207733e+00	6.362291e+00	7.752867e+00	9.081227e+00	1.325658e+00	1.942219e+00	-2.485944e+00	3.941107e+00	1.491772e+01	-1.846607e+00	8.805129e-01	-1.042207e+00	2.428049e+00	6.606925e-01	1.011771e+01	9.312999e+00	4.368581e+00	9.196349e+00	1.094701e+01	1.110162e+01	1.056405e+01	1.072579e+01	1.019183e+01	3.133319e+00	1.138629e+01	1.238858e+01	9.827355e+00	1.306815e+01	1.280578e+01	1.376584e+01	9.760387e+00	3.455456e+00	1.206843e+01	5.275821e+00	-1.899997e+00	-4.473020e-01	-1.320442e+00	9.305658e+00	7.710766e+00	1.567976e+01	8.175050e+00	1.536353e+01	1.451334e+01	9.770499e+00	4.754674e-01	5.913398e-01	-6.355220e+00	5.135008e+00	3.034475e+00	1.296959e+01	3.488175e+00	2.526366e+00	2.203690e+00	3.725414e+00	1.045146e+01	1.007683e+01	1.209218e+01	9.052071e+00	9.816998e+00	6.793867e+00	7.338205e+00	7.862400e+00	6.705539e+00	7.404702e+00	1.537135e+01	1.252416e+01	2.159309e+00	1.020967e+01	5.720119e+00	1.959633e+00	4.192218e+00	4.295674e+00	-5.361814e+00	-6.156373e+00	6.060891e+00	-5.122870e+00	-3.377545e+00	2.318557e+00	1.081318e+01	1.298071e+01	1.615342e+01	1.209284e+00	7.960318e+00	8.381092e+00	4.420440e+00	1.614363e+00	1.779356e+00	1.511232e+01	9.824558e+00	1.467007e+01	3.575493e+00	8.984103e-01	1.010779e+01	3.671454e+00	-4.133413e+00	1.416586e+01	5.876334e+00	3.132496e+00	1.486429e+00	8.773776e+00	1.490208e+00	2.512038e+00	1.170828e+00	2.701777e+00	9.094841e-01	1.364262e+00	2.167323e-01	-2.193600e-01	2.110238e+00	-1.622722e+00	1.827773e+00	6.581128e+00	8.654357e+00	-3.329351e-02	6.283495e+00	4.904206e+00	8.162291e+00	-1.080725e+00	5.110447e+00	1.840913e+00	6.726800e+00	-6.732473e-01	8.484578e-01	9.467736e+00	9.734394e+00	8.301032e+00	1.122046e+01	1.101085e+01	6.671901e+00	1.161353e+01	2.900589e+00	1.470093e+01	1.353782e+01	8.037632e+00	1.582443e+01	1.478425e+01	2.503265e+00	1.079533e+01	1.192206e+01	1.512621e+01	1.029605e+01	3.839089e+00	1.463741e+01	2.841175e+00	-3.503895e+00	1.474892e+01	-2.752779e+00	1.314174e+01	8.625554e+00	-3.980614e+00	1.306776e+01	9.735598e+00	2.578498e+00	7.865980e+00	-3.058315e+00	-3.334266e+00	8.553212e+00	4.587179e+00	5.277528e+00	1.135407e+01	8.352712e+00	9.061898e+00	1.152144e+01	1.012233e+01	3.719350e+00	4.275514e+00	2.191040e+00	8.232053e+00	-6.317743e-01	1.263900e+01	1.024958e+01	1.239470e+01	4.467932e+00	1.604508e+01	1.811814e+00	-3.916948e+00	-2.151972e+00	1.024321e+01	-2.512269e+00	1.088579e+01	1.187692e+01	6.371572e+00	7.004409e+00	9.360145e+00	3.148627e-01	1.062594e+00	6.511276e-01	-9.533791e-01	1.343879e+01	1.469929e+01	4.232522e+00	1.315141e+01	8.669631e+00	1.556895e+01	1.418467e+00	1.162784e+01	6.905518e+00	7.596804e+00	1.860186e+00	5.682941e+00	1.357371e+01	8.423047e+00	3.515562e+00	7.730609e+00	
SCALARS Y-Momentum float 1
LOOKUP_TABLE default
-2.199891e-02	3.157137e-01	6.973593e+00	-8.017678e-01	6.308288e-01	2.322159e-01	5.765852e-02	-1.310029e-02	1.821580e-02	4.693147e-02	6.481048e-02	8.309172e-02	7.029145e-02	1.377630e-02	-4.188794e-03	-2.786349e-04	5.755229e-03	4.613219e-03	1.042680e-02	1.294910e-02	-4.689502e-03	1.307351e-02	2.627630e-03	6.956113e-03	-2.601834e-02	1.014666e+00	1.831068e+00	2.656274e+00	3.548341e+00	4.437013e+00	5.297153e+00	6.144688e+00	7.015906e+00	7.954097e+00	8.761521e+00	9.149073e+00	9.628494e+00	-1.753813e+00	1.689037e+00	2.710048e+00	3.618173e+00	4.301234e+00	4.726427e+00	4.931704e+00	4.880051e+00	4.604529e+00	4.153084e+00	3.519732e+00	2.746775e+00	1.746225e+00	-3.841004e-03	3.341195e-02	2.708249e-02	8.167117e-03	2.941208e-03	1.105747e-02	1.462619e-02	9.348311e-04	-5.205046e-02	-7.593574e-02	-1.022453e-01	-5.722189e-01	-6.229326e-01	-1.943844e-01	4.927222e-01	7.518372e-01	4.585158e-01	1.376035e-02	6.159583e-04	-1.096691e-02	-4.088675e-02	-2.564485e-02	-4.341881e-03	-4.763880e-03	3.443744e-03	-2.501124e-03	9.436524e+00	3.128086e+00	5.124420e-01	-2.788626e-01	4.505936e+00	6.069477e+00	8.350840e-01	5.495062e-01	4.162302e-01	1.789775e-01	4.787275e-01	8.160257e-01	3.939070e+00	3.670307e+00	8.658548e-01	8.060369e-01	4.032467e+00	7.655505e+00	2.756098e+00	2.107196e+00	-9.479442e-01	3.476989e-01	2.782605e-01	7.929349e-01	7.098158e-01	1.020496e+00	-6.991847e-01	2.628496e-01	-6.207416e-01	-4.779724e-02	8.042829e-01	8.304770e-01	2.307420e-02	9.366627e-01	1.737723e+00	1.922359e+00	1.223050e+00	2.174180e+00	1.652968e+00	2.511621e+00	3.252279e+00	3.721373e+00	4.262935e+00	4.872712e+00	4.733912e+00	5.470158e+00	4.503576e+00	5.187475e+00	1.993554e+00	2.503627e+00	3.896293e+00	1.566615e+00	2.229126e+00	3.743721e+00	3.859538e+00	5.300437e+00	3.683733e+00	4.507600e+00	3.259343e+00	2.798592e+00	3.744282e+00	2.701720e+00	2.528431e+00	3.031519e+00	2.521553e+00	2.829285e+00	3.243942e+00	5.646489e+00	9.858992e-01	9.195832e-01	2.327666e+00	1.949463e+00	2.668777e+00	2.866696e+00	2.144215e+00	3.953056e+00	2.673048e+00	3.615730e+00	2.012606e+00	2.466660e+00	1.827604e+00	2.967181e+00	6.490716e+00	2.039791e+00	6.378833e+00	5.558561e+00	2.503708e+00	2.741127e+00	3.033297e+00	3.479515e+00	1.596011e+00	9.184856e-01	8.809769e+00	5.052419e+00	4.580316e+00	3.289800e+00	4.035398e+00	1.572018e+00	2.885334e+00	2.015197e+00	1.767372e+00	3.722004e+00	3.305975e+00	7.660960e+00	2.510876e+00	2.806572e+00	2.407129e+00	1.460248e+00	1.851917e+00	1.949382e+00	6.546215e-01	1.566512e+00	2.781669e+00	2.330641e+00	3.100711e+00	6.530428e+00	6.870656e+00	1.018876e+00	3.941728e+00	4.164483e+00	1.704156e+00	4.166611e+00	3.659808e+00	2.291887e-01	2.764702e-01	-2.082608e-01	-2.842163e-01	-7.961158e-01	3.734376e+00	3.127788e+00	2.069514e+00	5.117063e+00	2.120238e+00	1.522216e+00	1.580179e+00	1.110685e+00	1.113104e+00	3.253035e+00	9.024286e+00	7.955728e+00	1.001792e+01	2.458152e+00	1.370120e+00	2.090142e+00	1.804981e+00	3.211872e+00	1.022767e+00	5.523681e+00	2.226257e+00	3.165179e+00	2.524419e+00	1.034424e+01	1.050599e+01	1.654276e+00	4.440321e-01	9.576677e-01	1.802368e+00	1.290045e+00	3.643437e+00	3.923008e+00	8.220552e-02	7.137413e+00	4.345000e+00	6.349854e-01	2.288334e+00	2.362028e+00	3.851941e+00	-1.019229e+00	6.835285e-01	6.518212e-01	4.279271e+00	4.900679e-01	2.762342e+00	6.259265e-01	1.119258e+00	8.794895e-01	1.415703e+00	1.783220e+00	1.379250e+00	6.334814e+00	4.133265e+00	8.523401e+00	8.368584e+00	3.965686e+00	6.338695e+00	1.011130e+00	6.629405e-01	3.807332e-01	7.385974e-01	-4.904622e-01	9.834884e-01	8.264108e-01	3.649474e-01	6.680265e+00	9.640801e-01	4.089560e+00	4.047228e-01	6.891410e-01	3.732029e-01	4.148192e+00	3.599993e+00	3.120288e+00	3.888943e-01	7.495144e-01	5.293437e+00	2.281586e+00	2.912334e-01	8.710790e+00	1.012433e+00	3.048882e+00	1.510114e+00	6.837749e+00	3.550977e+00	7.384044e-01	4.338394e+00	5.268096e+00	4.475679e+00	1.128643e+00	4.279041e+00	2.891998e+00	3.440599e+00	3.285521e+00	4.437221e+00	2.009097e+00	1.627294e+00	2.635094e+00	8.815449e+00	-1.011709e+00	2.724730e+00	-6.277313e-01	4.304497e+00	2.130524e+00	1.761193e+00	4.008691e+00	1.127553e+01	1.937309e+00	1.314370e+00	1.051783e+00	8.096958e-01	5.369222e+00	9.918487e-01	5.025748e+00	1.012451e+00	1.342108e+00	1.890846e+00	2.564005e+00	1.316700e+00	2.056573e+00	1.348054e+00	1.355354e+00	3.699328e+00	2.809448e+00	4.637015e-01	1.503756e+00	2.127142e+00	3.136359e+00	2.854885e+00	1.612843e+00	1.396387e+00	3.732282e+00	1.682525e+00	3.444670e+00	1.113238e+00	1.200513e+00	6.916124e+00	2.429392e+00	3.788414e+00	1.406177e+00	-5.426789e-01	-5.241445e-01	1.166268e-01	8.758694e+00	1.024119e+01	8.108949e+00	3.282396e+00	6.885454e+00	3.561767e+00	1.560734e+00	1.563901e+00	1.108254e+01	3.025423e+00	1.095745e+00	2.822156e+00	5.153860e+00	1.172522e-01	6.334186e-01	4.979141e+00	4.695146e-01	2.392574e+00	-5.895841e-02	-8.569548e-01	4.798982e-01	1.406204e+00	7.300692e-01	7.012114e+00	1.991390e+00	8.724282e+00	6.544877e-01	3.739554e+00	4.162217e+00	6.035229e-01	1.001589e+00	6.281411e+00	4.192230e+00	7.627433e+00	4.378280e+00	4.470742e+00	1.350770e+00	4.266628e+00	8.204610e-01	2.083845e+00	-6.240406e-01	4.131869e+00	-1.175519e-01	3.210403e+00	8.981212e+00	6.024186e+00	2.321630e+00	
SCALARS Energy float 1
LOOKUP_TABLE default