# vtk DataFile Version 3.0
vtk output
ASCII
DATASET UNSTRUCTURED_GRID
POINTS 394 float
-3.000000e+00	0.000000e+00	0.0	-5.000000e-02	5.132441e-17	0.0	4.775519e-01	1.036323e+00	0.0	5.776066e-01	9.642654e-01	0.0	5.000000e-02	-9.723803e-18	0.0	3.000000e+00	0.000000e+00	0.0	3.000000e+00	4.000000e+00	0.0	-3.000000e+00	4.000000e+00	0.0	-3.000000e+00	3.428571e+00	0.0	-3.000000e+00	2.857143e+00	0.0	-3.000000e+00	2.285714e+00	0.0	-3.000000e+00	1.714286e+00	0.0	-3.000000e+00	1.142857e+00	0.0	-3.000000e+00	5.714286e-01	0.0	-2.473871e+00	0.000000e+00	0.0	-2.029066e+00	0.000000e+00	0.0	-1.653013e+00	0.000000e+00	0.0	-1.335087e+00	0.000000e+00	0.0	-1.066302e+00	0.000000e+00	0.0	-8.390627e-01	0.000000e+00	0.0	-6.469477e-01	0.000000e+00	0.0	-4.845277e-01	0.000000e+00	0.0	-3.472127e-01	0.000000e+00	0.0	-2.311224e-01	0.000000e+00	0.0	-1.329760e-01	0.000000e+00	0.0	-4.330999e-02	8.386749e-02	0.0	-2.735021e-02	1.669352e-01	0.0	-2.721222e-03	2.490493e-01	0.0	2.915569e-02	3.303154e-01	0.0	6.705480e-02	4.108251e-01	0.0	1.098768e-01	4.906558e-01	0.0	1.566331e-01	5.698806e-01	0.0	2.064438e-01	6.485678e-01	0.0	2.585277e-01	7.267858e-01	0.0	3.122103e-01	8.045972e-01	0.0	3.668967e-01	8.820832e-01	0.0	4.221803e-01	9.592647e-01	0.0	5.275801e-01	1.000343e+00	0.0	5.221199e-01	8.874239e-01	0.0	4.668949e-01	8.107074e-01	0.0	4.121971e-01	7.342741e-01	0.0	3.585212e-01	6.581830e-01	0.0	3.064407e-01	5.825032e-01	0.0	2.566338e-01	5.073006e-01	0.0	2.098798e-01	4.326404e-01	0.0	1.670602e-01	3.585894e-01	0.0	1.291629e-01	2.852189e-01	0.0	9.728881e-02	2.126067e-01	0.0	7.266880e-02	1.408377e-01	0.0	5.662405e-02	6.998431e-02	0.0	1.329760e-01	0.000000e+00	0.0	2.311224e-01	0.000000e+00	0.0	3.472127e-01	0.000000e+00	0.0	4.845277e-01	0.000000e+00	0.0	6.469477e-01	0.000000e+00	0.0	8.390627e-01	0.000000e+00	0.0	1.066302e+00	0.000000e+00	0.0	1.335087e+00	0.000000e+00	0.0	1.653013e+00	0.000000e+00	0.0	2.029066e+00	0.000000e+00	0.0	2.473871e+00	0.000000e+00	0.0	3.000000e+00	5.714286e-01	0.0	3.000000e+00	1.142857e+00	0.0	3.000000e+00	1.714286e+00	0.0	3.000000e+00	2.285714e+00	0.0	3.000000e+00	2.857143e+00	0.0	3.000000e+00	3.428571e+00	0.0	2.400000e+00	4.000000e+00	0.0	1.800000e+00	4.000000e+00	0.0	1.200000e+00	4.000000e+00	0.0	6.000000e-01	4.000000e+00	0.0	0.000000e+00	4.000000e+00	0.0	-6.000000e-01	4.000000e+00	0.0	-1.200000e+00	4.000000e+00	0.0	-1.800000e+00	4.000000e+00	0.0	-2.400000e+00	4.000000e+00	0.0	2.905751e-01	9.452711e-01	0.0	5.419790e-01	8.313388e-01	0.0	-1.459276e+00	2.964413e-01	0.0	1.548492e+00	1.783508e-01	0.0	3.255068e-01	5.246253e-01	0.0	9.057976e-02	6.346140e-01	0.0	-7.222649e-01	2.091691e-01	0.0	7.892683e-01	1.119495e-01	0.0	-2.533441e+00	2.110449e+00	0.0	2.624373e+00	1.899696e+00	0.0	-8.114950e-01	3.529354e+00	0.0	1.068274e+00	3.444417e+00	0.0	2.071300e-01	3.098228e-01	0.0	-3.269577e-02	3.855200e-01	0.0	-3.988066e-01	1.434168e-01	0.0	4.407244e-01	8.181165e-02	0.0	4.315937e-01	6.736316e-01	0.0	1.852184e-01	7.929598e-01	0.0	1.590400e-01	1.712872e-01	0.0	-8.817429e-02	2.207690e-01	0.0	2.580656e+00	7.476985e-01	0.0	-2.474533e+00	8.288635e-01	0.0	-2.006962e+00	3.476846e+00	0.0	2.143951e+00	3.413476e+00	0.0	-1.765978e-01	8.861261e-02	0.0	1.941834e-01	6.207517e-02	0.0	2.271646e+00	3.396855e-01	0.0	-2.236029e+00	3.856203e-01	0.0	2.580554e+00	1.335861e+00	0.0	2.268281e+00	1.623382e+00	0.0	2.254115e+00	2.053999e+00	0.0	1.965361e+00	1.776035e+00	0.0	1.933262e+00	1.355467e+00	0.0	1.703703e+00	1.561373e+00	0.0	1.680222e+00	1.924955e+00	0.0	1.473616e+00	1.708208e+00	0.0	1.472669e+00	1.395027e+00	0.0	1.285268e+00	1.525100e+00	0.0	1.281305e+00	1.264642e+00	0.0	1.113031e+00	1.352735e+00	0.0	1.093952e+00	1.632360e+00	0.0	9.469171e-01	1.493157e+00	0.0	9.025443e-01	1.741852e+00	0.0	7.594122e-01	1.631899e+00	0.0	7.010796e-01	1.854728e+00	0.0	5.632593e-01	1.743701e+00	0.0	4.788117e-01	1.968930e+00	0.0	3.296956e-01	1.814609e+00	0.0	1.127742e+00	1.130306e+00	0.0	1.416242e+00	2.061614e+00	0.0	6.748866e-01	2.122890e+00	0.0	1.239563e+00	1.007862e+00	0.0	1.081434e+00	9.380576e-01	0.0	2.104807e-01	2.096667e+00	0.0	-4.174209e-03	1.958203e+00	0.0	1.183996e-01	1.685807e+00	0.0	-2.443574e-01	1.823216e+00	0.0	-1.653362e-01	1.590871e+00	0.0	-4.839850e-01	1.672313e+00	0.0	-5.133616e-01	1.904747e+00	0.0	-4.255789e-01	1.437775e+00	0.0	-7.586587e-01	1.508451e+00	0.0	9.868876e-01	1.030545e+00	0.0	9.410523e-01	8.569491e-01	0.0	1.025723e+00	7.592616e-01	0.0	-1.065083e-01	2.244187e+00	0.0	8.698998e-01	6.826333e-01	0.0	6.222303e-01	1.511537e+00	0.0	5.336184e-01	1.054472e+00	0.0	5.942994e-01	1.012303e+00	0.0	5.630113e-01	1.100752e+00	0.0	6.285845e-01	1.079747e+00	0.0	1.426396e-01	2.410000e+00	0.0	-7.235391e-01	1.247011e+00	0.0	-1.053862e+00	1.320693e+00	0.0	-4.037621e-01	1.177500e+00	0.0	-7.625713e-01	9.671779e-01	0.0	-4.636832e-01	9.481777e-01	0.0	-1.094034e+00	1.617466e+00	0.0	9.543854e-01	5.868794e-01	0.0	1.123327e+00	6.557172e-01	0.0	7.908571e-01	5.293567e-01	0.0	1.067460e-01	1.459051e+00	0.0	1.630189e+00	2.297684e+00	0.0	4.851710e-01	1.121240e+00	0.0	5.246599e-01	1.181472e+00	0.0	6.469117e-01	9.836205e-01	0.0	6.983924e-01	1.056869e+00	0.0	6.672752e-01	1.154446e+00	0.0	7.099686e-01	9.495243e-01	0.0	1.047088e+00	4.837762e-01	0.0	1.252698e+00	5.733006e-01	0.0	4.221054e-01	1.201651e+00	0.0	-2.011985e-01	1.063348e+00	0.0	-2.486664e-01	8.850241e-01	0.0	-4.697349e-01	7.424075e-01	0.0	-2.600228e-01	7.087867e-01	0.0	-1.405391e+00	1.403970e+00	0.0	7.597428e-01	1.141365e+00	0.0	-2.166246e-01	2.561604e+00	0.0	5.089385e-02	2.770677e+00	0.0	7.154933e-01	6.075953e-01	0.0	6.335732e-01	4.717046e-01	0.0	4.747493e-01	1.280431e+00	0.0	7.095897e-01	3.950358e-01	0.0	5.508412e-01	3.476984e-01	0.0	1.331478e+00	2.450627e+00	0.0	-1.457578e+00	1.734888e+00	0.0	1.557633e+00	2.693189e+00	0.0	6.244353e-01	2.737055e-01	0.0	1.149250e+00	3.277119e-01	0.0	-1.352198e+00	1.108279e+00	0.0	-4.607538e-01	5.572097e-01	0.0	-6.292028e-01	5.874640e-01	0.0	-3.095705e-01	5.160577e-01	0.0	-7.850760e-03	1.002641e+00	0.0	2.902517e-03	1.150997e+00	0.0	-1.881227e+00	1.498106e+00	0.0	5.658972e-01	5.474782e-01	0.0	6.577051e-01	6.825970e-01	0.0	7.944574e-01	3.155240e-01	0.0	-1.505694e-01	6.132417e-01	0.0	1.030198e+00	1.919734e+00	0.0	1.384361e+00	4.896616e-01	0.0	1.457221e+00	6.946255e-01	0.0	1.608353e+00	5.612400e-01	0.0	1.697218e+00	8.305294e-01	0.0	1.912844e+00	7.034976e-01	0.0	7.059444e-01	1.253487e+00	0.0	8.151043e-01	1.237448e+00	0.0	-4.578394e-01	3.806958e-01	0.0	-1.524407e-01	1.399908e+00	0.0	-4.854762e-01	2.362240e+00	0.0	-6.216887e-01	2.708463e+00	0.0	-9.204377e-01	2.497555e+00	0.0	-1.048442e+00	2.846355e+00	0.0	-1.432010e+00	2.532586e+00	0.0	-1.807854e-01	4.562569e-01	0.0	3.475459e-01	1.297895e+00	0.0	3.958043e-01	1.398331e+00	0.0	2.994513e-01	1.209315e+00	0.0	4.552553e-01	2.567018e+00	0.0	3.605507e-01	3.030934e+00	0.0	7.435785e-01	2.764724e+00	0.0	-1.136048e+00	1.945585e+00	0.0	8.662227e-01	9.479781e-01	0.0	-1.079782e-01	3.184782e+00	0.0	-8.118183e-02	8.441621e-01	0.0	4.700957e-01	2.362125e-01	0.0	3.815521e-01	3.011518e-01	0.0	3.324611e-01	2.084779e-01	0.0	3.739812e-01	1.134833e+00	0.0	2.576911e-01	1.119097e+00	0.0	1.890446e+00	2.542863e+00	0.0	1.634570e+00	1.237540e+00	0.0	2.560279e+00	2.475193e+00	0.0	1.156756e+00	2.879757e+00	0.0	-1.520838e+00	2.096476e+00	0.0	4.664234e-01	4.158569e-01	0.0	3.356267e-01	3.801213e-01	0.0	1.254146e+00	1.586934e-01	0.0	7.749918e-02	9.096929e-01	0.0	-6.946818e-02	5.370522e-01	0.0	5.073674e-01	3.525183e+00	0.0	-3.140776e-01	3.554268e-01	0.0	-2.015794e-01	3.180554e-01	0.0	8.031456e-01	7.859310e-01	0.0	2.251334e+00	9.742128e-01	0.0	-1.556265e+00	3.054974e+00	0.0	-1.917132e+00	2.708773e+00	0.0	7.525100e-01	1.370735e+00	0.0	-2.438230e+00	1.353888e+00	0.0	9.628148e-01	1.284440e+00	0.0	-1.170786e+00	2.689362e-01	0.0	-1.251835e+00	5.568697e-01	0.0	-1.542633e+00	6.050499e-01	0.0	-9.759758e-01	5.364629e-01	0.0	-1.049931e+00	8.028002e-01	0.0	1.814811e+00	3.007323e+00	0.0	3.402749e-01	1.631103e+00	0.0	7.125054e-01	8.237752e-01	0.0	2.087144e-01	1.307882e+00	0.0	1.271658e-01	9.976475e-01	0.0	5.873383e-01	7.525272e-01	0.0	4.175984e-02	7.817242e-01	0.0	-5.393943e-01	2.126056e-01	0.0	5.971133e-01	9.049066e-02	0.0	1.016430e+00	1.451286e-01	0.0	-9.301835e-01	2.415187e-01	0.0	1.874504e+00	2.246487e-01	0.0	3.099028e-01	7.170369e-02	0.0	-2.726840e-01	1.148228e-01	0.0	-1.407563e+00	3.545456e+00	0.0	5.361842e-01	1.379313e+00	0.0	2.582175e+00	3.089860e+00	0.0	4.443292e-01	4.960643e-01	0.0	-1.812250e+00	3.386270e-01	0.0	-1.920697e+00	7.577849e-01	0.0	1.548842e+00	9.604378e-01	0.0	4.825890e-01	5.984866e-01	0.0	6.391805e-01	8.740495e-01	0.0	1.122694e+00	2.205461e+00	0.0	-2.478452e+00	2.555794e+00	0.0	1.561111e+00	3.496532e+00	0.0	-1.938032e-02	6.670255e-01	0.0	5.931582e-01	9.225258e-01	0.0	-2.409018e+00	3.090994e+00	0.0	2.362437e-01	8.682478e-01	0.0	9.147166e-01	2.354862e-01	0.0	7.983901e-01	2.407937e+00	0.0	-7.736024e-01	4.053121e-01	0.0	1.341448e-01	7.147922e-01	0.0	4.853806e-01	7.497394e-01	0.0	-2.080699e+00	1.125658e+00	0.0	3.767643e-01	6.024284e-01	0.0	3.916412e-02	5.636367e-01	0.0	2.832809e-01	4.510769e-01	0.0	1.319035e+00	8.052878e-01	0.0	2.415239e-01	3.776487e-01	0.0	-6.052872e-02	3.007535e-01	0.0	1.766313e-01	2.403190e-01	0.0	2.680284e-01	2.603639e-01	0.0	-2.750480e-03	4.722636e-01	0.0	2.503623e-01	1.343559e-01	0.0	-1.862710e-01	2.024607e-01	0.0	-6.808119e-01	7.578919e-01	0.0	1.597355e-01	1.201726e+00	0.0	2.206507e+00	6.464508e-01	0.0	8.818809e-01	1.113040e+00	0.0	1.967574e+00	1.031356e+00	0.0	4.812113e-01	1.074749e+00	0.0	8.759597e-01	4.450729e-01	0.0	-5.998686e-01	3.955464e-01	0.0	5.211020e-01	6.938998e-01	0.0	3.375103e-01	1.065153e+00	0.0	1.308734e-01	1.023027e-01	0.0	-1.033171e-01	1.313682e-01	0.0	-1.807792e+00	1.867301e+00	0.0	-1.966114e+00	2.239742e+00	0.0	-1.521976e-01	1.228020e+00	0.0	-7.280282e-01	3.095980e+00	0.0	5.815678e-01	1.251061e+00	0.0	1.421439e+00	1.110775e+00	0.0	-3.497137e-01	2.935995e+00	0.0	1.160769e+00	8.295745e-01	0.0	1.035736e+00	2.541307e+00	0.0	7.768029e-01	3.129294e+00	0.0	-1.050236e+00	1.045548e+00	0.0	2.208107e+00	2.818676e+00	0.0	1.446903e+00	3.104160e+00	0.0	-9.249354e-02	4.4691
[...]
POINT_DATA 394

SCALARS Density float 1
LOOKUP_TABLE default
1.223703e+00	1.223920e+00	1.221356e+00	1.221904e+00	1.223345e+00	1.223567e+00	1.223280e+00	1.223579e+00	1.223564e+00	1.223575e+00	1.223615e+00	1.223640e+00	1.223703e+00	1.223709e+00	1.223719e+00	1.223709e+00	1.223738e+00	1.223756e+00	1.223797e+00	1.223822e+00	1.223839e+00	1.223910e+00	1.223874e+00	1.223994e+00	1.223864e+00	1.224047e+00	1.223871e+00	1.223874e+00	1.223853e+00	1.223801e+00	1.223768e+00	1.223707e+00	1.223692e+00	1.223599e+00	1.223685e+00	1.222899e+00	1.224817e+00	1.219534e+00	1.223783e+00	1.223306e+00	1.223353e+00	1.223352e+00	1.223298e+00	1.223268e+00	1.223251e+00	1.223243e+00	1.223255e+00	1.223280e+00	1.223207e+00	1.223400e+00	1.223202e+00	1.223292e+00	1.223227e+00	1.223173e+00	1.223133e+00	1.223100e+00	1.223021e+00	1.223008e+00	1.223016e+00	1.223163e+00	1.222696e+00	1.223305e+00	1.223051e+00	1.222878e+00	1.222821e+00	1.222950e+00	1.223096e+00	1.223108e+00	1.223250e+00	1.223285e+00	1.223366e+00	1.223411e+00	1.223488e+00	1.223537e+00	1.223568e+00	1.223569e+00	1.222861e+00	1.223717e+00	1.223746e+00	1.222966e+00	1.223303e+00	1.223681e+00	1.223826e+00	1.223067e+00	1.223611e+00	1.223307e+00	1.223506e+00	1.223304e+00	1.223255e+00	1.223826e+00	1.223900e+00	1.223173e+00	1.223437e+00	1.223468e+00	1.223321e+00	1.223893e+00	1.222982e+00	1.223701e+00	1.223587e+00	1.223128e+00	1.223951e+00	1.223275e+00	1.223104e+00	1.223693e+00	1.222972e+00	1.222858e+00	1.223096e+00	1.223092e+00	1.222990e+00	1.222989e+00	1.223005e+00	1.223265e+00	1.222759e+00	1.222828e+00	1.222917e+00	1.223021e+00	1.222822e+00	1.223128e+00	1.223115e+00	1.223248e+00	1.223152e+00	1.223220e+00	1.223426e+00	1.223307e+00	1.222813e+00	1.223014e+00	1.223241e+00	1.222713e+00	1.222894e+00	1.223395e+00	1.223486e+00	1.223487e+00	1.223420e+00	1.223560e+00	1.223631e+00	1.223523e+00	1.223601e+00	1.223612e+00	1.223041e+00	1.222939e+00	1.223068e+00	1.223489e+00	1.223113e+00	1.223165e+00	1.220946e+00	1.221494e+00	1.222708e+00	1.222670e+00	1.223405e+00	1.223681e+00	1.223665e+00	1.223714e+00	1.223731e+00	1.223742e+00	1.223628e+00	1.223019e+00	1.222826e+00	1.223124e+00	1.223499e+00	1.223187e+00	1.221603e+00	1.223102e+00	1.222524e+00	1.222636e+00	1.222444e+00	1.222911e+00	1.223056e+00	1.222952e+00	1.223119e+00	1.223676e+00	1.223731e+00	1.223755e+00	1.223728e+00	1.223662e+00	1.222519e+00	1.223456e+00	1.223448e+00	1.223267e+00	1.223181e+00	1.223041e+00	1.223148e+00	1.223206e+00	1.223285e+00	1.223629e+00	1.223172e+00	1.223181e+00	1.222952e+00	1.223705e+00	1.223797e+00	1.223820e+00	1.223903e+00	1.223582e+00	1.223536e+00	1.223669e+00	1.223249e+00	1.223330e+00	1.223086e+00	1.223779e+00	1.223365e+00	1.222802e+00	1.223006e+00	1.222768e+00	1.222749e+00	1.222907e+00	1.222742e+00	1.222748e+00	1.223854e+00	1.223486e+00	1.223520e+00	1.223502e+00	1.223561e+00	1.223547e+00	1.223600e+00	1.223815e+00	1.223092e+00	1.223465e+00	1.223416e+00	1.223328e+00	1.223365e+00	1.223387e+00	1.223604e+00	1.222770e+00	1.223405e+00	1.223742e+00	1.223182e+00	1.223208e+00	1.223243e+00	1.223580e+00	1.223083e+00	1.223098e+00	1.222758e+00	1.223287e+00	1.223299e+00	1.223623e+00	1.223290e+00	1.223163e+00	1.222833e+00	1.223551e+00	1.223899e+00	1.223406e+00	1.223874e+00	1.223900e+00	1.223010e+00	1.222754e+00	1.223543e+00	1.223580e+00	1.222579e+00	1.223649e+00	1.222815e+00	1.223784e+00	1.223802e+00	1.223678e+00	1.223777e+00	1.223701e+00	1.223265e+00	1.223446e+00	1.223080e+00	1.223384e+00	1.223643e+00	1.223371e+00	1.223750e+00	1.223929e+00	1.223153e+00	1.223051e+00	1.223820e+00	1.222830e+00	1.223302e+00	1.223961e+00	1.223547e+00	1.223017e+00	1.223165e+00	1.223333e+00	1.223746e+00	1.223695e+00	1.222899e+00	1.223284e+00	1.222936e+00	1.223214e+00	1.223615e+00	1.223243e+00	1.223698e+00	1.223008e+00	1.223601e+00	1.223979e+00	1.223051e+00	1.223345e+00	1.223779e+00	1.223735e+00	1.223312e+00	1.223666e+00	1.223365e+00	1.223729e+00	1.223285e+00	1.222878e+00	1.223271e+00	1.223877e+00	1.223260e+00	1.223187e+00	1.223756e+00	1.223160e+00	1.223927e+00	1.223727e+00	1.223524e+00	1.222757e+00	1.222852e+00	1.223164e+00	1.225650e+00	1.223098e+00	1.223858e+00	1.223234e+00	1.223389e+00	1.223227e+00	1.223910e+00	1.223616e+00	1.223623e+00	1.223590e+00	1.223502e+00	1.222648e+00	1.222950e+00	1.223465e+00	1.222828e+00	1.223232e+00	1.223285e+00	1.223734e+00	1.223299e+00	1.223245e+00	1.223853e+00	1.223537e+00	1.223503e+00	1.223076e+00	1.223541e+00	1.222738e+00	1.223147e+00	1.223844e+00	1.223136e+00	1.223362e+00	1.223192e+00	1.223357e+00	1.223709e+00	1.223102e+00	1.223270e+00	1.223610e+00	1.222850e+00	1.223714e+00	1.223122e+00	1.222265e+00	1.223725e+00	1.223666e+00	1.223111e+00	1.223347e+00	1.222273e+00	1.223580e+00	1.223087e+00	1.223577e+00	1.223764e+00	1.225593e+00	1.223858e+00	1.223704e+00	1.223187e+00	1.223163e+00	1.223559e+00	1.223412e+00	1.223720e+00	1.223037e+00	1.223885e+00	1.222957e+00	1.222874e+00	1.223562e+00	1.222925e+00	1.223558e+00	1.223275e+00	1.223772e+00	1.223701e+00	1.223674e+00	1.223197e+00	1.223215e+00	1.223934e+00	1.223386e+00	1.223484e+00	1.223128e+00	1.223453e+00	1.222651e+00	1.223362e+00	1.223154e+00	1.223236e+00	1.223455e+00	1.223721e+00	1.222898e+00	1.223352e+00	1.222636e+00	1.223265e+00	1.222849e+00	1.223565e+00	1.222728e+00	
SCALARS X-Momentum float 1
LOOKUP_TABLE default
8.928509e+00	4.471877e-01	7.025511e+00	-3.680316e-01	-5.753711e-01	-4.150486e+00	1.616282e+01	1.041321e+01	1.028947e+01	1.009778e+01	9.860744e+00	9.586666e+00	9.331715e+00	9.091162e+00	8.787153e+00	8.500530e+00	8.069159e+00	7.504469e+00	6.856708e+00	6.106010e+00	5.243841e+00	4.388977e+00	3.372061e+00	2.349326e+00	1.321383e+00	1.299817e-01	6.116608e-01	1.275168e+00	2.014249e+00	2.788852e+00	3.530760e+00	4.220009e+00	4.874753e+00	5.476274e+00	5.888299e+00	5.814630e+00	5.376572e+00	3.563811e+00	7.891819e-01	1.060195e+00	1.619610e+00	1.983056e+00	2.203912e+00	2.288869e+00	2.181844e+00	1.917084e+00	1.547197e+00	1.096770e+00	6.622697e-01	3.004738e-01	-1.912991e+00	-3.469459e+00	-4.765786e+00	-5.890130e+00	-6.779148e+00	-7.449612e+00	-7.919039e+00	-8.151701e+00	-7.706652e+00	-6.803298e+00	-5.825360e+00	-2.698700e-01	5.198404e+00	1.046237e+01	1.419367e+01	1.597721e+01	1.636992e+01	1.547244e+01	1.461427e+01	1.367877e+01	1.289998e+01	1.225505e+01	1.169826e+01	1.120732e+01	1.080353e+01	1.053602e+01	6.062387e+00	1.877891e+00	7.970380e+00	-5.492862e+00	2.191358e+00	5.101503e+00	5.979101e+00	-5.216191e+00	9.802638e+00	1.254159e+01	1.137274e+01	1.379570e+01	1.244429e+00	3.089740e+00	4.058092e+00	-3.921410e+00	2.229254e+00	6.093088e+00	1.365916e-01	1.809808e+00	1.386530e+00	9.099068e+00	1.053648e+01	1.544586e+01	1.910445e+00	-1.809151e+00	-2.825371e+00	8.801287e+00	7.528131e+00	1.084009e+01	1.397514e+01	1.277224e+01	8.799223e+00	1.146110e+01	1.423984e+01	1.328184e+01	1.007148e+01	1.197446e+01	8.425059e+00	1.018747e+01	1.359850e+01	1.268912e+01	1.456247e+01	1.427584e+01	1.462181e+01	1.426488e+01	1.382915e+01	1.312606e+01	6.507547e+00	1.503505e+01	1.426278e+01	4.880740e+00	3.914089e+00	1.271153e+01	1.189004e+01	1.192479e+01	1.102425e+01	1.068153e+01	1.030724e+01	1.061677e+01	9.785089e+00	9.674391e+00	4.675478e+00	2.883878e+00	2.212632e+00	1.180715e+01	1.946277e+00	1.396959e+01	5.416459e+00	2.045305e+00	6.445164e+00	4.354299e+00	1.247952e+01	9.074725e+00	9.198767e+00	8.984567e+00	8.259150e+00	8.000520e+00	9.676370e+00	8.757805e-01	1.108641e+00	9.891362e-01	1.130454e+01	1.538066e+01	9.829551e+00	1.070528e+01	1.867188e+00	3.772460e+00	7.256200e+00	2.439111e+00	-6.702659e-01	-2.670481e-01	1.194633e+01	8.587127e+00	7.591704e+00	7.084586e+00	6.475584e+00	9.325201e+00	6.191881e+00	1.174362e+01	1.229823e+01	2.045135e+00	1.120887e+00	1.282338e+01	-2.220593e-01	-4.360031e-02	1.523240e+01	9.715180e+00	1.526714e+01	-1.553988e+00	-2.861205e+00	8.886170e+00	6.184258e+00	6.750364e+00	5.447587e+00	8.095059e+00	9.172458e+00	9.432606e+00	2.097157e+00	2.628874e+00	-1.759163e+00	5.543309e+00	1.489650e+01	-1.488851e+00	9.593568e-01	-7.914791e-01	2.406741e+00	8.221972e-01	1.006719e+01	9.010841e+00	5.341207e+00	1.006694e+01	1.117653e+01	1.125246e+01	1.077006e+01	1.087533e+01	1.040083e+01	4.482036e+00	1.242987e+01	1.322435e+01	1.118747e+01	1.319285e+01	1.282887e+01	1.379403e+01	1.008286e+01	3.302484e+00	1.209819e+01	7.087197e+00	-1.225888e+00	2.468590e-01	-7.471383e-01	1.068258e+01	9.477082e+00	1.552056e+01	7.778074e+00	1.527602e+01	1.446595e+01	1.004511e+01	1.249959e+00	1.348554e+00	-5.657649e+00	7.290803e+00	4.730575e+00	1.290776e+01	4.527849e+00	3.564121e+00	2.592423e+00	3.781366e+00	1.059930e+01	1.026802e+01	1.214607e+01	9.381128e+00	9.408112e+00	7.427446e+00	7.948434e+00	8.387597e+00	7.422674e+00	8.074291e+00	1.526245e+01	1.313458e+01	2.631580e+00	1.137200e+01	7.872768e+00	2.574069e+00	6.387582e+00	5.114237e+00	-4.692447e+00	-5.443360e+00	6.771582e+00	-4.611914e+00	-2.940353e+00	2.970291e+00	1.089763e+01	1.359520e+01	1.605889e+01	1.994156e+00	8.449338e+00	8.825683e+00	4.205255e+00	2.354794e+00	2.201919e+00	1.507859e+01	1.003429e+01	1.457747e+01	5.560553e+00	1.169255e+00	1.027612e+01	6.408857e+00	-3.438960e+00	1.425185e+01	6.680797e+00	5.640189e+00	2.032773e+00	9.157993e+00	2.254093e+00	4.557314e+00	1.979505e+00	2.577755e+00	1.663140e+00	2.391497e+00	7.412046e-01	3.873703e-01	3.832918e+00	-1.194582e+00	2.560591e+00	7.471047e+00	1.009586e+01	1.977777e-01	5.841042e+00	4.791996e+00	8.456445e+00	-4.165132e-01	5.996547e+00	2.499200e+00	8.645530e+00	-4.143504e-01	1.277647e+00	9.764230e+00	9.979614e+00	9.387439e+00	1.131280e+01	1.132980e+01	6.260806e+00	1.170460e+01	2.780102e+00	1.469943e+01	1.350895e+01	8.641702e+00	1.569759e+01	1.470078e+01	3.970802e+00	1.112214e+01	1.190159e+01	1.489662e+01	1.059297e+01	3.580264e+00	1.441548e+01	3.683597e+00	-2.847908e+00	1.482460e+01	-2.196842e+00	1.337153e+01	9.052325e+00	-3.266464e+00	1.372401e+01	1.013895e+01	2.702061e+00	8.431147e+00	-2.662347e+00	-2.776936e+00	8.959498e+00	7.067428e+00	7.523753e+00	1.231433e+01	8.382830e+00	1.019280e+01	1.134372e+01	1.037618e+01	4.602164e+00	6.735262e+00	3.398890e+00	8.719234e+00	-1.343711e-01	1.297335e+01	1.038933e+01	1.236191e+01	6.276915e+00	1.595872e+01	2.758854e+00	-3.407867e+00	-1.806060e+00	1.040313e+01	-1.870966e+00	1.098997e+01	1.265403e+01	7.186784e+00	8.805262e+00	9.647790e+00	1.012941e+00	1.851624e+00	9.112211e-01	-7.882290e-01	1.397183e+01	1.480889e+01	6.663035e+00	1.321816e+01	9.570001e+00	1.540050e+01	2.196829e+00	1.166700e+01	7.676651e+00	7.469728e+00	2.568842e+00	5.436186e+00	1.374078e+01	9.468290e+00	5.734768e+00	7.187670e+00	
SCALARS Y-Momentum float 1
LOOKUP_TABLE default
-1.809525e-02	4.416418e-01	4.970043e+00	-9.404010e-01	5.429641e-01	2.371493e-01	6.113281e-02	-1.202363e-02	1.423157e-02	4.055281e-02	5.569369e-02	7.204178e-02	6.001556e-02	1.044757e-02	-3.400698e-03	-1.039427e-04	7.096511e-03	6.317542e-03	1.236265e-02	1.510844e-02	2.360259e-03	3.094330e-02	1.407712e-02	8.662030e-03	-3.526600e-02	1.437045e+00	2.562171e+00	3.585872e+00	4.580592e+00	5.461323e+00	6.220316e+00	6.880465e+00	7.486857e+00	8.110685e+00	8.521753e+00	8.544218e+00	8.532768e+00	-2.828254e+00	8.843100e-01	1.616753e+00	2.322534e+00	2.897415e+00	3.284853e+00	3.525060e+00	3.582992e+00	3.465216e+00	3.195006e+00	2.767829e+00	2.221819e+00	1.460166e+00	-1.941415e-04	3.802471e-02	2.535395e-02	8.468388e-03	1.750564e-03	5.555959e-03	9.711634e-03	4.250999e-03	-3.897035e-02	-6.390591e-02	-1.025359e-01	-5.330588e-01	-4.887328e-01	2.392050e-02	7.088696e-01	8.977130e-01	5.143988e-01	1.002926e-02	-1.068671e-03	-1.035504e-02	-4.009713e-02	-2.654659e-02	-5.773374e-03	-5.727107e-03	1.527531e-03	-3.429807e-03	8.810837e+00	2.086689e+00	4.961348e-01	-2.003290e-01	3.135512e+00	6.585685e+00	9.108686e-01	4.146008e-01	3.690680e-01	3.579617e-01	4.155279e-01	8.282515e-01	2.949629e+00	4.531594e+00	1.049054e+00	5.967601e-01	2.694538e+00	7.700915e+00	2.151037e+00	2.808564e+00	-8.634662e-01	3.135649e-01	2.390412e-01	8.300637e-01	9.347292e-01	8.285042e-01	-6.347811e-01	2.406315e-01	-4.759085e-01	5.593004e-02	9.086037e-01	8.228749e-01	1.651717e-02	7.736031e-01	1.626741e+00	1.615250e+00	9.003442e-01	1.667712e+00	1.184618e+00	1.780204e+00	2.638311e+00	2.875159e+00	3.704373e+00	4.195808e+00	4.354993e+00	5.043809e+00	4.255365e+00	4.883566e+00	1.437749e+00	2.326445e+00	3.678741e+00	1.274824e+00	1.872110e+00	3.538847e+00	3.618792e+00	4.978495e+00	3.423096e+00	4.214571e+00	3.013622e+00	2.555967e+00	3.507807e+00	2.492639e+00	1.959299e+00	2.608544e+00	2.235059e+00	2.627220e+00	2.757909e+00	4.886861e+00	-7.959235e-02	1.985828e-01	1.053746e+00	8.989360e-01	2.511704e+00	2.698465e+00	1.976107e+00	3.783522e+00	2.565665e+00	3.539640e+00	1.825164e+00	2.123128e+00	1.689254e+00	2.355633e+00	6.074550e+00	2.008032e+00	4.982324e+00	4.288145e+00	1.793175e+00	1.814462e+00	1.803136e+00	2.806323e+00	1.422028e+00	9.206994e-01	7.678974e+00	4.889055e+00	4.561494e+00	3.335968e+00	4.218283e+00	1.425719e+00	1.811087e+00	1.844409e+00	1.647093e+00	2.919036e+00	2.445606e+00	6.663527e+00	1.886906e+00	2.025629e+00	2.346870e+00	1.311437e+00	1.872042e+00	1.415814e+00	6.133857e-01	1.439236e+00	2.953487e+00	2.409128e+00	3.425809e+00	6.326599e+00	6.501589e+00	9.155253e-01	2.854117e+00	3.209205e+00	1.305477e+00	4.570569e+00	3.266522e+00	3.163150e-01	3.340968e-01	-7.901288e-02	-1.896235e-01	-6.697333e-01	2.528412e+00	2.028128e+00	2.303984e+00	4.798360e+00	1.915698e+00	1.356876e+00	1.399012e+00	9.745250e-01	9.797245e-01	3.781243e+00	8.238307e+00	7.264288e+00	9.163747e+00	2.352371e+00	1.307046e+00	2.038798e+00	1.617769e+00	2.632651e+00	9.344049e-01	5.579594e+00	1.620647e+00	2.309383e+00	1.892854e+00	9.111871e+00	9.665637e+00	1.703723e+00	3.276905e-01	1.093957e+00	1.797802e+00	1.146035e+00	2.600906e+00	2.816047e+00	1.000962e-01	7.018905e+00	4.937717e+00	6.183689e-01	2.655324e+00	2.885468e+00	3.232361e+00	-9.223942e-01	5.952867e-01	5.740195e-01	3.236487e+00	4.379987e-01	1.815693e+00	6.251532e-01	1.083666e+00	8.293316e-01	1.414934e+00	1.711245e+00	1.432396e+00	5.929269e+00	3.375156e+00	7.922336e+00	8.005899e+00	2.870451e+00	6.503723e+00	1.155107e+00	4.807561e-01	3.104294e-01	7.666343e-01	-3.999539e-01	7.658797e-01	1.044678e+00	3.141600e-01	5.811173e+00	1.039762e+00	2.869156e+00	3.798780e-01	6.334347e-01	3.495030e-01	2.864917e+00	2.795919e+00	2.927917e+00	3.424137e-01	7.790759e-01	5.723650e+00	1.633937e+00	2.541050e-01	8.455290e+00	8.126602e-01	2.923472e+00	1.578674e+00	7.131478e+00	2.316593e+00	6.666289e-01	2.951363e+00	5.938793e+00	3.190265e+00	1.056798e+00	3.132384e+00	3.725504e+00	2.635105e+00	2.459704e+00	5.235382e+00	1.557785e+00	2.095532e+00	2.614388e+00	8.209499e+00	-8.992106e-01	1.888668e+00	-5.548325e-01	2.626704e+00	1.718221e+00	1.904065e+00	2.748673e+00	1.012040e+01	1.563858e+00	1.788584e+00	9.385162e-01	7.169914e-01	5.096850e+00	8.735983e-01	3.817812e+00	8.043155e-01	1.207695e+00	1.701355e+00	2.501732e+00	1.299045e+00	1.927596e+00	1.425570e+00	1.394878e+00	4.394978e+00	2.572616e+00	4.119030e-01	1.528332e+00	1.912583e+00	2.383931e+00	2.469644e+00	1.965068e+00	1.013104e+00	3.491390e+00	1.255151e+00	3.280264e+00	1.009588e+00	8.833958e-01	6.334895e+00	2.208593e+00	3.192239e+00	1.319553e+00	-4.108703e-01	-4.965354e-01	1.055774e-01	8.443008e+00	9.577637e+00	7.533602e+00	1.980076e+00	6.446818e+00	2.534519e+00	1.383645e+00	1.831995e+00	1.005163e+01	3.725443e+00	1.010707e+00	2.154381e+00	4.097186e+00	1.003737e-01	5.882029e-01	5.238139e+00	4.942320e-01	3.060162e+00	4.741879e-02	-7.280291e-01	4.185255e-01	1.165132e+00	6.334094e-01	6.546531e+00	2.015330e+00	8.199960e+00	5.839536e-01	2.742209e+00	2.917742e+00	8.239630e-01	8.331760e-01	5.814152e+00	3.846487e+00	7.591267e+00	3.462170e+00	4.226215e+00	1.442684e+00	2.939170e+00	7.235759e-01	2.042843e+00	-5.507421e-01	2.963418e+00	-1.004096e-01	3.076095e+00	7.267659e+00	6.387396e+00	1.562884e+00	
SCALARS Energy float 1
LOOKUP_TABLE default