# vtk DataFile Version 3.0
vtk output
ASCII
DATASET UNSTRUCTURED_GRID
POINTS 394 float
-3.000000e+00	0.000000e+00	0.0	-5.000000e-02	5.163652e-17	0.0	4.764319e-01	1.036156e+00	0.0	5.764867e-01	9.644031e-01	0.0	5.000000e-02	-9.102533e-18	0.0	3.000000e+00	0.000000e+00	0.0	3.000000e+00	4.000000e+00	0.0	-3.000000e+00	4.000000e+00	0.0	-3.000000e+00	3.428571e+00	0.0	-3.000000e+00	2.857143e+00	0.0	-3.000000e+00	2.285714e+00	0.0	-3.000000e+00	1.714286e+00	0.0	-3.000000e+00	1.142857e+00	0.0	-3.000000e+00	5.714286e-01	0.0	-2.473871e+00	0.000000e+00	0.0	-2.029066e+00	0.000000e+00	0.0	-1.653013e+00	0.000000e+00	0.0	-1.335087e+00	0.000000e+00	0.0	-1.066302e+00	0.000000e+00	0.0	-8.390627e-01	0.000000e+00	0.0	-6.469477e-01	0.000000e+00	0.0	-4.845277e-01	0.000000e+00	0.0	-3.472127e-01	0.000000e+00	0.0	-2.311224e-01	0.000000e+00	0.0	-1.329760e-01	0.000000e+00	0.0	-4.329997e-02	8.387905e-02	0.0	-2.732223e-02	1.669546e-01	0.0	-2.669131e-03	2.490711e-01	0.0	2.923117e-02	3.303318e-01	0.0	6.714230e-02	4.108273e-01	0.0	1.099532e-01	4.906352e-01	0.0	1.566619e-01	5.698286e-01	0.0	2.063743e-01	6.484785e-01	0.0	2.583034e-01	7.266615e-01	0.0	3.117854e-01	8.044481e-01	0.0	3.662459e-01	8.819214e-01	0.0	4.212953e-01	9.590985e-01	0.0	5.264602e-01	1.000328e+00	0.0	5.212352e-01	8.875614e-01	0.0	4.662445e-01	8.108425e-01	0.0	4.117727e-01	7.343996e-01	0.0	3.582977e-01	6.582880e-01	0.0	3.063727e-01	5.825783e-01	0.0	2.566647e-01	5.073448e-01	0.0	2.099586e-01	4.326601e-01	0.0	1.671499e-01	3.585932e-01	0.0	1.292399e-01	2.852138e-01	0.0	9.734131e-02	2.125985e-01	0.0	7.269591e-02	1.408304e-01	0.0	5.663209e-02	6.997974e-02	0.0	1.329760e-01	0.000000e+00	0.0	2.311224e-01	0.000000e+00	0.0	3.472127e-01	0.000000e+00	0.0	4.845277e-01	0.000000e+00	0.0	6.469477e-01	0.000000e+00	0.0	8.390627e-01	0.000000e+00	0.0	1.066302e+00	0.000000e+00	0.0	1.335087e+00	0.000000e+00	0.0	1.653013e+00	0.000000e+00	0.0	2.029066e+00	0.000000e+00	0.0	2.473871e+00	0.000000e+00	0.0	3.000000e+00	5.714286e-01	0.0	3.000000e+00	1.142857e+00	0.0	3.000000e+00	1.714286e+00	0.0	3.000000e+00	2.285714e+00	0.0	3.000000e+00	2.857143e+00	0.0	3.000000e+00	3.428571e+00	0.0	2.400000e+00	4.000000e+00	0.0	1.800000e+00	4.000000e+00	0.0	1.200000e+00	4.000000e+00	0.0	6.000000e-01	4.000000e+00	0.0	0.000000e+00	4.000000e+00	0.0	-6.000000e-01	4.000000e+00	0.0	-1.200000e+00	4.000000e+00	0.0	-1.800000e+00	4.000000e+00	0.0	-2.400000e+00	4.000000e+00	0.0	2.899052e-01	9.450615e-01	0.0	5.411963e-01	8.315433e-01	0.0	-1.459280e+00	2.963697e-01	0.0	1.548379e+00	1.784624e-01	0.0	3.254633e-01	5.247214e-01	0.0	9.051545e-02	6.344887e-01	0.0	-7.222535e-01	2.091151e-01	0.0	7.892165e-01	1.120282e-01	0.0	-2.533512e+00	2.110366e+00	0.0	2.624112e+00	1.899776e+00	0.0	-8.117072e-01	3.529262e+00	0.0	1.067904e+00	3.444393e+00	0.0	2.071960e-01	3.098383e-01	0.0	-3.264108e-02	3.855034e-01	0.0	-3.987882e-01	1.433979e-01	0.0	4.407248e-01	8.183434e-02	0.0	4.312495e-01	6.738012e-01	0.0	1.848997e-01	7.927678e-01	0.0	1.590797e-01	1.712878e-01	0.0	-8.813604e-02	2.207755e-01	0.0	2.580498e+00	7.478594e-01	0.0	-2.474553e+00	8.287883e-01	0.0	-2.007039e+00	3.476778e+00	0.0	2.143746e+00	3.413513e+00	0.0	-1.765867e-01	8.861766e-02	0.0	1.941947e-01	6.207405e-02	0.0	2.271517e+00	3.398261e-01	0.0	-2.236034e+00	3.855731e-01	0.0	2.580262e+00	1.336004e+00	0.0	2.267823e+00	1.623557e+00	0.0	2.253648e+00	2.054098e+00	0.0	1.964747e+00	1.776192e+00	0.0	1.932686e+00	1.355721e+00	0.0	1.702966e+00	1.561580e+00	0.0	1.679488e+00	1.925080e+00	0.0	1.472764e+00	1.708357e+00	0.0	1.471845e+00	1.395255e+00	0.0	1.284338e+00	1.525258e+00	0.0	1.280406e+00	1.264876e+00	0.0	1.112014e+00	1.352909e+00	0.0	1.092939e+00	1.632430e+00	0.0	9.458160e-01	1.493211e+00	0.0	9.015093e-01	1.741829e+00	0.0	7.583198e-01	1.631849e+00	0.0	7.000555e-01	1.854632e+00	0.0	5.622033e-01	1.743540e+00	0.0	4.778325e-01	1.968764e+00	0.0	3.286878e-01	1.814371e+00	0.0	1.126803e+00	1.130547e+00	0.0	1.415432e+00	2.061692e+00	0.0	6.739466e-01	2.122785e+00	0.0	1.238756e+00	1.008157e+00	0.0	1.080610e+00	9.383344e-01	0.0	2.096178e-01	2.096450e+00	0.0	-4.965616e-03	1.957909e+00	0.0	1.174681e-01	1.685472e+00	0.0	-2.450094e-01	1.822855e+00	0.0	-1.660190e-01	1.590455e+00	0.0	-4.845197e-01	1.671936e+00	0.0	-5.139092e-01	1.904392e+00	0.0	-4.260883e-01	1.437340e+00	0.0	-7.590386e-01	1.508104e+00	0.0	9.859435e-01	1.030773e+00	0.0	9.402296e-01	8.572192e-01	0.0	1.025042e+00	7.595485e-01	0.0	-1.072092e-01	2.243909e+00	0.0	8.692875e-01	6.829149e-01	0.0	6.211088e-01	1.511425e+00	0.0	5.324728e-01	1.054406e+00	0.0	5.931457e-01	1.012393e+00	0.0	5.618557e-01	1.100697e+00	0.0	6.274325e-01	1.079783e+00	0.0	1.418827e-01	2.409776e+00	0.0	-7.238371e-01	1.246682e+00	0.0	-1.054087e+00	1.320406e+00	0.0	-4.041704e-01	1.177088e+00	0.0	-7.627023e-01	9.669157e-01	0.0	-4.638819e-01	9.478514e-01	0.0	-1.094325e+00	1.617165e+00	0.0	9.538995e-01	5.871636e-01	0.0	1.122772e+00	6.560186e-01	0.0	7.904666e-01	5.296196e-01	0.0	1.058516e-01	1.458665e+00	0.0	1.629510e+00	2.297755e+00	0.0	4.840346e-01	1.121071e+00	0.0	5.235115e-01	1.181348e+00	0.0	6.458072e-01	9.837600e-01	0.0	6.972701e-01	1.056974e+00	0.0	6.661116e-01	1.154464e+00	0.0	7.089377e-01	9.497083e-01	0.0	1.046710e+00	4.840600e-01	0.0	1.252244e+00	5.735851e-01	0.0	4.210359e-01	1.201435e+00	0.0	-2.016131e-01	1.062947e+00	0.0	-2.488729e-01	8.846922e-01	0.0	-4.698203e-01	7.421831e-01	0.0	-2.600851e-01	7.085474e-01	0.0	-1.405566e+00	1.403713e+00	0.0	7.586166e-01	1.141451e+00	0.0	-2.172131e-01	2.561358e+00	0.0	5.030213e-02	2.770467e+00	0.0	7.150301e-01	6.078779e-01	0.0	6.333104e-01	4.719303e-01	0.0	4.736415e-01	1.280247e+00	0.0	7.093645e-01	3.952396e-01	0.0	5.507317e-01	3.478441e-01	0.0	1.330738e+00	2.450638e+00	0.0	-1.457805e+00	1.734633e+00	0.0	1.557035e+00	2.693227e+00	0.0	6.243348e-01	2.738363e-01	0.0	1.149019e+00	3.279378e-01	0.0	-1.352314e+00	1.108050e+00	0.0	-4.607731e-01	5.570720e-01	0.0	-6.292361e-01	5.873071e-01	0.0	-3.095620e-01	5.159419e-01	0.0	-8.317450e-03	1.002239e+00	0.0	2.272025e-03	1.150584e+00	0.0	-1.881353e+00	1.497911e+00	0.0	5.655989e-01	5.477373e-01	0.0	6.571539e-01	6.828884e-01	0.0	7.942687e-01	3.157091e-01	0.0	-1.505877e-01	6.130679e-01	0.0	1.029219e+00	1.919713e+00	0.0	1.383997e+00	4.899115e-01	0.0	1.456735e+00	6.949214e-01	0.0	1.607995e+00	5.615042e-01	0.0	1.696715e+00	8.308086e-01	0.0	1.912495e+00	7.037463e-01	0.0	7.047998e-01	1.253495e+00	0.0	8.139855e-01	1.237519e+00	0.0	-4.578270e-01	3.806235e-01	0.0	-1.530693e-01	1.399467e+00	0.0	-4.860206e-01	2.361954e+00	0.0	-6.221248e-01	2.708243e+00	0.0	-9.208280e-01	2.497310e+00	0.0	-1.048769e+00	2.846179e+00	0.0	-1.432281e+00	2.532372e+00	0.0	-1.807410e-01	4.561876e-01	0.0	3.465324e-01	1.297625e+00	0.0	3.947536e-01	1.398084e+00	0.0	2.985024e-01	1.209020e+00	0.0	4.544562e-01	2.566877e+00	0.0	3.600113e-01	3.030806e+00	0.0	7.428665e-01	2.764647e+00	0.0	-1.136375e+00	1.945298e+00	0.0	8.652643e-01	9.482181e-01	0.0	-1.083586e-01	3.184618e+00	0.0	-8.139981e-02	8.438440e-01	0.0	4.700717e-01	2.362806e-01	0.0	3.815659e-01	3.012201e-01	0.0	3.324873e-01	2.085080e-01	0.0	3.729788e-01	1.134590e+00	0.0	2.568471e-01	1.118791e+00	0.0	1.889913e+00	2.542938e+00	0.0	1.633874e+00	1.237813e+00	0.0	2.559998e+00	2.475239e+00	0.0	1.156129e+00	2.879739e+00	0.0	-1.521081e+00	2.096232e+00	0.0	4.663431e-01	4.160261e-01	0.0	3.356435e-01	3.801979e-01	0.0	1.254045e+00	1.588020e-01	0.0	7.708584e-02	9.093597e-01	0.0	-6.944886e-02	5.369558e-01	0.0	5.070588e-01	3.525102e+00	0.0	-3.140513e-01	3.553798e-01	0.0	-2.015368e-01	3.180354e-01	0.0	8.023534e-01	7.862065e-01	0.0	2.250970e+00	9.744486e-01	0.0	-1.556455e+00	3.054853e+00	0.0	-1.917295e+00	2.708650e+00	0.0	7.513792e-01	1.370733e+00	0.0	-2.438282e+00	1.353773e+00	0.0	9.617516e-01	1.284568e+00	0.0	-1.170785e+00	2.688673e-01	0.0	-1.251863e+00	5.567283e-01	0.0	-1.542662e+00	6.049115e-01	0.0	-9.759918e-01	5.363068e-01	0.0	-1.049994e+00	8.025943e-01	0.0	1.814365e+00	3.007357e+00	0.0	3.392411e-01	1.630844e+00	0.0	7.116516e-01	8.240190e-01	0.0	2.078016e-01	1.307536e+00	0.0	1.266027e-01	9.973045e-01	0.0	5.867056e-01	7.527870e-01	0.0	4.155722e-02	7.814751e-01	0.0	-5.393717e-01	2.125630e-01	0.0	5.970947e-01	9.053403e-02	0.0	1.016343e+00	1.452451e-01	0.0	-9.301740e-01	2.414535e-01	0.0	1.874385e+00	2.247739e-01	0.0	3.099130e-01	7.171152e-02	0.0	-2.726687e-01	1.148192e-01	0.0	-1.407697e+00	3.545383e+00	0.0	5.350642e-01	1.379164e+00	0.0	2.582021e+00	3.089881e+00	0.0	4.442009e-01	4.962443e-01	0.0	-1.812252e+00	3.385603e-01	0.0	-1.920731e+00	7.576437e-01	0.0	1.548228e+00	9.607205e-01	0.0	4.822997e-01	5.986933e-01	0.0	6.382244e-01	8.742669e-01	0.0	1.121811e+00	2.205433e+00	0.0	-2.478526e+00	2.555717e+00	0.0	1.560809e+00	3.496535e+00	0.0	-1.945174e-02	6.668301e-01	0.0	5.920983e-01	9.227052e-01	0.0	-2.409098e+00	3.090944e+00	0.0	2.357635e-01	8.680459e-01	0.0	9.145683e-01	2.356549e-01	0.0	7.975312e-01	2.407843e+00	0.0	-7.736023e-01	4.052010e-01	0.0	1.339786e-01	7.146368e-01	0.0	4.848397e-01	7.499257e-01	0.0	-2.080763e+00	1.125503e+00	0.0	3.765919e-01	6.025603e-01	0.0	3.916887e-02	5.635410e-01	0.0	2.833098e-01	4.511390e-01	0.0	1.318409e+00	8.056058e-01	0.0	2.415845e-01	3.776787e-01	0.0	-6.047946e-02	3.007529e-01	0.0	1.766870e-01	2.403234e-01	0.0	2.680739e-01	2.603898e-01	0.0	-2.707536e-03	4.722178e-01	0.0	2.503903e-01	1.343647e-01	0.0	-1.862393e-01	2.024588e-01	0.0	-6.808814e-01	7.576861e-01	0.0	1.589313e-01	1.201357e+00	0.0	2.206268e+00	6.466668e-01	0.0	8.808300e-01	1.113203e+00	0.0	1.967084e+00	1.031625e+00	0.0	4.800861e-01	1.074584e+00	0.0	8.756407e-01	4.453164e-01	0.0	-5.998630e-01	3.954517e-01	0.0	5.206235e-01	6.941230e-01	0.0	3.366161e-01	1.064924e+00	0.0	1.308920e-01	1.022988e-01	0.0	-1.032993e-01	1.313781e-01	0.0	-1.807970e+00	1.867091e+00	0.0	-1.966273e+00	2.239566e+00	0.0	-1.527637e-01	1.227600e+00	0.0	-7.283584e-01	3.095830e+00	0.0	5.804071e-01	1.250966e+00	0.0	1.420678e+00	1.111049e+00	0.0	-3.501433e-01	2.935807e+00	0.0	1.160063e+00	8.298806e-01	0.0	1.034959e+00	2.541264e+00	0.0	7.762687e-01	3.129224e+00	0.0	-1.050366e+00	1.045302e+00	0.0	2.207737e+00	2.818743e+00	0.0	1.446427e+00	3.104177e+00	0.0	-9.245096e-02	4.4686
[...]
POINT_DATA 394

SCALARS Density float 1
LOOKUP_TABLE default
1.223703e+00	1.223920e+00	1.221356e+00	1.221901e+00	1.223344e+00	1.223567e+00	1.223280e+00	1.223579e+00	1.223564e+00	1.223575e+00	1.223615e+00	1.223640e+00	1.223703e+00	1.223709e+00	1.223719e+00	1.223709e+00	1.223738e+00	1.223756e+00	1.223797e+00	1.223822e+00	1.223839e+00	1.223910e+00	1.223874e+00	1.223994e+00	1.223865e+00	1.224047e+00	1.223872e+00	1.223875e+00	1.223854e+00	1.223802e+00	1.223769e+00	1.223708e+00	1.223694e+00	1.223600e+00	1.223686e+00	1.222899e+00	1.224818e+00	1.219533e+00	1.223782e+00	1.223306e+00	1.223352e+00	1.223351e+00	1.223296e+00	1.223266e+00	1.223249e+00	1.223241e+00	1.223253e+00	1.223279e+00	1.223205e+00	1.223398e+00	1.223200e+00	1.223291e+00	1.223226e+00	1.223172e+00	1.223132e+00	1.223098e+00	1.223020e+00	1.223006e+00	1.223015e+00	1.223162e+00	1.222695e+00	1.223305e+00	1.223050e+00	1.222878e+00	1.222821e+00	1.222950e+00	1.223096e+00	1.223108e+00	1.223250e+00	1.223285e+00	1.223366e+00	1.223411e+00	1.223488e+00	1.223537e+00	1.223568e+00	1.223569e+00	1.222862e+00	1.223715e+00	1.223747e+00	1.222965e+00	1.223301e+00	1.223682e+00	1.223826e+00	1.223066e+00	1.223611e+00	1.223306e+00	1.223506e+00	1.223304e+00	1.223253e+00	1.223826e+00	1.223900e+00	1.223171e+00	1.223436e+00	1.223468e+00	1.223320e+00	1.223894e+00	1.222981e+00	1.223701e+00	1.223587e+00	1.223128e+00	1.223951e+00	1.223273e+00	1.223103e+00	1.223693e+00	1.222972e+00	1.222858e+00	1.223096e+00	1.223092e+00	1.222990e+00	1.222989e+00	1.223005e+00	1.223264e+00	1.222758e+00	1.222828e+00	1.222916e+00	1.223020e+00	1.222822e+00	1.223128e+00	1.223114e+00	1.223249e+00	1.223152e+00	1.223220e+00	1.223427e+00	1.223307e+00	1.222812e+00	1.223014e+00	1.223242e+00	1.222712e+00	1.222892e+00	1.223395e+00	1.223486e+00	1.223487e+00	1.223420e+00	1.223560e+00	1.223631e+00	1.223524e+00	1.223601e+00	1.223612e+00	1.223040e+00	1.222938e+00	1.223066e+00	1.223489e+00	1.223112e+00	1.223165e+00	1.220948e+00	1.221493e+00	1.222706e+00	1.222669e+00	1.223405e+00	1.223681e+00	1.223665e+00	1.223714e+00	1.223731e+00	1.223743e+00	1.223628e+00	1.223017e+00	1.222825e+00	1.223122e+00	1.223499e+00	1.223188e+00	1.221602e+00	1.223102e+00	1.222525e+00	1.222635e+00	1.222444e+00	1.222911e+00	1.223055e+00	1.222950e+00	1.223119e+00	1.223677e+00	1.223732e+00	1.223755e+00	1.223728e+00	1.223662e+00	1.222518e+00	1.223457e+00	1.223448e+00	1.223266e+00	1.223179e+00	1.223041e+00	1.223146e+00	1.223205e+00	1.223285e+00	1.223629e+00	1.223172e+00	1.223180e+00	1.222950e+00	1.223705e+00	1.223798e+00	1.223820e+00	1.223903e+00	1.223583e+00	1.223537e+00	1.223669e+00	1.223247e+00	1.223328e+00	1.223084e+00	1.223780e+00	1.223366e+00	1.222801e+00	1.223005e+00	1.222766e+00	1.222748e+00	1.222906e+00	1.222742e+00	1.222748e+00	1.223854e+00	1.223486e+00	1.223520e+00	1.223502e+00	1.223561e+00	1.223547e+00	1.223600e+00	1.223816e+00	1.223092e+00	1.223465e+00	1.223417e+00	1.223328e+00	1.223365e+00	1.223388e+00	1.223605e+00	1.222769e+00	1.223405e+00	1.223743e+00	1.223180e+00	1.223207e+00	1.223241e+00	1.223582e+00	1.223083e+00	1.223098e+00	1.222757e+00	1.223287e+00	1.223299e+00	1.223623e+00	1.223289e+00	1.223161e+00	1.222831e+00	1.223552e+00	1.223900e+00	1.223406e+00	1.223874e+00	1.223900e+00	1.223009e+00	1.222753e+00	1.223543e+00	1.223580e+00	1.222579e+00	1.223649e+00	1.222815e+00	1.223785e+00	1.223802e+00	1.223678e+00	1.223777e+00	1.223701e+00	1.223264e+00	1.223446e+00	1.223079e+00	1.223384e+00	1.223644e+00	1.223370e+00	1.223750e+00	1.223929e+00	1.223151e+00	1.223050e+00	1.223820e+00	1.222829e+00	1.223300e+00	1.223961e+00	1.223547e+00	1.223016e+00	1.223165e+00	1.223331e+00	1.223746e+00	1.223696e+00	1.222897e+00	1.223283e+00	1.222935e+00	1.223214e+00	1.223616e+00	1.223243e+00	1.223698e+00	1.223007e+00	1.223601e+00	1.223979e+00	1.223049e+00	1.223345e+00	1.223779e+00	1.223736e+00	1.223311e+00	1.223666e+00	1.223363e+00	1.223730e+00	1.223284e+00	1.222877e+00	1.223269e+00	1.223877e+00	1.223258e+00	1.223186e+00	1.223757e+00	1.223158e+00	1.223928e+00	1.223727e+00	1.223525e+00	1.222757e+00	1.222851e+00	1.223163e+00	1.225647e+00	1.223096e+00	1.223858e+00	1.223233e+00	1.223389e+00	1.223225e+00	1.223910e+00	1.223616e+00	1.223623e+00	1.223591e+00	1.223502e+00	1.222648e+00	1.222949e+00	1.223465e+00	1.222826e+00	1.223233e+00	1.223285e+00	1.223734e+00	1.223299e+00	1.223245e+00	1.223854e+00	1.223538e+00	1.223503e+00	1.223075e+00	1.223541e+00	1.222737e+00	1.223147e+00	1.223844e+00	1.223135e+00	1.223362e+00	1.223190e+00	1.223357e+00	1.223709e+00	1.223100e+00	1.223270e+00	1.223610e+00	1.222849e+00	1.223714e+00	1.223120e+00	1.222264e+00	1.223725e+00	1.223668e+00	1.223112e+00	1.223348e+00	1.222274e+00	1.223580e+00	1.223086e+00	1.223577e+00	1.223764e+00	1.225592e+00	1.223859e+00	1.223704e+00	1.223186e+00	1.223163e+00	1.223559e+00	1.223412e+00	1.223721e+00	1.223037e+00	1.223885e+00	1.222955e+00	1.222873e+00	1.223562e+00	1.222924e+00	1.223558e+00	1.223275e+00	1.223772e+00	1.223702e+00	1.223674e+00	1.223195e+00	1.223213e+00	1.223934e+00	1.223384e+00	1.223484e+00	1.223128e+00	1.223455e+00	1.222651e+00	1.223362e+00	1.223154e+00	1.223234e+00	1.223455e+00	1.223721e+00	1.222897e+00	1.223351e+00	1.222635e+00	1.223265e+00	1.222849e+00	1.223567e+00	1.222727e+00	
SCALARS X-Momentum float 1
LOOKUP_TABLE default
8.927743e+00	4.466813e-01	7.021524e+00	-3.693802e-01	-5.759313e-01	-4.153434e+00	1.616283e+01	1.041334e+01	1.028952e+01	1.009771e+01	9.860550e+00	9.586316e+00	9.331179e+00	9.090477e+00	8.786355e+00	8.499653e+00	8.068129e+00	7.503268e+00	6.855311e+00	6.104428e+00	5.242111e+00	4.387147e+00	3.370299e+00	2.347755e+00	1.320386e+00	1.289207e-01	6.099910e-01	1.273851e+00	2.013272e+00	2.786934e+00	3.526462e+00	4.212185e+00	4.862379e+00	5.458945e+00	5.868112e+00	5.794317e+00	5.358587e+00	3.570701e+00	7.849027e-01	1.056238e+00	1.615303e+00	1.979299e+00	2.201477e+00	2.287985e+00	2.182184e+00	1.918101e+00	1.548023e+00	1.096602e+00	6.613110e-01	2.998665e-01	-1.914492e+00	-3.471945e+00	-4.768667e+00	-5.893267e+00	-6.782515e+00	-7.453173e+00	-7.922883e+00	-8.155750e+00	-7.710338e+00	-6.806693e+00	-5.828542e+00	-2.722775e-01	5.197169e+00	1.046250e+01	1.419457e+01	1.597811e+01	1.637034e+01	1.547238e+01	1.461425e+01	1.367900e+01	1.290056e+01	1.225593e+01	1.169913e+01	1.120799e+01	1.080395e+01	1.053626e+01	6.045677e+00	1.872955e+00	7.969141e+00	-5.496014e+00	2.189595e+00	5.092599e+00	5.977178e+00	-5.219328e+00	9.802354e+00	1.254318e+01	1.137328e+01	1.379619e+01	1.244588e+00	3.087561e+00	4.056084e+00	-3.924075e+00	2.225320e+00	6.077941e+00	1.355557e-01	1.807987e+00	1.385489e+00	9.098349e+00	1.053665e+01	1.544642e+01	1.908823e+00	-1.810973e+00	-2.827479e+00	8.800448e+00	7.528873e+00	1.084242e+01	1.397762e+01	1.277545e+01	8.801795e+00	1.146482e+01	1.424340e+01	1.328605e+01	1.007520e+01	1.197896e+01	8.428417e+00	1.019192e+01	1.360277e+01	1.269337e+01	1.456543e+01	1.427825e+01	1.462304e+01	1.426513e+01	1.382895e+01	1.312502e+01	6.509998e+00	1.503827e+01	1.426332e+01	4.881847e+00	3.913747e+00	1.271075e+01	1.188884e+01	1.192270e+01	1.102284e+01	1.067932e+01	1.030571e+01	1.061573e+01	9.782755e+00	9.672873e+00	4.676013e+00	2.881487e+00	2.210200e+00	1.180651e+01	1.942337e+00	1.397097e+01	5.420103e+00	2.046166e+00	6.448769e+00	4.356709e+00	1.247917e+01	9.072723e+00	9.197384e+00	8.981339e+00	8.256765e+00	7.996935e+00	9.675343e+00	8.724924e-01	1.106450e+00	9.854111e-01	1.130109e+01	1.538323e+01	9.829938e+00	1.070645e+01	1.865476e+00	3.773540e+00	7.259609e+00	2.436203e+00	-6.730781e-01	-2.690654e-01	1.194419e+01	8.582090e+00	7.586371e+00	7.081110e+00	6.470760e+00	9.324200e+00	6.194886e+00	1.174348e+01	1.229833e+01	2.040670e+00	1.117630e+00	1.282274e+01	-2.250134e-01	-4.597378e-02	1.523414e+01	9.714463e+00	1.526854e+01	-1.556486e+00	-2.864036e+00	8.884911e+00	6.181258e+00	6.747805e+00	5.444167e+00	8.087127e+00	9.166257e+00	9.431902e+00	2.093593e+00	2.623850e+00	-1.762048e+00	5.538325e+00	1.489928e+01	-1.490979e+00	9.584336e-01	-7.929709e-01	2.406756e+00	8.215441e-01	1.007093e+01	9.014955e+00	5.338712e+00	1.006374e+01	1.117616e+01	1.125248e+01	1.076987e+01	1.087542e+01	1.040067e+01	4.478686e+00	1.242645e+01	1.322231e+01	1.118175e+01	1.319282e+01	1.282921e+01	1.379442e+01	1.008219e+01	3.300873e+00	1.209864e+01	7.079468e+00	-1.228056e+00	2.452925e-01	-7.487970e-01	1.067731e+01	9.468331e+00	1.552249e+01	7.780708e+00	1.527762e+01	1.446671e+01	1.004466e+01	1.247777e+00	1.347535e+00	-5.661060e+00	7.279695e+00	4.725930e+00	1.290834e+01	4.525234e+00	3.561710e+00	2.587979e+00	3.781792e+00	1.059940e+01	1.026794e+01	1.214978e+01	9.380554e+00	9.412423e+00	7.425959e+00	7.946931e+00	8.386388e+00	7.420803e+00	8.072468e+00	1.526347e+01	1.313294e+01	2.626192e+00	1.136711e+01	7.861464e+00	2.569020e+00	6.377193e+00	5.112141e+00	-4.695383e+00	-5.446615e+00	6.769842e+00	-4.614600e+00	-2.942679e+00	2.968424e+00	1.089799e+01	1.359559e+01	1.605980e+01	1.991644e+00	8.448317e+00	8.824735e+00	4.206047e+00	2.351401e+00	2.196495e+00	1.508064e+01	1.003414e+01	1.457793e+01	5.553242e+00	1.164627e+00	1.027612e+01	6.392082e+00	-3.441928e+00	1.425243e+01	6.678706e+00	5.628132e+00	2.028480e+00	9.157215e+00	2.251125e+00	4.551271e+00	1.978833e+00	2.577356e+00	1.663149e+00	2.389741e+00	7.408749e-01	3.864987e-01	3.829337e+00	-1.196280e+00	2.558613e+00	7.468385e+00	1.008923e+01	1.969752e-01	5.843224e+00	4.793098e+00	8.458233e+00	-4.197165e-01	5.994211e+00	2.495027e+00	8.635947e+00	-4.156396e-01	1.276004e+00	9.763715e+00	9.979313e+00	9.383312e+00	1.131310e+01	1.133201e+01	6.262730e+00	1.170484e+01	2.779120e+00	1.470038e+01	1.350941e+01	8.640026e+00	1.569894e+01	1.470152e+01	3.967594e+00	1.112129e+01	1.190228e+01	1.489945e+01	1.059236e+01	3.579958e+00	1.441938e+01	3.681418e+00	-2.850428e+00	1.482602e+01	-2.199057e+00	1.337124e+01	9.051362e+00	-3.269230e+00	1.372308e+01	1.013790e+01	2.698456e+00	8.429706e+00	-2.664454e+00	-2.779371e+00	8.958740e+00	7.053328e+00	7.511254e+00	1.231074e+01	8.385847e+00	1.018807e+01	1.134821e+01	1.037581e+01	4.599941e+00	6.720998e+00	3.396401e+00	8.718090e+00	-1.355335e-01	1.297581e+01	1.038944e+01	1.236254e+01	6.270002e+00	1.595906e+01	2.756771e+00	-3.410555e+00	-1.807735e+00	1.040318e+01	-1.873909e+00	1.099025e+01	1.265134e+01	7.184550e+00	8.796388e+00	9.647342e+00	1.012326e+00	1.849963e+00	9.101389e-01	-7.892855e-01	1.397135e+01	1.481068e+01	6.649520e+00	1.322180e+01	9.566857e+00	1.540261e+01	2.194385e+00	1.166750e+01	7.674480e+00	7.471457e+00	2.564635e+00	5.437714e+00	1.374075e+01	9.465060e+00	5.725534e+00	7.190938e+00	
SCALARS Y-Momentum float 1
LOOKUP_TABLE default
-1.811061e-02	4.410225e-01	4.987063e+00	-9.430160e-01	5.436335e-01	2.371506e-01	6.110333e-02	-1.202644e-02	1.425526e-02	4.059150e-02	5.573897e-02	7.208007e-02	6.003751e-02	1.044344e-02	-3.406509e-03	-1.076511e-04	7.087883e-03	6.309210e-03	1.235624e-02	1.510147e-02	2.364400e-03	3.093126e-02	1.406553e-02	8.627146e-03	-3.528026e-02	1.436268e+00	2.561502e+00	3.584989e+00	4.578549e+00	5.457660e+00	6.215504e+00	6.875505e+00	7.483519e+00	8.110574e+00	8.526267e+00	8.553334e+00	8.546383e+00	-2.824956e+00	8.873093e-01	1.621775e+00	2.329141e+00	2.904952e+00	3.292319e+00	3.531470e+00	3.587762e+00	3.468483e+00	3.197053e+00	2.769116e+00	2.223027e+00	1.461281e+00	-2.047387e-04	3.804582e-02	2.531804e-02	8.427422e-03	1.705967e-03	5.542965e-03	9.715457e-03	4.244441e-03	-3.901159e-02	-6.395610e-02	-1.025422e-01	-5.333953e-01	-4.895640e-01	2.280252e-02	7.079474e-01	8.971815e-01	5.142207e-01	1.005157e-02	-1.068791e-03	-1.038626e-02	-4.012796e-02	-2.655338e-02	-5.768635e-03	-5.719801e-03	1.537435e-03	-3.426333e-03	8.819464e+00	2.092272e+00	4.962095e-01	-2.005953e-01	3.142342e+00	6.582247e+00	9.108102e-01	4.151745e-01	3.692757e-01	3.569373e-01	4.157656e-01	8.280865e-01	2.952198e+00	4.529443e+00	1.048895e+00	5.972011e-01	2.701998e+00	7.701590e+00	2.152166e+00	2.807925e+00	-8.641929e-01	3.136719e-01	2.392196e-01	8.299246e-01	9.344429e-01	8.289205e-01	-6.352374e-01	2.406933e-01	-4.769876e-01	5.492264e-02	9.079141e-01	8.224117e-01	1.574981e-02	7.735498e-01	1.627024e+00	1.616273e+00	9.007863e-01	1.669554e+00	1.185531e+00	1.782970e+00	2.641729e+00	2.880148e+00	3.708516e+00	4.201151e+00	4.358327e+00	5.047821e+00	4.257351e+00	4.886026e+00	1.438909e+00	2.327462e+00	3.680486e+00	1.274979e+00	1.872861e+00	3.539842e+00	3.619814e+00	4.980644e+00	3.424072e+00	4.215932e+00	3.014520e+00	2.556820e+00	3.508832e+00	2.493491e+00	1.960772e+00	2.610239e+00	2.236465e+00	2.627836e+00	2.760885e+00	4.893511e+00	-7.374242e-02	2.011831e-01	1.061973e+00	9.044559e-01	2.512186e+00	2.699233e+00	1.976848e+00	3.784411e+00	2.566280e+00	3.540231e+00	1.825970e+00	2.125426e+00	1.690142e+00	2.359395e+00	6.077677e+00	2.008265e+00	4.994748e+00	4.299149e+00	1.796057e+00	1.818821e+00	1.810646e+00	2.809275e+00	1.423416e+00	9.209733e-01	7.690755e+00	4.890116e+00	4.561955e+00	3.336172e+00	4.218002e+00	1.426349e+00	1.816432e+00	1.844872e+00	1.647303e+00	2.924027e+00	2.450420e+00	6.673740e+00	1.890312e+00	2.029234e+00	2.347397e+00	1.312089e+00	1.872049e+00	1.418179e+00	6.139379e-01	1.439782e+00	2.953319e+00	2.409167e+00	3.425298e+00	6.328477e+00	6.504329e+00	9.159526e-01	2.860372e+00	3.215127e+00	1.307670e+00	4.569355e+00	3.269338e+00	3.161650e-01	3.337076e-01	-7.962938e-02	-1.904911e-01	-6.706270e-01	2.536297e+00	2.033936e+00	2.303757e+00	4.800087e+00	1.916379e+00	1.357463e+00	1.399750e+00	9.751010e-01	9.803248e-01	3.780200e+00	8.246785e+00	7.271665e+00	9.172891e+00	2.352699e+00	1.307059e+00	2.038939e+00	1.618571e+00	2.634712e+00	9.345558e-01	5.579785e+00	1.622708e+00	2.312470e+00	1.894484e+00	9.124949e+00	9.674729e+00	1.703563e+00	3.272071e-01	1.093371e+00	1.797820e+00	1.146679e+00	2.605990e+00	2.820461e+00	1.001784e-01	7.020676e+00	4.935519e+00	6.182707e-01	2.654950e+00	2.884858e+00	3.235870e+00	-9.233595e-01	5.956855e-01	5.743816e-01	3.243650e+00	4.381930e-01	1.819823e+00	6.252125e-01	1.083856e+00	8.295289e-01	1.415076e+00	1.711636e+00	1.432184e+00	5.933153e+00	3.379444e+00	7.927990e+00	8.010005e+00	2.877059e+00	6.503064e+00	1.154980e+00	4.812938e-01	3.108635e-01	7.666456e-01	-4.003921e-01	7.663054e-01	1.044455e+00	3.143826e-01	5.819638e+00	1.039511e+00	2.875644e+00	3.799595e-01	6.336324e-01	3.489233e-01	2.872262e+00	2.800184e+00	2.929386e+00	3.426293e-01	7.789065e-01	5.721427e+00	1.636388e+00	2.542794e-01	8.459732e+00	8.138203e-01	2.924351e+00	1.578673e+00	7.129682e+00	2.323370e+00	6.668977e-01	2.958984e+00	5.935168e+00	3.195679e+00	1.056694e+00	3.136195e+00	3.724341e+00	2.636748e+00	2.461832e+00	5.232290e+00	1.558718e+00	2.095062e+00	2.614742e+00	8.215048e+00	-9.000628e-01	1.891861e+00	-5.557948e-01	2.639502e+00	1.720832e+00	1.903950e+00	2.756077e+00	1.013359e+01	1.564730e+00	1.788036e+00	9.390117e-01	7.174105e-01	5.098421e+00	8.740362e-01	3.827586e+00	8.041301e-01	1.208069e+00	1.701792e+00	2.502233e+00	1.298927e+00	1.928197e+00	1.425281e+00	1.394675e+00	4.393176e+00	2.573399e+00	4.120297e-01	1.528128e+00	1.913406e+00	2.386943e+00	2.471737e+00	1.964728e+00	1.014302e+00	3.493411e+00	1.256175e+00	3.281177e+00	1.010004e+00	8.847715e-01	6.340875e+00	2.209468e+00	3.194875e+00	1.319933e+00	-4.114689e-01	-4.968043e-01	1.056016e-01	8.447642e+00	9.585861e+00	7.539299e+00	1.989163e+00	6.449984e+00	2.540409e+00	1.384413e+00	1.831739e+00	1.006460e+01	3.724281e+00	1.011043e+00	2.155769e+00	4.105745e+00	1.004514e-01	5.882176e-01	5.237199e+00	4.941620e-01	3.059455e+00	4.716187e-02	-7.287867e-01	4.188126e-01	1.166742e+00	6.338224e-01	6.550881e+00	2.015468e+00	8.205012e+00	5.842509e-01	2.745318e+00	2.923677e+00	8.234989e-01	8.337420e-01	5.818928e+00	3.849336e+00	7.592551e+00	3.468526e+00	4.227420e+00	1.442278e+00	2.946290e+00	7.238707e-01	2.043192e+00	-5.517211e-01	2.970450e+00	-1.012663e-01	3.076895e+00	7.283699e+00	6.384966e+00	1.565162e+00	
SCALARS Energy float 1
LOOKUP_TABLE default