# vtk DataFile Version 3.0
vtk output
ASCII
DATASET UNSTRUCTURED_GRID
POINTS 394 float
-3.000000e+00	0.000000e+00	0.0	-5.000000e-02	3.916827e-17	0.0	3.399794e-01	1.026971e+00	0.0	4.400295e-01	9.727108e-01	0.0	5.000000e-02	-6.894681e-18	0.0	3.000000e+00	0.000000e+00	0.0	3.000000e+00	4.000000e+00	0.0	-3.000000e+00	4.000000e+00	0.0	-3.000000e+00	3.428571e+00	0.0	-3.000000e+00	2.857143e+00	0.0	-3.000000e+00	2.285714e+00	0.0	-3.000000e+00	1.714286e+00	0.0	-3.000000e+00	1.142857e+00	0.0	-3.000000e+00	5.714286e-01	0.0	-2.473871e+00	0.000000e+00	0.0	-2.029066e+00	0.000000e+00	0.0	-1.653013e+00	0.000000e+00	0.0	-1.335087e+00	0.000000e+00	0.0	-1.066302e+00	0.000000e+00	0.0	-8.390627e-01	0.000000e+00	0.0	-6.469477e-01	0.000000e+00	0.0	-4.845277e-01	0.000000e+00	0.0	-3.472127e-01	0.000000e+00	0.0	-2.311224e-01	0.000000e+00	0.0	-1.329760e-01	0.000000e+00	0.0	-4.553562e-02	8.161025e-02	0.0	-3.459028e-02	1.628296e-01	0.0	-1.736148e-02	2.435282e-01	0.0	5.347923e-03	3.237364e-01	0.0	3.278516e-02	4.034626e-01	0.0	6.419513e-02	4.827107e-01	0.0	9.883306e-02	5.614991e-01	0.0	1.359999e-01	6.398617e-01	0.0	1.750564e-01	7.178412e-01	0.0	2.154362e-01	7.954800e-01	0.0	2.566258e-01	8.728433e-01	0.0	2.982879e-01	9.499598e-01	0.0	3.900048e-01	9.998853e-01	0.0	3.982323e-01	8.958437e-01	0.0	3.566278e-01	8.190805e-01	0.0	3.154281e-01	7.425577e-01	0.0	2.750561e-01	6.663298e-01	0.0	2.360037e-01	5.904540e-01	0.0	1.988421e-01	5.149763e-01	0.0	1.642080e-01	4.399392e-01	0.0	1.328019e-01	3.653771e-01	0.0	1.053681e-01	2.913094e-01	0.0	8.266273e-02	2.177412e-01	0.0	6.544299e-02	1.446759e-01	0.0	5.444070e-02	7.211633e-02	0.0	1.329760e-01	0.000000e+00	0.0	2.311224e-01	0.000000e+00	0.0	3.472127e-01	0.000000e+00	0.0	4.845277e-01	0.000000e+00	0.0	6.469477e-01	0.000000e+00	0.0	8.390627e-01	0.000000e+00	0.0	1.066302e+00	0.000000e+00	0.0	1.335087e+00	0.000000e+00	0.0	1.653013e+00	0.000000e+00	0.0	2.029066e+00	0.000000e+00	0.0	2.473871e+00	0.000000e+00	0.0	3.000000e+00	5.714286e-01	0.0	3.000000e+00	1.142857e+00	0.0	3.000000e+00	1.714286e+00	0.0	3.000000e+00	2.285714e+00	0.0	3.000000e+00	2.857143e+00	0.0	3.000000e+00	3.428571e+00	0.0	2.400000e+00	4.000000e+00	0.0	1.800000e+00	4.000000e+00	0.0	1.200000e+00	4.000000e+00	0.0	6.000000e-01	4.000000e+00	0.0	0.000000e+00	4.000000e+00	0.0	-6.000000e-01	4.000000e+00	0.0	-1.200000e+00	4.000000e+00	0.0	-1.800000e+00	4.000000e+00	0.0	-2.400000e+00	4.000000e+00	0.0	1.806376e-01	9.306457e-01	0.0	4.249177e-01	8.447282e-01	0.0	-1.464892e+00	2.844363e-01	0.0	1.533022e+00	1.911810e-01	0.0	2.617895e-01	5.367774e-01	0.0	2.908553e-02	6.189640e-01	0.0	-7.284653e-01	1.960672e-01	0.0	7.757429e-01	1.233727e-01	0.0	-2.546488e+00	2.101335e+00	0.0	2.593711e+00	1.910037e+00	0.0	-8.409682e-01	3.522564e+00	0.0	1.024384e+00	3.446096e+00	0.0	1.771315e-01	3.194183e-01	0.0	-5.999989e-02	3.736544e-01	0.0	-4.032991e-01	1.337619e-01	0.0	4.325125e-01	8.885711e-02	0.0	3.421187e-01	6.867137e-01	0.0	9.939360e-02	7.767800e-01	0.0	1.456662e-01	1.780957e-01	0.0	-9.959987e-02	2.125858e-01	0.0	2.561732e+00	7.662508e-01	0.0	-2.481318e+00	8.182391e-01	0.0	-2.019360e+00	3.469986e+00	0.0	2.120570e+00	3.419441e+00	0.0	-1.790085e-01	8.410898e-02	0.0	1.903431e-01	6.575285e-02	0.0	2.255718e+00	3.557464e-01	0.0	-2.239302e+00	3.782824e-01	0.0	2.546131e+00	1.352991e+00	0.0	2.214568e+00	1.644833e+00	0.0	2.199587e+00	2.067707e+00	0.0	1.893825e+00	1.796459e+00	0.0	1.865206e+00	1.385196e+00	0.0	1.617455e+00	1.586885e+00	0.0	1.594760e+00	1.943063e+00	0.0	1.374266e+00	1.728760e+00	0.0	1.375524e+00	1.422050e+00	0.0	1.176166e+00	1.545963e+00	0.0	1.174539e+00	1.291282e+00	0.0	9.932490e-01	1.373918e+00	0.0	9.752486e-01	1.645538e+00	0.0	8.179259e-01	1.504302e+00	0.0	7.801727e-01	1.747180e+00	0.0	6.297582e-01	1.634998e+00	0.0	5.784025e-01	1.854443e+00	0.0	4.351277e-01	1.737790e+00	0.0	3.592914e-01	1.962686e+00	0.0	2.044177e-01	1.802412e+00	0.0	1.014932e+00	1.156079e+00	0.0	1.321660e+00	2.076033e+00	0.0	5.618252e-01	2.121684e+00	0.0	1.140490e+00	1.039078e+00	0.0	9.785509e-01	9.660398e-01	0.0	1.014169e-01	2.084664e+00	0.0	-1.094545e-01	1.937806e+00	0.0	-3.463534e-03	1.664046e+00	0.0	-3.391653e-01	1.793706e+00	0.0	-2.675396e-01	1.556899e+00	0.0	-5.681046e-01	1.639021e+00	0.0	-5.961334e-01	1.873884e+00	0.0	-5.120292e-01	1.398436e+00	0.0	-8.252439e-01	1.473548e+00	0.0	8.716148e-01	1.053299e+00	0.0	8.356415e-01	8.821986e-01	0.0	9.356626e-01	7.878505e-01	0.0	-2.003272e-01	2.224086e+00	0.0	7.818056e-01	7.097205e-01	0.0	4.876229e-01	1.508985e+00	0.0	3.947186e-01	1.051394e+00	0.0	4.550730e-01	1.018521e+00	0.0	4.238727e-01	1.099070e+00	0.0	4.904262e-01	1.083985e+00	0.0	4.598986e-02	2.396054e+00	0.0	-7.826970e-01	1.210918e+00	0.0	-1.100127e+00	1.286873e+00	0.0	-4.826065e-01	1.137885e+00	0.0	-8.019649e-01	9.305955e-01	0.0	-5.196051e-01	9.085881e-01	0.0	-1.146933e+00	1.585021e+00	0.0	8.819320e-01	6.164332e-01	0.0	1.047773e+00	6.872412e-01	0.0	7.220164e-01	5.565439e-01	0.0	-1.543094e-02	1.432166e+00	0.0	1.551080e+00	2.310665e+00	0.0	3.466180e-01	1.112019e+00	0.0	3.857749e-01	1.175751e+00	0.0	5.121422e-01	9.936772e-01	0.0	5.634325e-01	1.066350e+00	0.0	5.289850e-01	1.158813e+00	0.0	5.819365e-01	9.638491e-01	0.0	9.891034e-01	5.150116e-01	0.0	1.190856e+00	6.039285e-01	0.0	2.875226e-01	1.188997e+00	0.0	-2.850905e-01	1.025915e+00	0.0	-3.131522e-01	8.469053e-01	0.0	-5.094649e-01	7.087013e-01	0.0	-3.078073e-01	6.740046e-01	0.0	-1.442483e+00	1.372841e+00	0.0	6.257034e-01	1.151141e+00	0.0	-2.958753e-01	2.543272e+00	0.0	-2.608167e-02	2.755848e+00	0.0	6.333020e-01	6.343476e-01	0.0	5.708770e-01	4.959367e-01	0.0	3.382983e-01	1.270721e+00	0.0	6.588810e-01	4.188709e-01	0.0	5.078502e-01	3.681594e-01	0.0	1.244726e+00	2.458634e+00	0.0	-1.499528e+00	1.706800e+00	0.0	1.487995e+00	2.702876e+00	0.0	5.913079e-01	2.928161e-01	0.0	1.112429e+00	3.540629e-01	0.0	-1.381788e+00	1.077711e+00	0.0	-4.872757e-01	5.297173e-01	0.0	-6.541492e-01	5.593545e-01	0.0	-3.377637e-01	4.896219e-01	0.0	-1.015772e-01	9.686686e-01	0.0	-1.015190e-01	1.118453e+00	0.0	-1.907782e+00	1.474353e+00	0.0	4.899641e-01	5.722903e-01	0.0	5.627067e-01	7.076527e-01	0.0	7.545214e-01	3.380895e-01	0.0	-1.955629e-01	5.847167e-01	0.0	9.147536e-01	1.925302e+00	0.0	1.335468e+00	5.170836e-01	0.0	1.394769e+00	7.269255e-01	0.0	1.562024e+00	5.906352e-01	0.0	1.635368e+00	8.616084e-01	0.0	1.869786e+00	7.316088e-01	0.0	5.699420e-01	1.258451e+00	0.0	6.826087e-01	1.247503e+00	0.0	-4.726999e-01	3.600530e-01	0.0	-2.527966e-01	1.362643e+00	0.0	-5.626676e-01	2.339066e+00	0.0	-6.832459e-01	2.690690e+00	0.0	-9.787269e-01	2.475879e+00	0.0	-1.095860e+00	2.831928e+00	0.0	-1.475213e+00	2.511866e+00	0.0	-2.081559e-01	4.334667e-01	0.0	2.166663e-01	1.281240e+00	0.0	2.632336e-01	1.384046e+00	0.0	1.721900e-01	1.190054e+00	0.0	3.575745e-01	2.561810e+00	0.0	2.930398e-01	3.023781e+00	0.0	6.581494e-01	2.764618e+00	0.0	-1.190801e+00	1.916646e+00	0.0	7.470736e-01	9.693677e-01	0.0	-1.588527e-01	3.171809e+00	0.0	-1.529279e-01	8.097616e-01	0.0	4.448851e-01	2.518042e-01	0.0	3.485134e-01	3.196852e-01	0.0	3.120029e-01	2.219066e-01	0.0	2.432450e-01	1.119631e+00	0.0	1.368927e-01	1.098196e+00	0.0	1.828713e+00	2.555384e+00	0.0	1.551735e+00	1.268731e+00	0.0	2.527563e+00	2.482147e+00	0.0	1.082946e+00	2.884430e+00	0.0	-1.562942e+00	2.070696e+00	0.0	4.126715e-01	4.388620e-01	0.0	2.921869e-01	3.970507e-01	0.0	1.238400e+00	1.716219e-01	0.0	-1.359943e-02	8.816218e-01	0.0	-1.099662e-01	5.156611e-01	0.0	4.686284e-01	3.520101e+00	0.0	-3.298563e-01	3.366408e-01	0.0	-2.171896e-01	3.018371e-01	0.0	6.961230e-01	8.093096e-01	0.0	2.207809e+00	1.001278e+00	0.0	-1.585021e+00	3.044172e+00	0.0	-1.943204e+00	2.697022e+00	0.0	6.184615e-01	1.376159e+00	0.0	-2.450842e+00	1.338966e+00	0.0	8.369934e-01	1.300563e+00	0.0	-1.176607e+00	2.562491e-01	0.0	-1.266754e+00	5.343463e-01	0.0	-1.555866e+00	5.839501e-01	0.0	-9.930390e-01	5.095208e-01	0.0	-1.075145e+00	7.712434e-01	0.0	1.763223e+00	3.015165e+00	0.0	2.106291e-01	1.616744e+00	0.0	5.977231e-01	8.427360e-01	0.0	8.421684e-02	1.284482e+00	0.0	2.512371e-02	9.707691e-01	0.0	4.821871e-01	7.727054e-01	0.0	-3.202579e-02	7.555336e-01	0.0	-5.454528e-01	1.979191e-01	0.0	5.873061e-01	9.906461e-02	0.0	9.996856e-01	1.599732e-01	0.0	-9.358332e-01	2.277048e-01	0.0	1.859126e+00	2.389826e-01	0.0	3.037327e-01	7.676645e-02	0.0	-2.761440e-01	1.079916e-01	0.0	-1.427155e+00	3.539471e+00	0.0	4.000258e-01	1.372986e+00	0.0	2.564323e+00	3.093226e+00	0.0	3.795909e-01	5.171541e-01	0.0	-1.816704e+00	3.278233e-01	0.0	-1.933626e+00	7.373735e-01	0.0	1.473752e+00	9.917695e-01	0.0	4.020135e-01	6.177800e-01	0.0	5.143712e-01	8.889598e-01	0.0	1.018686e+00	2.210384e+00	0.0	-2.491202e+00	2.547433e+00	0.0	1.525996e+00	3.499880e+00	0.0	-7.774259e-02	6.422506e-01	0.0	4.598788e-01	9.336243e-01	0.0	-2.421482e+00	3.086768e+00	0.0	1.387718e-01	8.527770e-01	0.0	8.854326e-01	2.563847e-01	0.0	6.954840e-01	2.407136e+00	0.0	-7.871935e-01	3.830372e-01	0.0	6.133693e-02	6.984493e-01	0.0	3.832643e-01	7.630752e-01	0.0	-2.097580e+00	1.104902e+00	0.0	3.001373e-01	6.149119e-01	0.0	-1.099830e-02	5.475563e-01	0.0	2.316351e-01	4.629825e-01	0.0	1.239302e+00	8.390406e-01	0.0	2.019361e-01	3.885265e-01	0.0	-7.903316e-02	2.909781e-01	0.0	1.558588e-01	2.484003e-01	0.0	2.424046e-01	2.729661e-01	0.0	-4.027674e-02	4.582156e-01	0.0	2.385428e-01	1.426944e-01	0.0	-1.949385e-01	1.920921e-01	0.0	-7.121413e-01	7.251031e-01	0.0	4.206801e-02	1.175332e+00	0.0	2.177199e+00	6.712008e-01	0.0	7.557541e-01	1.129862e+00	0.0	1.908790e+00	1.061826e+00	0.0	3.434334e-01	1.065648e+00	0.0	8.203839e-01	4.721000e-01	0.0	-6.144587e-01	3.735205e-01	0.0	4.258800e-01	7.117060e-01	0.0	2.134939e-01	1.050133e+00	0.0	1.251672e-01	1.062681e-01	0.0	-1.080521e-01	1.264648e-01	0.0	-1.840762e+00	1.843832e+00	0.0	-1.994379e+00	2.220413e+00	0.0	-2.483101e-01	1.192299e+00	0.0	-7.740262e-01	3.084452e+00	0.0	4.425413e-01	1.248010e+00	0.0	1.329738e+00	1.141132e+00	0.0	-4.081988e-01	2.921475e+00	0.0	1.070455e+00	8.610666e-01	0.0	9.437563e-01	2.544649e+00	0.0	7.122982e-01	3.127925e+00	0.0	-1.084867e+00	1.012186e+00	0.0	2.165484e+00	2.829001e+00	0.0	1.391432e+00	3.110896e+00	0.0	-1.231272e-01
[...]
POINT_DATA 394

SCALARS Density float 1
LOOKUP_TABLE default
1.223721e+00	1.223914e+00	1.221753e+00	1.222031e+00	1.223486e+00	1.223671e+00	1.223273e+00	1.223596e+00	1.223581e+00	1.223592e+00	1.223634e+00	1.223659e+00	1.223725e+00	1.223731e+00	1.223738e+00	1.223722e+00	1.223751e+00	1.223768e+00	1.223806e+00	1.223829e+00	1.223846e+00	1.223907e+00	1.223874e+00	1.223972e+00	1.223862e+00	1.224005e+00	1.223864e+00	1.223873e+00	1.223858e+00	1.223816e+00	1.223786e+00	1.223729e+00	1.223717e+00	1.223623e+00	1.223703e+00	1.222945e+00	1.224744e+00	1.220018e+00	1.223851e+00	1.223382e+00	1.223446e+00	1.223430e+00	1.223393e+00	1.223372e+00	1.223372e+00	1.223374e+00	1.223391e+00	1.223417e+00	1.223350e+00	1.223544e+00	1.223358e+00	1.223454e+00	1.223391e+00	1.223336e+00	1.223293e+00	1.223263e+00	1.223177e+00	1.223180e+00	1.223179e+00	1.223306e+00	1.222835e+00	1.223406e+00	1.223126e+00	1.222935e+00	1.222844e+00	1.222950e+00	1.223085e+00	1.223111e+00	1.223250e+00	1.223291e+00	1.223374e+00	1.223422e+00	1.223497e+00	1.223547e+00	1.223580e+00	1.223583e+00	1.223014e+00	1.223754e+00	1.223758e+00	1.223125e+00	1.223417e+00	1.223698e+00	1.223824e+00	1.223236e+00	1.223629e+00	1.223315e+00	1.223518e+00	1.223308e+00	1.223392e+00	1.223824e+00	1.223889e+00	1.223345e+00	1.223525e+00	1.223512e+00	1.223467e+00	1.223884e+00	1.223051e+00	1.223718e+00	1.223602e+00	1.223122e+00	1.223931e+00	1.223432e+00	1.223231e+00	1.223709e+00	1.223007e+00	1.222921e+00	1.223114e+00	1.223120e+00	1.223066e+00	1.223042e+00	1.223034e+00	1.223286e+00	1.222873e+00	1.222921e+00	1.223003e+00	1.223120e+00	1.222886e+00	1.223164e+00	1.223150e+00	1.223253e+00	1.223179e+00	1.223233e+00	1.223442e+00	1.223326e+00	1.223003e+00	1.223037e+00	1.223256e+00	1.222886e+00	1.223058e+00	1.223409e+00	1.223501e+00	1.223507e+00	1.223445e+00	1.223582e+00	1.223648e+00	1.223547e+00	1.223624e+00	1.223626e+00	1.223171e+00	1.223128e+00	1.223220e+00	1.223513e+00	1.223252e+00	1.223199e+00	1.221495e+00	1.221813e+00	1.222847e+00	1.222874e+00	1.223418e+00	1.223691e+00	1.223682e+00	1.223728e+00	1.223739e+00	1.223748e+00	1.223647e+00	1.223160e+00	1.222991e+00	1.223269e+00	1.223512e+00	1.223197e+00	1.221783e+00	1.223185e+00	1.222795e+00	1.222852e+00	1.222637e+00	1.223100e+00	1.223189e+00	1.223103e+00	1.223157e+00	1.223692e+00	1.223731e+00	1.223767e+00	1.223739e+00	1.223672e+00	1.222741e+00	1.223476e+00	1.223466e+00	1.223386e+00	1.223321e+00	1.223083e+00	1.223281e+00	1.223342e+00	1.223286e+00	1.223644e+00	1.223163e+00	1.223343e+00	1.223084e+00	1.223717e+00	1.223803e+00	1.223828e+00	1.223894e+00	1.223628e+00	1.223570e+00	1.223684e+00	1.223365e+00	1.223440e+00	1.223231e+00	1.223794e+00	1.223355e+00	1.222968e+00	1.223134e+00	1.222914e+00	1.222886e+00	1.223024e+00	1.222892e+00	1.222885e+00	1.223867e+00	1.223525e+00	1.223533e+00	1.223516e+00	1.223575e+00	1.223562e+00	1.223615e+00	1.223819e+00	1.223137e+00	1.223477e+00	1.223438e+00	1.223349e+00	1.223378e+00	1.223394e+00	1.223618e+00	1.222995e+00	1.223416e+00	1.223765e+00	1.223332e+00	1.223349e+00	1.223390e+00	1.223621e+00	1.223098e+00	1.223105e+00	1.222874e+00	1.223292e+00	1.223309e+00	1.223637e+00	1.223412e+00	1.223300e+00	1.222988e+00	1.223591e+00	1.223904e+00	1.223413e+00	1.223859e+00	1.223890e+00	1.223173e+00	1.222874e+00	1.223556e+00	1.223594e+00	1.222687e+00	1.223666e+00	1.222963e+00	1.223792e+00	1.223815e+00	1.223691e+00	1.223786e+00	1.223716e+00	1.223272e+00	1.223460e+00	1.223231e+00	1.223406e+00	1.223655e+00	1.223466e+00	1.223762e+00	1.223918e+00	1.223314e+00	1.223209e+00	1.223824e+00	1.222968e+00	1.223463e+00	1.223945e+00	1.223558e+00	1.223073e+00	1.223168e+00	1.223440e+00	1.223759e+00	1.223709e+00	1.223009e+00	1.223383e+00	1.223087e+00	1.223219e+00	1.223631e+00	1.223246e+00	1.223716e+00	1.223185e+00	1.223616e+00	1.223956e+00	1.223204e+00	1.223351e+00	1.223792e+00	1.223755e+00	1.223427e+00	1.223682e+00	1.223462e+00	1.223742e+00	1.223398e+00	1.223036e+00	1.223408e+00	1.223870e+00	1.223404e+00	1.223343e+00	1.223764e+00	1.223320e+00	1.223921e+00	1.223749e+00	1.223557e+00	1.222907e+00	1.223010e+00	1.223267e+00	1.225235e+00	1.223249e+00	1.223870e+00	1.223347e+00	1.223404e+00	1.223383e+00	1.223896e+00	1.223632e+00	1.223638e+00	1.223619e+00	1.223516e+00	1.222766e+00	1.223074e+00	1.223477e+00	1.222983e+00	1.223244e+00	1.223305e+00	1.223752e+00	1.223303e+00	1.223248e+00	1.223864e+00	1.223559e+00	1.223514e+00	1.223091e+00	1.223558e+00	1.222961e+00	1.223168e+00	1.223844e+00	1.223289e+00	1.223364e+00	1.223341e+00	1.223362e+00	1.223727e+00	1.223243e+00	1.223275e+00	1.223624e+00	1.223051e+00	1.223725e+00	1.223265e+00	1.222408e+00	1.223747e+00	1.223694e+00	1.223215e+00	1.223388e+00	1.222519e+00	1.223597e+00	1.223144e+00	1.223594e+00	1.223788e+00	1.225299e+00	1.223867e+00	1.223720e+00	1.223332e+00	1.223223e+00	1.223573e+00	1.223427e+00	1.223746e+00	1.223042e+00	1.223890e+00	1.223114e+00	1.223013e+00	1.223578e+00	1.223098e+00	1.223572e+00	1.223306e+00	1.223783e+00	1.223726e+00	1.223690e+00	1.223330e+00	1.223329e+00	1.223924e+00	1.223528e+00	1.223500e+00	1.223140e+00	1.223498e+00	1.222792e+00	1.223397e+00	1.223157e+00	1.223350e+00	1.223472e+00	1.223734e+00	1.222971e+00	1.223443e+00	1.222766e+00	1.223297e+00	1.222956e+00	1.223609e+00	1.222889e+00	
SCALARS X-Momentum float 1
LOOKUP_TABLE default
8.600594e+00	3.781191e-01	6.572832e+00	3.382797e-01	-5.604638e-01	-4.367068e+00	1.625201e+01	1.018618e+01	1.005498e+01	9.852742e+00	9.603718e+00	9.315770e+00	9.043297e+00	8.779601e+00	8.448955e+00	8.148689e+00	7.697815e+00	7.117464e+00	6.458997e+00	5.705530e+00	4.854873e+00	4.024889e+00	3.062742e+00	2.111255e+00	1.168722e+00	5.650416e-02	3.652690e-01	8.151084e-01	1.337500e+00	1.919690e+00	2.508765e+00	3.080698e+00	3.646804e+00	4.186626e+00	4.575042e+00	4.591857e+00	4.329084e+00	4.211077e+00	1.269949e+00	1.406086e+00	1.774292e+00	1.953250e+00	2.018916e+00	1.980140e+00	1.804017e+00	1.515376e+00	1.176454e+00	7.993455e-01	4.671714e-01	2.188722e-01	-1.817799e+00	-3.312295e+00	-4.593756e+00	-5.754389e+00	-6.702972e+00	-7.412983e+00	-7.906030e+00	-8.137533e+00	-7.676363e+00	-6.820860e+00	-5.931200e+00	-6.269996e-01	4.730299e+00	1.000765e+01	1.387111e+01	1.583424e+01	1.637753e+01	1.556696e+01	1.467344e+01	1.368493e+01	1.285058e+01	1.215094e+01	1.154526e+01	1.102129e+01	1.059673e+01	1.031602e+01	4.912577e+00	2.149049e+00	7.590315e+00	-5.479801e+00	1.938234e+00	4.001237e+00	5.540952e+00	-5.242674e+00	9.538670e+00	1.220919e+01	1.117331e+01	1.370892e+01	9.027951e-01	2.352320e+00	3.650132e+00	-3.885014e+00	2.217402e+00	4.878224e+00	-5.552665e-02	1.401876e+00	1.154684e+00	8.787959e+00	1.030772e+01	1.542522e+01	1.649025e+00	-1.783868e+00	-2.915100e+00	8.467864e+00	7.220471e+00	1.058741e+01	1.370851e+01	1.252347e+01	8.667085e+00	1.128050e+01	1.395780e+01	1.301004e+01	9.977968e+00	1.174496e+01	8.458473e+00	1.006130e+01	1.317745e+01	1.224081e+01	1.401417e+01	1.363954e+01	1.407387e+01	1.364634e+01	1.336533e+01	1.261363e+01	6.694693e+00	1.470421e+01	1.386435e+01	5.093667e+00	4.165288e+00	1.234958e+01	1.150585e+01	1.140384e+01	1.062036e+01	1.017684e+01	9.889569e+00	1.026082e+01	9.270579e+00	9.272129e+00	4.983235e+00	3.121586e+00	2.337495e+00	1.150631e+01	1.937243e+00	1.322810e+01	5.568358e+00	2.534141e+00	6.438418e+00	4.608780e+00	1.220399e+01	8.619440e+00	8.824559e+00	8.388653e+00	7.770354e+00	7.378832e+00	9.337795e+00	8.151536e-01	1.171020e+00	7.969073e-01	1.065234e+01	1.511420e+01	9.238602e+00	1.005577e+01	2.346960e+00	4.125054e+00	7.180351e+00	2.823726e+00	-7.299441e-01	-2.327528e-01	1.105305e+01	7.822984e+00	6.801224e+00	6.464604e+00	5.706120e+00	8.996062e+00	6.332736e+00	1.148958e+01	1.207259e+01	1.884079e+00	8.471574e-01	1.194511e+01	-4.696454e-01	-3.170019e-01	1.497115e+01	9.412528e+00	1.507967e+01	-1.752171e+00	-2.900748e+00	8.529046e+00	5.600585e+00	6.233923e+00	4.788507e+00	7.139301e+00	8.321203e+00	9.132152e+00	1.870666e+00	2.545988e+00	-1.941395e+00	4.714066e+00	1.444093e+01	-1.472353e+00	1.028444e+00	-7.658588e-01	2.431095e+00	7.891526e-01	9.690756e+00	8.861133e+00	4.813240e+00	9.458776e+00	1.089507e+01	1.100441e+01	1.050211e+01	1.062999e+01	1.013921e+01	3.771833e+00	1.154524e+01	1.239680e+01	1.024207e+01	1.294098e+01	1.264692e+01	1.358876e+01	9.777434e+00	3.656018e+00	1.190635e+01	6.131899e+00	-1.418950e+00	-2.719246e-02	-9.293822e-01	9.731501e+00	8.466002e+00	1.532129e+01	7.757681e+00	1.505402e+01	1.429856e+01	9.764171e+00	9.522297e-01	1.027522e+00	-5.668779e+00	6.192653e+00	3.864843e+00	1.278871e+01	3.969263e+00	3.001243e+00	2.689467e+00	3.650160e+00	1.035977e+01	1.001723e+01	1.158302e+01	9.090922e+00	9.293114e+00	7.024195e+00	7.551840e+00	8.021402e+00	6.986725e+00	7.651826e+00	1.515017e+01	1.251302e+01	2.770489e+00	1.054767e+01	6.756374e+00	2.633027e+00	5.305659e+00	4.665561e+00	-4.690588e+00	-5.463996e+00	6.346056e+00	-4.616036e+00	-2.893960e+00	2.622460e+00	1.068108e+01	1.274608e+01	1.598735e+01	1.732390e+00	8.093515e+00	8.489984e+00	4.280016e+00	2.202929e+00	2.471224e+00	1.472306e+01	9.780506e+00	1.453600e+01	4.572858e+00	1.586931e+00	1.003499e+01	5.160141e+00	-3.533968e+00	1.395567e+01	6.215681e+00	4.474485e+00	2.177593e+00	8.847242e+00	2.110332e+00	3.554655e+00	1.653248e+00	2.723775e+00	1.306935e+00	1.815556e+00	4.564498e-01	1.166579e-01	2.953410e+00	-1.282870e+00	2.155940e+00	6.950351e+00	9.198958e+00	1.164072e-01	6.079845e+00	4.730360e+00	8.145788e+00	-5.885613e-01	5.503391e+00	2.481498e+00	7.628456e+00	-5.012188e-01	1.030225e+00	9.481262e+00	9.712985e+00	8.689276e+00	1.108798e+01	1.069392e+01	6.357005e+00	1.148184e+01	2.970796e+00	1.444992e+01	1.336408e+01	8.237045e+00	1.556248e+01	1.458787e+01	3.202018e+00	1.079256e+01	1.173201e+01	1.463985e+01	1.028602e+01	3.968842e+00	1.403412e+01	3.227100e+00	-2.939664e+00	1.443075e+01	-2.272511e+00	1.303185e+01	8.724958e+00	-3.376427e+00	1.296339e+01	9.789095e+00	3.005489e+00	8.050484e+00	-2.656539e+00	-2.973996e+00	8.635259e+00	5.859309e+00	6.423302e+00	1.153738e+01	8.101165e+00	9.448291e+00	1.094896e+01	1.009502e+01	4.123311e+00	5.647203e+00	2.746486e+00	8.368856e+00	-3.364619e-01	1.222600e+01	1.015850e+01	1.220862e+01	5.346588e+00	1.599382e+01	2.231916e+00	-3.408850e+00	-1.841588e+00	1.016251e+01	-1.993953e+00	1.076236e+01	1.197172e+01	6.710121e+00	7.802358e+00	9.370289e+00	6.913662e-01	1.561254e+00	7.675638e-01	-7.913056e-01	1.329670e+01	1.433267e+01	5.485273e+00	1.261332e+01	8.958975e+00	1.518148e+01	1.972534e+00	1.146528e+01	7.212881e+00	7.294972e+00	2.457912e+00	5.435662e+00	1.343393e+01	8.750966e+00	4.654708e+00	7.336520e+00	
SCALARS Y-Momentum float 1
LOOKUP_TABLE default
-1.910860e-02	3.727594e-01	5.397955e+00	-7.081273e-01	5.322558e-01	2.272151e-01	6.690433e-02	-1.245323e-02	1.480126e-02	4.151461e-02	5.864361e-02	7.744695e-02	6.602837e-02	1.345843e-02	-3.463502e-03	8.646296e-06	6.666021e-03	5.272302e-03	1.098340e-02	1.289282e-02	-3.485604e-03	1.951446e-02	6.583309e-03	7.443793e-03	-2.991828e-02	1.206172e+00	2.170125e+00	3.104549e+00	4.066946e+00	4.968861e+00	5.777231e+00	6.500950e+00	7.172594e+00	7.852579e+00	8.319503e+00	8.370221e+00	8.421222e+00	-2.196782e+00	1.264429e+00	2.065586e+00	2.802739e+00	3.351889e+00	3.689360e+00	3.860478e+00	3.844280e+00	3.646247e+00	3.309305e+00	2.831056e+00	2.240816e+00	1.450976e+00	-9.232313e-04	3.367632e-02	2.644926e-02	9.945167e-03	4.484809e-03	9.735694e-03	1.230811e-02	2.447888e-03	-4.447432e-02	-6.804305e-02	-1.002619e-01	-4.927626e-01	-4.456314e-01	2.930048e-02	6.869052e-01	8.773153e-01	5.100903e-01	1.145305e-02	1.690876e-03	-5.120186e-03	-3.697712e-02	-2.454360e-02	-4.065851e-03	-5.507056e-03	2.042535e-03	-3.011195e-03	8.666534e+00	2.498273e+00	4.926710e-01	-2.134749e-01	3.525613e+00	6.297173e+00	8.497809e-01	4.757857e-01	3.830160e-01	3.855652e-01	4.463718e-01	8.666791e-01	3.141997e+00	4.111938e+00	9.385490e-01	6.781703e-01	3.156313e+00	7.504961e+00	2.238567e+00	2.440776e+00	-7.870566e-01	3.261966e-01	2.517736e-01	8.458558e-01	8.106385e-01	8.556848e-01	-5.968739e-01	2.487110e-01	-4.006228e-01	1.557133e-01	9.614337e-01	9.553938e-01	1.867034e-01	9.998100e-01	1.770323e+00	1.859796e+00	1.203613e+00	2.007664e+00	1.545511e+00	2.226541e+00	2.934125e+00	3.246659e+00	3.875787e+00	4.370433e+00	4.423502e+00	5.084969e+00	4.316904e+00	4.940405e+00	1.822063e+00	2.454930e+00	3.746645e+00	1.503820e+00	2.075874e+00	3.640516e+00	3.737600e+00	5.067812e+00	3.552346e+00	4.337203e+00	3.121217e+00	2.670235e+00	3.594023e+00	2.558685e+00	2.303455e+00	2.766530e+00	2.310973e+00	2.749021e+00	2.877157e+00	5.011980e+00	3.780409e-01	6.108450e-01	1.556644e+00	1.423257e+00	2.619558e+00	2.731368e+00	2.012379e+00	3.816021e+00	2.561591e+00	3.520245e+00	1.877744e+00	2.193490e+00	1.706181e+00	2.539098e+00	6.151651e+00	2.085893e+00	5.172544e+00	4.514947e+00	2.155073e+00	2.289645e+00	2.340772e+00	3.096891e+00	1.445271e+00	9.050471e-01	7.636846e+00	4.909411e+00	4.512474e+00	3.257893e+00	4.082747e+00	1.461058e+00	2.362701e+00	1.951238e+00	1.745498e+00	3.166858e+00	2.734550e+00	6.654136e+00	2.100254e+00	2.295037e+00	2.414933e+00	1.351731e+00	1.919640e+00	1.616237e+00	6.188668e-01	1.464234e+00	2.822338e+00	2.318919e+00	3.232369e+00	6.315656e+00	6.560945e+00	9.442098e-01	3.220825e+00	3.522053e+00	1.448671e+00	4.348653e+00	3.411346e+00	2.919162e-01	3.617159e-01	-7.563713e-02	-1.158653e-01	-6.070058e-01	3.008166e+00	2.580294e+00	2.151182e+00	4.910063e+00	2.021636e+00	1.437254e+00	1.471316e+00	1.026892e+00	1.022727e+00	3.509306e+00	8.146769e+00	7.207932e+00	9.063665e+00	2.446369e+00	1.385879e+00	2.114263e+00	1.677423e+00	2.908840e+00	1.005638e+00	5.484169e+00	1.829983e+00	2.564962e+00	2.067858e+00	9.027549e+00	9.564281e+00	1.744571e+00	5.443380e-01	1.098154e+00	1.854224e+00	1.188279e+00	2.937321e+00	3.126617e+00	9.767733e-02	6.937365e+00	4.643471e+00	6.631267e-01	2.445901e+00	2.609662e+00	3.418609e+00	-8.052964e-01	6.247861e-01	5.965039e-01	3.610499e+00	4.555744e-01	2.354507e+00	6.089054e-01	1.073211e+00	8.351710e-01	1.377798e+00	1.700709e+00	1.466373e+00	5.943687e+00	3.629781e+00	7.918408e+00	7.957892e+00	3.263455e+00	6.340125e+00	1.059187e+00	5.613146e-01	3.415596e-01	7.319193e-01	-3.987198e-01	8.265245e-01	9.200792e-01	3.331186e-01	5.859009e+00	1.043134e+00	3.267375e+00	3.851632e-01	6.485661e-01	4.740724e-01	3.297450e+00	3.108589e+00	3.018280e+00	3.554725e-01	8.051478e-01	5.487424e+00	1.951370e+00	2.647187e-01	8.269053e+00	8.871450e-01	2.998820e+00	1.504797e+00	6.893908e+00	2.780641e+00	6.884099e-01	3.390576e+00	5.606299e+00	3.521275e+00	1.130278e+00	3.393181e+00	3.305417e+00	2.768401e+00	2.654466e+00	4.852631e+00	1.656638e+00	1.842847e+00	2.567841e+00	8.218857e+00	-8.264532e-01	2.371241e+00	-4.270063e-01	3.083739e+00	1.839762e+00	1.792480e+00	3.191909e+00	9.967633e+00	1.599565e+00	1.532834e+00	9.701577e-01	7.434696e-01	5.170844e+00	9.296310e-01	4.114385e+00	1.034488e+00	1.289803e+00	1.791428e+00	2.564695e+00	1.365804e+00	1.941930e+00	1.445384e+00	1.435508e+00	4.055705e+00	2.699147e+00	4.488110e-01	1.599154e+00	2.002957e+00	2.771752e+00	2.681414e+00	1.765313e+00	1.164232e+00	3.565488e+00	1.396080e+00	3.365808e+00	1.036203e+00	1.013799e+00	6.319087e+00	2.290404e+00	3.420328e+00	1.327719e+00	-4.108100e-01	-4.600039e-01	1.106987e-01	8.311773e+00	9.436782e+00	7.511044e+00	2.456166e+00	6.533032e+00	3.005582e+00	1.443356e+00	1.668761e+00	9.860196e+00	3.376206e+00	1.028163e+00	2.295281e+00	4.352825e+00	1.055811e-01	6.383435e-01	5.071865e+00	5.004581e-01	2.716152e+00	1.852155e-02	-6.966433e-01	4.368376e-01	1.236057e+00	6.713450e-01	6.560731e+00	1.953859e+00	8.195931e+00	6.048696e-01	2.994772e+00	3.290331e+00	7.029680e-01	8.380175e-01	5.810788e+00	3.935484e+00	7.440076e+00	3.783078e+00	4.308109e+00	1.469566e+00	3.358147e+00	7.808875e-01	2.010266e+00	-4.118472e-01	3.366542e+00	4.557589e-02	3.156455e+00	7.441093e+00	6.166830e+00	2.054252e+00	
SCALARS Energy float 1
LOOKUP_TABLE default