/*--------------------------------*- C++ -*----------------------------------*\
  =========                 |
  \\      /  F ield         | OpenFOAM: The Open Source CFD Toolbox
   \\    /   O peration     | Website:  https://openfoam.org
    \\  /    A nd           | Version:  7
     \\/     M anipulation  |
\*---------------------------------------------------------------------------*/
FoamFile
{
    version     2.0;
    format      ascii;
    class       volScalarField;
    location    "4.9";
    object      p;
}
// * * * * * * * * * * * * * * * * * * * * * * * * * * * * * * * * * * * * * //

dimensions      [0 2 -2 0 0 0 0];

internalField   nonuniform List<scalar> 
2790
(
147.048
146.956
147.223
147.794
148.574
149.531
150.664
151.97
153.447
155.088
156.887
158.838
160.932
163.157
165.497
167.933
170.437
172.976
175.508
177.982
180.34
182.518
184.448
186.069
187.329
188.203
188.639
188.694
188.745
188.958
146.845
146.863
147.155
147.723
148.5
149.454
150.582
151.882
153.352
154.984
156.774
158.715
160.798
163.012
165.341
167.767
170.262
172.796
175.326
177.804
180.172
182.367
184.322
185.971
187.255
188.129
188.526
188.581
188.713
188.998
146.647
146.734
147.046
147.603
148.367
149.308
150.421
151.703
153.151
154.759
156.521
158.43
160.478
162.654
164.942
167.324
169.776
172.267
174.759
177.206
179.556
181.749
183.721
185.411
186.762
187.738
188.331
188.686
189.002
189.3
146.422
146.54
146.864
147.413
148.162
149.087
150.18
151.438
152.857
154.432
156.155
158.021
160.019
162.14
164.368
166.686
169.071
171.494
173.921
176.311
178.618
180.79
182.772
184.512
185.966
187.118
187.986
188.657
189.21
189.729
146.161
146.293
146.626
147.167
147.899
148.803
149.871
151.098
152.48
154.011
155.685
157.495
159.43
161.481
163.633
165.868
168.166
170.501
172.843
175.156
177.401
179.536
181.519
183.309
184.879
186.222
187.352
188.315
189.126
189.873
145.86
145.998
146.333
146.865
147.577
148.455
149.491
150.68
152.017
153.497
155.112
156.854
158.715
160.683
162.744
164.882
167.077
169.306
171.543
173.759
175.921
177.999
179.961
181.781
183.445
184.946
186.292
187.498
188.518
189.436
145.518
145.657
145.988
146.507
147.196
148.044
149.043
150.188
151.474
152.894
154.441
156.107
157.882
159.755
161.712
163.737
165.813
167.919
170.032
172.128
174.183
176.174
178.082
179.892
181.598
183.199
184.693
186.072
187.236
188.283
145.133
145.27
145.594
146.097
146.76
147.574
148.531
149.627
150.855
152.207
153.678
155.257
156.936
158.702
160.542
162.441
164.382
166.346
168.314
170.266
172.183
174.051
175.858
177.6
179.278
180.897
182.452
183.924
185.174
186.325
144.707
144.84
145.154
145.637
146.271
147.047
147.958
148.999
150.162
151.441
152.827
154.312
155.884
157.532
159.243
161.001
162.791
164.594
166.394
168.172
169.916
171.614
173.262
174.862
176.424
177.959
179.467
180.938
182.209
183.447
144.24
144.368
144.669
145.129
145.732
146.467
147.327
148.308
149.402
150.601
151.895
153.277
154.734
156.254
157.823
159.427
161.049
162.671
164.277
165.85
167.379
168.853
170.271
171.639
172.972
174.29
175.611
176.949
178.149
179.453
143.735
143.857
144.142
144.577
145.145
145.836
146.643
147.56
148.579
149.691
150.888
152.16
153.493
154.876
156.293
157.729
159.167
160.588
161.974
163.309
164.577
165.767
166.874
167.902
168.866
169.795
170.725
171.724
172.686
174.004
143.193
143.307
143.575
143.984
144.515
145.158
145.908
146.757
147.697
148.719
149.814
150.968
152.171
153.408
154.664
155.92
157.158
158.359
159.501
160.563
161.525
162.367
163.075
163.641
164.067
164.377
164.62
164.929
165.311
166.484
142.616
142.723
142.972
143.352
143.844
144.438
145.128
145.906
146.764
147.691
148.678
149.711
150.778
151.862
152.947
154.014
155.04
156.004
156.88
157.639
158.251
158.686
158.908
158.883
158.58
157.982
157.108
156.116
155.168
155.674
142.007
142.105
142.335
142.684
143.135
143.678
144.306
145.011
145.784
146.613
147.489
148.397
149.322
150.249
151.157
152.026
152.832
153.546
154.137
154.569
154.799
154.776
154.437
153.705
152.482
150.653
148.091
144.79
140.843
138.809
141.367
141.457
141.667
141.985
142.393
142.884
143.448
144.077
144.762
145.492
146.254
147.034
147.816
148.581
149.309
149.976
150.553
151.009
151.306
151.396
151.223
150.712
149.767
148.252
145.973
142.641
137.799
130.784
120.326
108.109
1.21511
1.19711
1.13359
1.04543
0.95324
0.866758
0.788878
0.719672
0.658295
0.603592
0.554314
0.509243
0.467284
0.427505
0.389148
0.351653
0.314684
0.278164
0.242295
0.207533
0.174479
0.143698
0.115533
0.0901097
0.067687
0.0482268
0.0318986
0.0187193
0.00883058
0.00103634
1.17023
1.14939
1.08939
1.00818
0.923448
0.843518
0.770966
0.705978
0.647886
0.595711
0.548367
0.50477
0.463924
0.424962
0.387169
0.350012
0.313175
0.276608
0.240567
0.205592
0.172376
0.141568
0.113594
0.0886056
0.0663611
0.0469422
0.0307624
0.0177574
0.00841449
0.00251314
1.12124
1.09595
1.03806
0.963415
0.886738
0.814242
0.747937
0.68801
0.63393
0.584893
0.539982
0.49826
0.458847
0.420956
0.383928
0.34726
0.31066
0.274112
0.237938
0.20278
0.169461
0.138718
0.110955
0.0861548
0.0640331
0.0445289
0.0278815
0.015327
0.00712751
0.00302527
1.07491
1.0452
0.988748
0.919791
0.850576
0.785052
0.724683
0.669624
0.619444
0.573496
0.531011
0.491185
0.453242
0.416478
0.380286
0.344201
0.307953
0.271548
0.235355
0.200101
0.166713
0.136022
0.108449
0.0838953
0.0620032
0.042624
0.0261509
0.0135965
0.00542156
0.00141047
1.04423
1.01023
0.955279
0.890533
0.826798
0.766131
0.709716
0.657836
0.610184
0.56623
0.525305
0.48669
0.449683
0.413634
0.377984
0.342297
0.306321
0.270082
0.233972
0.198754
0.165401
0.134781
0.10734
0.0829909
0.0613667
0.042256
0.0260024
0.0137395
0.00608111
0.00142816
1.04045
1.00121
0.947175
0.883814
0.821999
0.762734
0.707258
0.655903
0.608623
0.564941
0.524209
0.48573
0.448815
0.412835
0.377249
0.341644
0.305789
0.269722
0.233832
0.198848
0.165687
0.135172
0.107751
0.0833908
0.0618076
0.0428611
0.0269888
0.0146547
0.00620682
0.00134046
1.07318
1.02642
0.969625
0.902674
0.837138
0.774676
0.71653
0.662939
0.613831
0.568672
0.526749
0.487315
0.449653
0.413114
0.377154
0.341376
0.305573
0.269792
0.234366
0.199897
0.167158
0.136866
0.109474
0.0850476
0.0634679
0.044492
0.0281459
0.0151531
0.00603988
0.00120912
1.14781
1.08933
1.02101
0.942947
0.86753
0.797206
0.732897
0.674559
0.621833
0.573967
0.530014
0.48906
0.450275
0.412926
0.376428
0.3404
0.304697
0.269397
0.234752
0.201152
0.169157
0.139271
0.111933
0.0872793
0.0652679
0.0460447
0.0295276
0.0157087
0.0055812
0.00105099
1.2631
1.18077
1.0906
0.993201
0.902483
0.821539
0.749954
0.686064
0.628865
0.577698
0.531371
0.488758
0.448872
0.410827
0.373911
0.337749
0.302334
0.267863
0.234519
0.202302
0.171407
0.141906
0.114187
0.0890094
0.066829
0.0475818
0.0307921
0.0160886
0.0050487
0.0008933
1.39552
1.27787
1.16031
1.04277
0.934134
0.838646
0.757073
0.68799
0.62855
0.576084
0.52884
0.485563
0.44526
0.406965
0.369843
0.333557
0.298387
0.264848
0.233087
0.202757
0.173145
0.144187
0.116349
0.090627
0.0680386
0.0487116
0.0317126
0.0162516
0.00450521
0.000764941
1.49661
1.35328
1.20547
1.06476
0.942798
0.839864
0.753608
0.681557
0.620844
0.568188
0.521019
0.477891
0.437936
0.400104
0.363268
0.327062
0.292257
0.259989
0.230511
0.202777
0.175131
0.146788
0.118371
0.091639
0.0684141
0.0490904
0.0321784
0.0163129
0.00411847
0.00069735
1.57156
1.38164
1.20624
1.0474
0.916353
0.811438
0.726757
0.657618
0.600444
0.551141
0.506286
0.464631
0.426086
0.389715
0.353783
0.317698
0.283097
0.252391
0.226171
0.20227
0.177423
0.149803
0.120242
0.0917254
0.0674555
0.048323
0.032067
0.0163546
0.00398117
0.000721122
1.55197
1.29415
1.10323
0.951407
0.833793
0.74387
0.672184
0.613456
0.565831
0.524622
0.484735
0.445607
0.409389
0.375761
0.341587
0.305408
0.270287
0.241155
0.219531
0.201406
0.180633
0.153768
0.12209
0.0905409
0.0645705
0.0459774
0.0313275
0.016535
0.00418704
0.000861238
1.26222
0.95586
0.831407
0.750344
0.679599
0.63008
0.5883
0.548406
0.516655
0.48947
0.457372
0.420753
0.387313
0.358434
0.327671
0.290932
0.253536
0.225357
0.210112
0.200733
0.185932
0.159684
0.12424
0.0876578
0.0589358
0.0414685
0.0299726
0.0171532
0.00485972
0.00113803
0.533527
0.18151
0.298267
0.435168
0.450487
0.478913
0.488542
0.467204
0.451978
0.447718
0.428361
0.39226
0.36036
0.338796
0.314058
0.275208
0.231396
0.202098
0.195914
0.200394
0.194692
0.168772
0.127037
0.0824025
0.0493104
0.0339116
0.0280922
0.0187667
0.00617592
0.00156301
140.688
140.769
140.957
141.242
141.607
142.042
142.54
143.092
143.687
144.313
144.958
145.606
146.24
146.84
147.382
147.841
148.185
148.377
148.37
148.11
147.524
146.515
144.951
142.637
139.274
134.368
126.998
115.248
93.0916
33.3164
139.961
140.032
140.198
140.448
140.767
141.145
141.574
142.045
142.547
143.067
143.591
144.103
144.585
145.015
145.368
145.615
145.721
145.645
145.334
144.724
143.731
142.241
140.095
137.062
132.784
126.677
117.708
104.144
84.6192
56.1615
139.191
139.253
139.395
139.609
139.881
140.2
140.558
140.946
141.353
141.764
142.166
142.54
142.868
143.127
143.29
143.325
143.196
142.856
142.25
141.308
139.937
138.017
135.384
131.808
126.963
120.394
111.511
99.6743
85.4352
68.8056
138.381
138.432
138.551
138.728
138.951
139.21
139.496
139.8
140.11
140.412
140.69
140.926
141.101
141.19
141.165
140.994
140.636
140.045
139.163
137.917
136.216
133.943
130.945
127.026
121.939
115.391
107.086
96.69
84.1412
69.0004
137.531
137.572
137.666
137.806
137.98
138.178
138.392
138.611
138.824
139.016
139.171
139.271
139.295
139.218
139.012
138.642
138.07
137.246
136.115
134.605
132.63
130.085
126.84
122.739
117.601
111.227
103.417
93.9278
82.5914
69.6152
136.644
136.675
136.744
136.846
136.97
137.108
137.249
137.384
137.501
137.584
137.619
137.586
137.463
137.227
136.848
136.292
135.521
134.489
133.14
131.409
129.22
126.482
123.089
118.922
113.851
107.742
100.472
91.9405
82.1395
71.4812
135.723
135.743
135.788
135.852
135.927
136.004
136.073
136.125
136.147
136.125
136.042
135.88
135.618
135.231
134.69
133.964
133.015
131.799
130.267
128.361
126.014
123.152
119.694
115.552
110.638
104.875
98.2081
90.6254
82.1706
73.1796
134.771
134.781
134.801
134.828
134.854
134.871
134.87
134.84
134.77
134.646
134.45
134.166
133.772
133.244
132.556
131.676
130.571
129.2
127.52
125.48
123.027
120.102
116.644
112.594
107.899
102.519
96.4388
89.6801
82.2924
74.5478
133.791
133.791
133.787
133.777
133.755
133.714
133.644
133.536
133.378
133.155
132.853
132.454
131.937
131.281
130.459
129.445
128.206
126.708
124.913
122.78
120.265
117.326
113.919
110.006
105.559
100.562
95.0221
88.973
82.4685
75.736
132.788
132.778
132.751
132.705
132.637
132.539
132.403
132.22
131.977
131.662
131.26
130.754
130.125
129.353
128.415
127.285
125.935
124.337
122.458
120.265
117.727
114.812
111.491
107.742
103.554
98.9259
93.8767
88.4455
82.6854
76.7811
131.766
131.746
131.696
131.617
131.504
131.352
131.153
130.898
130.576
130.175
129.68
129.077
128.348
127.474
126.434
125.207
123.768
122.094
120.159
117.937
115.405
112.542
109.33
105.76
101.83
97.549
92.9414
88.0462
82.9114
77.6854
130.731
130.701
130.63
130.517
130.362
130.159
129.901
129.579
129.183
128.702
128.124
127.433
126.614
125.651
124.526
123.22
121.713
119.985
118.017
115.79
113.288
110.497
107.41
104.023
100.341
96.3811
92.1666
87.7343
83.1262
78.4613
129.686
129.647
129.556
129.412
129.217
128.966
128.652
128.269
127.805
127.252
126.598
125.829
124.933
123.895
122.7
121.331
119.773
118.012
116.031
113.818
111.363
108.658
105.701
102.496
99.05
95.3817
91.5152
87.4827
83.3203
79.124
128.639
128.592
128.481
128.308
128.076
127.78
127.416
126.975
126.45
125.832
125.111
124.275
123.312
122.212
120.96
119.544
117.953
116.173
114.196
112.012
109.616
107.005
104.181
101.15
97.9235
94.5191
90.9594
87.2727
83.4894
79.6872
127.595
127.54
127.411
127.212
126.945
126.608
126.198
125.706
125.126
124.45
123.67
122.776
121.759
120.607
119.312
117.863
116.251
114.467
112.506
110.362
108.032
105.519
102.825
99.9602
96.9356
93.7681
90.4785
87.0911
83.6315
80.1629
126.56
126.499
126.354
126.129
125.831
125.458
125.005
124.467
123.839
123.113
122.282
121.34
120.277
119.086
117.758
116.287
114.667
112.89
110.954
108.857
106.6
104.184
101.616
98.9059
96.0651
93.1093
90.0571
86.9291
83.7469
80.5621
125.542
125.474
125.314
125.068
124.741
124.334
123.844
123.266
122.595
121.827
120.954
119.971
118.872
117.651
116.301
114.819
113.199
111.438
109.535
107.49
105.305
102.985
100.536
97.9689
95.2946
92.5274
89.6834
86.7806
83.8369
80.8947
124.547
124.473
124.3
124.034
123.682
123.246
122.723
122.11
121.403
120.598
119.69
118.675
117.548
116.305
114.942
113.456
111.844
110.105
108.239
106.248
104.136
101.908
99.571
97.1348
94.6103
92.0104
89.3492
86.6418
83.9036
81.1694
123.583
123.504
123.319
123.035
122.661
122.199
121.648
121.005
120.267
119.431
118.495
117.455
116.308
115.051
113.682
112.198
110.6
108.887
107.061
105.125
103.084
100.942
98.7086
96.3915
94.0012
91.5493
89.048
86.5105
83.9496
81.3942
122.656
122.573
122.377
122.078
121.685
121.201
120.625
119.956
119.193
118.333
117.375
116.316
115.155
113.89
112.519
111.044
109.463
107.78
105.995
104.113
102.139
100.078
97.939
95.7293
93.4586
91.1372
88.7757
86.3856
83.9777
81.5762
121.775
121.688
121.483
121.17
120.76
120.257
119.662
118.972
118.188
117.309
116.333
115.261
114.091
112.822
111.456
109.992
108.432
106.778
105.035
103.205
101.293
99.3077
97.254
95.1405
92.9758
90.7689
88.5293
86.2668
83.9909
81.7216
120.947
120.857
120.644
120.32
119.896
119.377
118.764
118.057
117.256
116.362
115.374
114.293
113.118
111.85
110.49
109.041
107.503
105.88
104.176
102.395
100.542
98.624
96.6473
94.6193
92.5478
90.4409
88.3071
86.1549
83.9925
81.8366
120.181
120.087
119.868
119.533
119.097
118.565
117.938
117.218
116.404
115.499
114.502
113.415
112.239
110.974
109.624
108.189
106.674
105.081
103.414
101.678
99.879
98.022
96.1136
94.1608
92.1707
90.1506
88.108
86.0504
83.9851
81.926
119.484
119.387
119.162
118.819
118.373
117.83
117.192
116.46
115.637
114.723
113.721
112.631
111.456
110.197
108.857
107.439
105.945
104.38
102.748
101.053
99.3015
97.4985
95.65
93.7626
91.8427
89.8972
87.9326
85.9557
83.9729
81.9959
118.865
118.766
118.535
118.184
117.729
117.177
116.53
115.79
114.96
114.04
113.034
111.944
110.771
109.519
108.19
106.787
105.314
103.775
102.174
100.516
98.8058
97.0495
95.2527
93.4212
91.5612
89.6787
87.7799
85.8707
83.9569
82.0483
118.333
118.231
117.994
117.637
117.174
116.615
115.962
115.215
114.38
113.457
112.449
111.359
110.191
108.945
107.627
106.238
104.784
103.267
101.694
100.067
98.393
96.6765
94.9232
93.1387
91.3285
89.4985
87.6541
85.8009
83.9443
82.0925
117.898
117.793
117.549
117.183
116.714
116.149
115.49
114.739
113.899
112.974
111.966
110.878
109.713
108.474
107.165
105.79
104.351
102.854
101.303
99.7032
98.0584
96.3744
94.6564
92.9097
91.1395
89.3513
87.5503
85.7414
83.9297
82.1219
117.572
117.461
117.208
116.836
116.362
115.792
115.129
114.374
113.532
112.605
111.598
110.511
109.35
108.118
106.817
105.452
104.026
102.545
101.013
99.4329
97.8114
96.1529
94.4625
92.7452
91.0062
89.2505
87.4831
85.7087
83.9322
82.1595
117.37
117.235
116.965
116.587
116.111
115.539
114.873
114.116
113.273
112.347
111.34
110.256
109.098
107.87
106.575
105.218
103.802
102.332
100.811
99.2462
97.6404
95.999
94.327
92.6293
90.9108
89.1764
87.4309
85.6787
83.9244
82.1728
117.352
117.153
116.855
116.47
115.991
115.416
114.747
113.989
113.145
112.218
111.212
110.129
108.974
107.75
106.46
105.108
103.699
102.236
100.725
99.1689
97.5734
95.9432
94.283
92.5976
90.892
89.1708
87.4387
85.7002
83.9595
82.2209
-50.5344
-30.3063
-11.0621
35.8125
28.4177
16.4845
51.324
39.2593
28.0801
52.737
42.3241
34.2935
57.0708
48.791
42.0426
61.4546
54.5522
48.6669
64.7232
58.8466
53.8017
67.3148
62.2933
57.9872
69.4992
65.1694
61.4627
71.3428
67.5659
64.3404
72.8927
69.5638
66.7279
74.1984
71.2369
68.7192
75.3003
72.6432
70.3875
76.2307
73.828
71.7904
77.0161
74.8279
72.9735
77.6783
75.6725
73.9731
78.2356
76.3857
74.8182
78.7032
76.9871
75.5325
79.0939
77.4932
76.1354
79.4189
77.9177
76.643
79.6876
78.2723
77.0691
79.9088
78.5674
77.4253
80.089
78.8109
77.7211
80.2362
79.0121
77.9665
80.3531
79.1743
78.1658
80.4514
79.3099
78.3315
80.5224
79.4107
78.457
80.5946
79.5057
78.5692
80.6283
79.5557
78.6332
80.6973
79.6387
78.7227
-2.53599
-2.40808
-0.94252
0.185868
0.223714
0.305856
0.368529
0.348537
0.356093
0.408211
0.412648
0.363258
0.322696
0.31142
0.300239
0.258483
0.202073
0.168374
0.176103
0.20356
0.211824
0.184742
0.132055
0.0742678
0.0338846
0.0218288
0.0259088
0.0225561
0.00853741
0.0021407
2.73672
-0.254451
1.23489
0.762905
-0.510241
-0.321933
0.266973
0.3216
0.325317
0.424703
0.413111
0.30936
0.250433
0.275865
0.307334
0.259593
0.172863
0.120846
0.143727
0.208328
0.238499
0.207779
0.137159
0.0589701
0.00732636
0.00145427
0.0234833
0.0308411
0.0128132
0.00283549
13.8341
5.44458
2.65038
0.270332
-0.110157
1.11328
1.31344
0.156555
-0.255742
0.0736167
0.429944
0.321306
0.22487
0.288123
0.34611
0.256187
0.101166
0.0096977
0.0663351
0.218941
0.29666
0.253441
0.15223
0.0424194
-0.027884
-0.0257442
0.0243285
0.0492201
0.0215663
0.00353015
23.5565
13.6904
7.83841
4.07449
2.29515
1.67017
0.554078
-0.130211
0.121142
1.29062
1.2859
0.219376
-0.191677
-0.0638549
0.284563
0.32073
0.0791287
-0.0683745
0.0606463
0.286613
0.39294
0.307199
0.155175
-0.00147742
-0.101652
-0.0878012
0.0118087
0.0800494
0.0385191
0.00368412
32.7093
22.9536
15.6415
10.348
6.70338
4.22456
2.37661
1.35232
1.04087
1.09401
0.622484
0.0574597
-0.103144
0.510594
1.04318
0.601206
-0.0609565
-0.458505
-0.410694
0.188882
0.527516
0.402843
0.18114
-0.0309685
-0.167778
-0.131901
0.0542737
0.15945
0.0785096
0.0026355
40.6735
31.752
23.8689
17.4397
12.5146
8.86792
6.19452
4.31055
3.04062
2.16069
1.40358
0.802594
0.496965
0.613038
0.611863
0.358129
-0.164297
-0.510601
-0.131134
0.804859
0.953349
0.462919
0.135907
-0.140597
-0.347254
-0.354352
-0.04652
0.234042
0.143997
-0.00260741
47.1714
39.3687
31.5959
24.7085
19.0848
14.6252
11.104
8.35401
6.26135
4.69267
3.46997
2.48951
1.79181
1.38973
1.07702
0.711463
0.215945
-0.0928362
0.103211
0.535203
0.682771
0.476261
0.178568
-0.13176
-0.367993
-0.298073
0.230589
0.510584
0.248428
-0.0145831
52.4637
45.7338
38.4781
31.6503
25.7692
20.8253
16.6874
13.2672
10.4972
8.28082
6.48546
5.02031
3.87663
3.03371
2.37479
1.76054
1.16465
0.762002
0.695747
0.827813
0.863726
0.648921
0.307355
-0.0211464
-0.233801
-0.181746
0.130922
0.330782
0.308834
-0.0616556
56.7807
50.9645
44.3812
37.909
32.0925
26.9822
22.5142
18.6531
15.3688
12.6049
10.2831
8.34026
6.74437
5.45802
4.39971
3.48029
2.68321
2.08389
1.74399
1.58496
1.40764
1.08655
0.689361
0.332406
0.10322
0.079821
0.231468
0.342717
0.256832
-0.298441
60.3035
55.2359
49.3335
43.3493
37.7962
32.7521
28.1879
24.0994
20.4876
17.3329
14.5969
12.2391
10.2264
8.52269
7.07463
5.82829
4.76319
3.90148
3.26075
2.78605
2.35457
1.88222
1.39337
0.960659
0.647205
0.493338
0.465289
0.412422
0.169791
-0.515476
63.1964
58.7366
53.4564
47.9882
42.7921
37.9512
33.4528
29.3081
25.5378
22.1468
19.1224
16.4434
14.0872
12.028
10.2324
8.66575
7.30717
6.15493
5.20511
4.4182
3.72045
3.05436
2.41954
1.85444
1.39872
1.07003
0.833118
0.578027
0.171347
-0.593938
65.5923
61.6282
56.8897
51.9104
47.0954
42.5233
38.187
34.1035
30.3024
26.8017
23.605
20.7061
18.0943
15.7552
13.6688
11.8134
10.1715
8.73336
7.48722
6.40426
5.43825
4.54893
3.72585
2.98506
2.3466
1.81363
1.35289
0.884912
0.312572
-0.524023
67.5907
64.0347
59.759
55.2194
50.7724
46.4885
42.3615
38.4084
34.6607
31.1429
27.8674
24.8382
22.0541
19.5095
17.1948
15.0972
13.2045
11.5063
9.9899
8.6341
7.40865
6.28524
5.25063
4.30736
3.46143
2.70758
2.01688
1.33265
0.58835
-0.33175
69.2666
66.0503
62.168
58.0146
53.906
49.904
46.0013
42.2125
38.5678
35.0935
31.8064
28.7164
25.8285
23.144
20.66
18.3708
16.2692
14.3469
12.5934
10.9936
9.52711
8.17383
6.92077
5.76331
4.69902
3.71847
2.79768
1.89667
0.971965
-0.0541536
70.6781
67.7468
64.1995
60.3821
56.5767
52.8379
49.1564
45.5435
42.0268
38.6319
35.3771
32.2755
29.3357
26.5634
23.9606
21.5264
19.2577
17.1495
15.1945
13.382
11.6983
10.1291
8.66274
7.2917
6.00927
4.80453
3.65801
2.5416
1.4274
0.268176
71.87
69.1797
65.9183
62.3923
58.8555
55.3563
51.8837
48.4456
45.0662
41.7694
38.5736
35.4928
32.5379
29.7169
27.035
24.4949
22.0966
19.8381
17.715
15.7204
13.8453
12.0792
10.4125
8.83697
7.34425
5.92344
4.55868
3.22974
1.9181
0.599292
72.8782
70.3923
67.3759
64.1024
60.8022
57.5182
54.238
50.9666
47.7246
44.5338
41.4116
38.372
35.4266
32.585
29.8543
27.2393
24.7425
22.3643
20.1028
17.9542
15.9126
13.9706
12.1204
10.3541
8.66346
7.03802
5.46459
3.92768
2.41355
0.9133
73.7311
71.4193
68.6133
65.5588
62.466
59.3736
56.2682
53.1519
50.0422
46.9584
43.9166
40.93
38.0105
35.1679
32.4106
29.7447
27.1744
24.7019
22.3275
20.0495
17.8643
15.7669
13.7512
11.8103
9.93615
8.11928
6.34814
4.60979
2.8921
1.19562
74.4522
72.289
69.6638
66.7991
63.8878
60.965
58.0165
55.0423
52.0568
49.077
46.1173
43.19
40.3063
37.4762
34.7084
32.0099
29.3859
26.8399
24.3738
21.9876
19.6794
17.446
15.2826
13.1834
11.141
9.14672
7.18991
5.25867
3.34068
1.44121
75.0609
73.0244
70.5548
67.8544
65.1014
62.3279
59.5193
56.6736
53.8026
50.9212
48.042
45.1761
42.334
39.5253
36.7586
34.0412
31.3791
28.7765
26.2365
23.7601
21.3471
18.9953
16.7012
14.4598
12.2646
10.1072
7.97752
5.8639
3.75295
1.65145
75.5731
73.6447
71.3088
68.7504
66.135
63.4923
60.8074
58.0767
55.3098
52.5196
49.717
46.912
44.1141
41.3321
38.5745
35.8485
33.1603
30.5148
27.9156
25.3647
22.8627
20.4086
17.9996
15.6316
13.2985
10.9925
8.70357
6.41984
4.1267
1.83059
76.0027
74.1663
71.9449
69.5088
67.0125
64.4836
61.9072
59.2783
56.6049
53.8977
51.1665
48.4199
45.6662
42.9138
40.1705
37.4432
34.7383
32.0608
29.4147
26.8026
24.2257
21.6837
19.1746
16.6947
14.2385
11.7983
9.36435
6.92422
4.46232
1.98369
76.3608
74.6023
72.4785
70.1472
67.7532
65.3226
62.8405
60.3009
57.7101
55.0775
52.4112
49.7189
47.008
44.2859
41.5598
38.8364
36.1217
33.4208
30.7379
28.0759
25.4365
22.8197
20.224
17.6463
15.0813
12.5216
9.95722
7.37552
4.76012
2.11423
76.6583
74.9652
72.9242
70.6818
68.3748
66.0283
63.6272
61.1648
58.6461
56.0791
53.4708
50.8279
48.1568
45.4641
42.7565
40.0401
37.3206
34.6032
31.8918
29.1895
26.4983
23.8186
21.1491
18.4869
15.8271
13.1623
10.4825
7.7748
5.02235
2.22605
76.9014
75.2627
73.2906
71.1228
68.889
66.6131
64.2805
61.8839
59.4269
56.9164
54.3587
51.7594
49.1241
46.4588
43.7694
41.0616
38.3408
35.6118
32.8786
30.1443
27.4108
24.6788
21.9472
19.2133
16.4722
13.7167
10.9367
8.11919
5.24701
2.31876
77.102
75.5074
73.592
71.4854
69.3118
67.0943
64.8184
62.4763
60.0708
57.608
55.0931
52.5312
49.9271
47.286
44.6135
41.9147
39.1947
36.458
33.7084
30.9489
28.1816
25.407
22.6244
19.8309
17.0218
14.1898
11.325
8.41408
5.43974
2.39754
77.2567
75.697
73.8264
71.7684
69.6426
67.4715
65.2408
62.9424
60.5784
58.154
55.6739
53.1425
50.5642
47.9436
45.2856
42.5951
39.8769
37.135
34.3733
31.5946
28.8009
25.9927
23.1694
20.328
17.464
14.5701
11.6361
8.64863
5.59066
2.45536
77.3879
75.8538
74.0173
71.9962
69.9065
67.7705
65.5741
63.3089
60.9765
58.5814
56.1281
53.6202
51.0618
48.4572
45.8108
43.1272
40.4108
37.6657
34.8952
32.1023
29.2888
26.4553
23.6009
20.723
17.8168
14.8749
11.8872
8.84001
5.7161
2.50483
77.4686
75.9507
74.1365
72.1404
70.0751
67.9625
65.7891
63.5462
61.2348
58.8595
56.4241
53.9322
51.3873
48.7936
46.1552
43.4765
40.7616
38.0144
35.2383
32.436
29.6094
26.7589
23.8837
20.9812
18.0463
15.0718
12.0471
8.95839
5.78834
2.52465
77.5574
76.0406
74.2386
72.2576
70.206
68.106
65.9447
63.7135
61.4132
59.0479
56.6216
54.1374
51.599
49.0102
46.3751
43.698
40.9828
38.2334
35.4532
32.6449
29.8101
26.9495
24.0623
21.1456
18.1945
15.2016
12.156
9.04304
5.84272
2.53115
)
;

boundaryField
{
    inlet
    {
        type            zeroGradient;
    }
    outlet
    {
        type            fixedValue;
        value           uniform 0;
    }
    flap
    {
        type            zeroGradient;
    }
    upperWall
    {
        type            zeroGradient;
    }
    lowerWall
    {
        type            zeroGradient;
    }
    frontAndBack
    {
        type            empty;
    }
}


// ************************************************************************* //
