/*--------------------------------*- C++ -*----------------------------------*\
  =========                 |
  \\      /  F ield         | OpenFOAM: The Open Source CFD Toolbox
   \\    /   O peration     | Website:  https://openfoam.org
    \\  /    A nd           | Version:  7
     \\/     M anipulation  |
\*---------------------------------------------------------------------------*/
FoamFile
{
    version     2.0;
    format      ascii;
    class       surfaceScalarField;
    location    "4.9";
    object      phi;
}
// * * * * * * * * * * * * * * * * * * * * * * * * * * * * * * * * * * * * * //

dimensions      [0 3 -1 0 0 0 0];

internalField   nonuniform List<scalar> 
5457
(
0.198418
0.00158237
0.19648
0.00193734
0.194192
0.00228805
0.191509
0.00268353
0.188428
0.00308114
0.184951
0.00347669
0.181072
0.00387849
0.176778
0.00429392
0.17205
0.00472812
0.166865
0.00518511
0.161197
0.00566838
0.155016
0.00618089
0.148291
0.00672482
0.14099
0.00730118
0.133081
0.00790933
0.124534
0.00854627
0.115329
0.00920572
0.105452
0.00987701
0.0949077
0.0105439
0.0837243
0.0111834
0.0719598
0.0117645
0.0597116
0.0122483
0.0471229
0.0125887
0.0343826
0.0127402
0.0216875
0.0126951
0.00903726
0.0126502
-0.00291645
0.0119537
-0.00847231
0.00555586
-0.0080431
-0.000429208
-0.0080431
0.199928
0.0016542
0.199176
0.00268976
0.197965
0.00349895
0.196332
0.00431667
0.194272
0.00514113
0.191782
0.0059667
0.188855
0.00680539
0.185478
0.0076707
0.181633
0.00857293
0.177298
0.0095204
0.172446
0.0105204
0.167048
0.0115791
0.161071
0.0127014
0.154482
0.01389
0.147247
0.0151442
0.139334
0.0164592
0.130717
0.0178235
0.121377
0.019217
0.111312
0.0206086
0.100542
0.0219531
0.0891179
0.0231889
0.0771303
0.0242358
0.0647244
0.0249947
0.0521168
0.0253478
0.0396564
0.0251556
0.0281061
0.0242005
0.0185955
0.0214644
0.00879759
0.0153538
0.00118369
0.00718469
-0.00685941
0.199781
0.00187363
0.199087
0.00338358
0.197946
0.00463985
0.196409
0.00585324
0.194483
0.00706722
0.192164
0.00828569
0.189447
0.00952276
0.186321
0.0107961
0.182774
0.0121207
0.178785
0.0135092
0.174333
0.0149724
0.169392
0.01652
0.163933
0.0181599
0.157926
0.019897
0.151338
0.0217323
0.144137
0.0236608
0.136291
0.0256688
0.127778
0.0277308
0.118581
0.0298054
0.108703
0.0318309
0.0981713
0.0337207
0.0870491
0.0353581
0.0754523
0.0365914
0.0635751
0.037225
0.0517332
0.0369975
0.0403978
0.0355359
0.0297394
0.0321227
0.0191663
0.0259268
0.00959781
0.0167532
0.0027384
0.199703
0.00217055
0.199008
0.00407887
0.197887
0.00576035
0.196376
0.00736412
0.194488
0.00895529
0.192222
0.0105516
0.189575
0.0121704
0.186539
0.013832
0.183105
0.0155551
0.179258
0.0173556
0.174983
0.0192473
0.170261
0.0212425
0.165069
0.0233514
0.159385
0.0255811
0.153183
0.0279339
0.146438
0.0304059
0.139124
0.032983
0.131217
0.0356379
0.122698
0.0383244
0.113557
0.0409717
0.1038
0.0434775
0.0934577
0.0457006
0.0825965
0.0474526
0.0713337
0.0484878
0.0598416
0.0484896
0.0483174
0.0470601
0.0368114
0.0436288
0.0251881
0.0375501
0.0133357
0.0286056
0.0160741
0.199667
0.00250313
0.198964
0.00478212
0.197863
0.00686164
0.196381
0.00884576
0.194533
0.010804
0.192318
0.0127662
0.189734
0.0147541
0.186776
0.0167905
0.183434
0.0188967
0.179698
0.0210912
0.175556
0.0233901
0.170991
0.0258075
0.165987
0.0283551
0.160527
0.0310412
0.154591
0.0338694
0.148161
0.0368363
0.141215
0.0399287
0.133734
0.0431193
0.125697
0.0463612
0.117088
0.049581
0.107894
0.0526709
0.0981154
0.0554796
0.0877654
0.0578026
0.0768794
0.0593739
0.0655093
0.0598597
0.0537084
0.0588609
0.0414543
0.055883
0.0285879
0.0504165
0.0148524
0.0423411
0.0309265
0.199653
0.00285032
0.198949
0.00548616
0.197871
0.00793956
0.196427
0.0102899
0.194627
0.012604
0.192473
0.0149197
0.189964
0.0172637
0.187093
0.0196613
0.183854
0.022136
0.180237
0.0247084
0.17623
0.0273966
0.171822
0.0302161
0.166997
0.0331798
0.161741
0.036297
0.156038
0.0395721
0.149872
0.0430028
0.143224
0.0465768
0.136074
0.0502686
0.128402
0.0540334
0.120183
0.0578006
0.111388
0.0614653
0.10199
0.0648784
0.0919553
0.0678368
0.0812544
0.0700748
0.0698545
0.0712596
0.0577171
0.0709983
0.0447608
0.0688393
0.0308492
0.0643281
0.0158732
0.0573172
0.0467997
0.19965
0.00320026
0.198954
0.00618213
0.197904
0.00898916
0.196505
0.0116896
0.194763
0.0143462
0.192681
0.0170016
0.190257
0.0196873
0.187487
0.0224309
0.184366
0.0252579
0.180883
0.0281912
0.177029
0.0312504
0.172792
0.0344526
0.16816
0.0378118
0.163119
0.0413385
0.157653
0.0450383
0.151745
0.0489102
0.145378
0.0529443
0.138528
0.057118
0.13117
0.0613916
0.123269
0.0657013
0.114783
0.069952
0.105655
0.0740063
0.0958171
0.0776747
0.0851865
0.0807054
0.0736684
0.0827776
0.0611615
0.0835052
0.0475552
0.0824456
0.0327586
0.0791247
0.0167828
0.0732929
0.0635825
0.199655
0.0035456
0.198975
0.00686223
0.197959
0.0100049
0.19661
0.0130383
0.194934
0.0160222
0.192934
0.0190022
0.190608
0.0220133
0.187952
0.025086
0.184962
0.0282478
0.18163
0.0315232
0.177947
0.0349337
0.173902
0.0384979
0.169482
0.0422312
0.164675
0.0461458
0.159464
0.050249
0.153832
0.0545424
0.147757
0.0590194
0.141212
0.0636626
0.134164
0.0684398
0.126567
0.0732981
0.118362
0.0781571
0.109469
0.0828991
0.0997867
0.0873575
0.0891874
0.0913047
0.0775252
0.0944399
0.0646473
0.096383
0.0504173
0.0966756
0.034768
0.094774
0.0177897
0.0902712
0.0813722
0.199664
0.00388142
0.199006
0.00752002
0.19803
0.0109811
0.196739
0.0143297
0.195137
0.0176242
0.193227
0.0209119
0.191009
0.0242311
0.188481
0.0276146
0.185637
0.0310918
0.182471
0.0346889
0.178976
0.0384291
0.175141
0.0423327
0.170955
0.046417
0.166405
0.0506961
0.161474
0.05518
0.156143
0.0598737
0.150386
0.0647756
0.144174
0.0698755
0.137462
0.0751512
0.130196
0.0805645
0.122298
0.0860548
0.113667
0.0915302
0.104168
0.096856
0.0936339
0.101839
0.0818646
0.106209
0.0686492
0.109598
0.0538018
0.111523
0.0372364
0.111339
0.0190833
0.108424
0.100456
0.199677
0.00420419
0.199047
0.00815026
0.198116
0.0119124
0.196887
0.015558
0.195367
0.0191451
0.193556
0.0227225
0.191456
0.0263309
0.189065
0.0300053
0.18638
0.0337769
0.183396
0.0376736
0.180104
0.0417202
0.176498
0.0459387
0.172567
0.0503485
0.168297
0.0549661
0.163672
0.0598047
0.158672
0.0648738
0.153269
0.0701781
0.147429
0.0757162
0.141101
0.0814788
0.13422
0.0874451
0.126696
0.0935791
0.118405
0.0998212
0.109184
0.106078
0.0988194
0.112203
0.0870523
0.117976
0.0735896
0.123061
0.0581482
0.126964
0.0405516
0.128936
0.0209012
0.128075
0.121357
0.199693
0.00451126
0.199095
0.00874863
0.198213
0.012794
0.197053
0.0167176
0.19562
0.0205784
0.193916
0.0244263
0.191943
0.0283039
0.1897
0.0322482
0.187185
0.0362919
0.184394
0.0404645
0.181322
0.0447923
0.177962
0.0492992
0.174304
0.0540064
0.170337
0.0589333
0.166045
0.0640966
0.161408
0.069511
0.156398
0.0751883
0.150977
0.0811372
0.145093
0.0873626
0.138674
0.0938642
0.131619
0.100634
0.12379
0.10765
0.114996
0.114872
0.104982
0.122217
0.0934187
0.12954
0.0798977
0.136582
0.0639675
0.142895
0.0452344
0.147669
0.0236114
0.149698
0.144968
0.199711
0.00480057
0.199148
0.00931164
0.19832
0.0136216
0.197234
0.0178039
0.195894
0.0219186
0.194303
0.0260167
0.192465
0.0301424
0.190379
0.0343343
0.188044
0.0386266
0.185459
0.04305
0.182619
0.0476323
0.179519
0.0523988
0.176152
0.057373
0.172509
0.0625767
0.168575
0.0680305
0.164332
0.0737541
0.159754
0.0797667
0.154803
0.0860875
0.14943
0.0927363
0.14356
0.099734
0.137091
0.107103
0.129878
0.114863
0.121716
0.123034
0.112314
0.131618
0.101273
0.140582
0.0880449
0.14981
0.0719225
0.159017
0.0520858
0.167506
0.0278852
0.173898
0.172853
0.19973
0.0050705
0.199205
0.00983642
0.198435
0.0143916
0.197427
0.0188125
0.196185
0.0231606
0.194713
0.0274878
0.193016
0.0318397
0.191094
0.0362561
0.188948
0.0407724
0.186578
0.0454203
0.183982
0.0502288
0.181156
0.0552246
0.178096
0.0604329
0.174795
0.0658778
0.171242
0.0715834
0.167422
0.0775741
0.163313
0.0838758
0.158883
0.0905175
0.154086
0.097533
0.148857
0.104963
0.143101
0.112859
0.136679
0.121285
0.129392
0.130321
0.120942
0.140068
0.110883
0.15064
0.0985426
0.16215
0.0829005
0.174659
0.0624349
0.187971
0.0351242
0.201209
0.207978
0.199751
0.00531979
0.199266
0.0103207
0.198557
0.015101
0.19763
0.0197401
0.19649
0.0243004
0.195142
0.0288351
0.193592
0.0333906
0.19184
0.0380076
0.18989
0.0427224
0.187743
0.0475675
0.185399
0.0525728
0.182858
0.0577659
0.180117
0.0631733
0.177174
0.0688212
0.174021
0.0747361
0.170649
0.0809461
0.167042
0.0874828
0.163177
0.0943829
0.159018
0.101691
0.154516
0.109466
0.149594
0.11778
0.144142
0.126737
0.137992
0.136471
0.130885
0.147176
0.122406
0.15912
0.11186
0.172696
0.0980165
0.188502
0.0785358
0.207452
0.0486626
0.231082
0.25664
0.199772
0.00554749
0.19933
0.0107626
0.198684
0.0157475
0.19784
0.0205836
0.196806
0.0253348
0.195586
0.0300548
0.194186
0.0347907
0.19261
0.0395839
0.190861
0.0444712
0.188943
0.0494855
0.186859
0.0546573
0.18461
0.0600146
0.182198
0.0655849
0.179625
0.0713952
0.176887
0.0774737
0.173982
0.0838511
0.170902
0.0905622
0.167637
0.0976489
0.164165
0.105163
0.160459
0.113172
0.156474
0.121765
0.152145
0.131066
0.147371
0.141245
0.141994
0.152553
0.13575
0.165363
0.128169
0.180277
0.11831
0.198361
0.103921
0.221841
0.0776878
0.257315
0.334328
0.00367505
-0.00367505
0.00720435
-0.0035293
0.010131
-0.00292665
0.0124523
-0.00232131
0.0142662
-0.00181387
0.0156762
-0.00141005
0.0167723
-0.00109604
0.0176284
-0.000856104
0.0183042
-0.000675856
0.0188474
-0.000543146
0.0192956
-0.000448215
0.0196788
-0.000383242
0.0200205
-0.00034164
0.0203378
-0.000317336
0.020642
-0.000304179
0.0209376
-0.000295593
0.0212222
-0.000284667
0.0214871
-0.000264891
0.0217187
-0.000231613
0.0219025
-0.000183724
0.022027
-0.000124503
0.0220877
-6.07643e-05
0.0220904
-2.68487e-06
0.0220341
5.6332e-05
0.0219197
0.000114351
0.0217388
0.00018093
0.0214884
0.000250409
0.0211731
0.000315295
0.0208339
0.000339215
0.000252153
0.00338465
-0.0070597
0.0066492
-0.00679385
0.00940345
-0.0056809
0.011654
-0.00457187
0.0134937
-0.00365351
0.0150129
-0.00292929
0.0162867
-0.00236985
0.0173741
-0.00194348
0.0183207
-0.00162246
0.019162
-0.00138441
0.0199254
-0.00121171
0.0206327
-0.0010905
0.0213005
-0.00100944
0.0219417
-0.000958519
0.0225656
-0.000928059
0.023178
-0.000907996
0.023781
-0.000887672
0.0243727
-0.00085663
0.0249478
-0.000806725
0.0254991
-0.000734976
0.02602
-0.000645385
0.0265066
-0.000547367
0.0269532
-0.000449351
0.0273602
-0.000350654
0.0277228
-0.000248247
0.0280318
-0.000128103
0.028272
1.02739e-05
0.0284347
0.000152581
0.0285538
0.000220091
0.000185008
0.00283871
-0.00989841
0.00546953
-0.00942467
0.00763666
-0.00784802
0.00938727
-0.00632248
0.0108162
-0.00508244
0.0120006
-0.00411373
0.0130018
-0.003371
0.0138644
-0.00280608
0.0146216
-0.00237964
0.0152988
-0.00206163
0.0159159
-0.00182883
0.0164885
-0.00166314
0.017029
-0.00154989
0.0175469
-0.00147643
0.0180497
-0.00143084
0.0185426
-0.00140094
0.0190286
-0.00137362
0.0195074
-0.00133545
0.0199759
-0.00127521
0.0204287
-0.00118779
0.0208607
-0.00107737
0.0212697
-0.000956341
0.0216584
-0.000838114
0.0220349
-0.000727098
0.0224045
-0.000617837
0.0227724
-0.000496051
0.0231372
-0.000354504
0.0234868
-0.000197052
0.0237791
-7.21938e-05
-1.12695e-08
0.00223447
-0.0121329
0.00412086
-0.011311
0.00558164
-0.0093088
0.00672263
-0.00746348
0.0076375
-0.0059973
0.00838457
-0.0048608
0.00900927
-0.0039957
0.00954021
-0.00333702
0.00999708
-0.00283652
0.0103952
-0.00245976
0.0107467
-0.00218036
0.0110615
-0.0019779
0.0113475
-0.00183589
0.0116114
-0.00174033
0.011859
-0.00167849
0.0120956
-0.00163754
0.0123254
-0.00160341
0.0125507
-0.00156073
0.0127709
-0.00149538
0.0129821
-0.00139904
0.0131788
-0.00127404
0.0133565
-0.00113401
0.0135158
-0.000997441
0.0136637
-0.000874958
0.013809
-0.00076314
0.013958
-0.000645094
0.0141075
-0.000503954
0.0142495
-0.00033907
0.014345
-0.00016773
-5.20294e-05
0.00153094
-0.0136638
0.00259354
-0.0123737
0.00328536
-0.0100006
0.0037574
-0.00793552
0.0040951
-0.006335
0.00433378
-0.00509948
0.00450387
-0.00416579
0.00461915
-0.0034523
0.00468863
-0.00290599
0.00472034
-0.00249146
0.00472081
-0.00218083
0.00469552
-0.00195261
0.00464921
-0.00178958
0.0045864
-0.00167752
0.00451198
-0.00160407
0.00443154
-0.0015571
0.00435093
-0.0015228
0.00427505
-0.00148486
0.00420596
-0.00142628
0.00414119
-0.00133427
0.00407287
-0.00120572
0.00398912
-0.00105027
0.00387849
-0.000886812
0.00373546
-0.000731926
0.00356214
-0.000589816
0.00337083
-0.000453786
0.00317057
-0.000303695
0.00294018
-0.000108677
0.00270023
7.22188e-05
9.55469e-05
0.000720719
-0.0143845
0.000888856
-0.0125418
0.000773258
-0.00988501
0.000549958
-0.00771222
0.000249771
-0.00603481
-8.22736e-05
-0.00476744
-0.000438701
-0.00380937
-0.000811131
-0.00307987
-0.00119376
-0.00252337
-0.0015809
-0.00210432
-0.0019684
-0.00179333
-0.002353
-0.00156801
-0.00273173
-0.00141085
-0.00310164
-0.00130761
-0.00345936
-0.00124636
-0.00380068
-0.00121577
-0.00412113
-0.00120235
-0.00441744
-0.00118856
-0.00468906
-0.00115466
-0.00493874
-0.00108459
-0.00517208
-0.000972379
-0.00539714
-0.000825204
-0.0056227
-0.000661259
-0.00585666
-0.000497963
-0.00610299
-0.000343486
-0.00637174
-0.00018504
-0.00666873
-6.7053e-06
-0.00693282
0.000155416
-0.00710159
0.000240991
0.000225407
-0.000234508
-0.01415
-0.000978999
-0.0117973
-0.0019021
-0.00896191
-0.00287611
-0.00673822
-0.00385278
-0.00505814
-0.00479317
-0.00382705
-0.00568505
-0.00291749
-0.00652529
-0.00223964
-0.0073086
-0.00174005
-0.00803319
-0.00137974
-0.00870002
-0.00112651
-0.00931207
-0.00095595
-0.0098737
-0.00084922
-0.0103899
-0.000791449
-0.0108651
-0.000771152
-0.0113024
-0.000778476
-0.0117034
-0.000801304
-0.0120701
-0.000821882
-0.0124064
-0.000818295
-0.0127192
-0.00077187
-0.0130163
-0.000675254
-0.0133068
-0.000534732
-0.0135969
-0.000371147
-0.0138924
-0.000202454
-0.0141962
-3.96712e-05
-0.0144846
0.00010333
-0.0147203
0.000228997
-0.0149043
0.000339459
-0.0150572
0.000393849
0.000368187
-0.001248
-0.012902
-0.00299351
-0.0100518
-0.00475856
-0.00719686
-0.00647838
-0.0050184
-0.00809654
-0.00343997
-0.00957613
-0.00234745
-0.0108973
-0.00159629
-0.0120657
-0.00107127
-0.0130947
-0.000711029
-0.0140023
-0.000472197
-0.0148062
-0.000322574
-0.0155224
-0.000239745
-0.0161648
-0.000206868
-0.0167456
-0.000210557
-0.0172755
-0.000241324
-0.0177613
-0.000292629
-0.0182067
-0.000355934
-0.0186141
-0.000414483
-0.0189887
-0.00044367
-0.0193395
-0.000421089
-0.0196756
-0.000339142
-0.0200079
-0.000202432
-0.0203415
-3.75799e-05
-0.0206597
0.000115806
-0.0209357
0.000236293
-0.0211687
0.000336346
-0.021373
0.000433326
-0.0215506
0.00051701
-0.021707
0.000550264
0.000528477
-0.00243864
-0.0104634
-0.00529896
-0.00719146
-0.00797299
-0.00452283
-0.0104021
-0.00258932
-0.0125686
-0.00127345
-0.0144876
-0.000428485
-0.0161567
7.28387e-05
-0.0175626
0.000334681
-0.0187219
0.00044823
-0.0196853
0.000491169
-0.0205007
0.00049289
-0.021205
0.000464557
-0.0218257
0.000413775
-0.0223843
0.000348113
-0.0228981
0.000272387
-0.0233778
0.000187142
-0.023828
9.4233e-05
-0.0242486
6.07541e-06
-0.024638
-5.42747e-05
-0.025003
-5.60848e-05
-0.0253547
1.26026e-05
-0.0256941
0.000136977
-0.026006
0.000274282
-0.0262871
0.000396914
-0.0265422
0.000491418
-0.0267694
0.00056355
-0.0269657
0.000629622
-0.027135
0.000686301
-0.0272915
0.000706814
0.000696232
-0.00400599
-0.00645741
-0.00834712
-0.00285033
-0.0122662
-0.000603731
-0.0155091
0.0006536
-0.0180646
0.001282
-0.0200411
0.00154799
-0.0215851
0.00161688
-0.0228308
0.0015804
-0.0238756
0.00149305
-0.0247677
0.00138325
-0.0255421
0.00126724
-0.0262239
0.00114642
-0.0268312
0.00102102
-0.0273793
0.000896181
-0.0278818
0.000774903
-0.0283463
0.000651692
-0.0287724
0.000520318
-0.0291565
0.000390188
-0.0295028
0.000291987
-0.0298208
0.000261925
-0.0301215
0.000313348
-0.0304155
0.000430935
-0.030711
0.000569832
-0.0309985
0.000684329
-0.0312605
0.000753425
-0.0314859
0.000789025
-0.0316745
0.000818228
-0.0318368
0.000848588
-0.0319922
0.000862206
0.000863297
-0.00628741
-0.000169998
-0.0117584
0.00262064
-0.0160506
0.00368853
-0.0193318
0.00393474
-0.0218871
0.00383732
-0.0239113
0.00357217
-0.0255335
0.00323914
-0.026847
0.00289389
-0.0279223
0.00256834
-0.0288234
0.00228434
-0.0296
0.00204381
-0.0302823
0.00182873
-0.0308869
0.00162567
-0.031429
0.00143829
-0.0319252
0.00127108
-0.032385
0.00111148
-0.0328044
0.00093969
-0.033173
0.000758845
-0.0334902
0.000609168
-0.0337732
0.000544882
-0.0340504
0.000590611
-0.034341
0.000721479
-0.0346453
0.000874147
-0.0349452
0.000984296
-0.0352153
0.00102344
-0.0354389
0.00101262
-0.0356186
0.000997957
-0.0357727
0.00100273
-0.0359244
0.00101385
0.00102692
-0.00786099
0.007691
-0.0141633
0.00892291
-0.0189465
0.00847177
-0.0225876
0.00757583
-0.0253431
0.0065928
-0.0274382
0.00566726
-0.0290666
0.00486759
-0.0303593
0.00418654
-0.0313989
0.003608
-0.0322595
0.00314493
-0.0330044
0.00278868
-0.0336663
0.00249067
-0.0342541
0.0022134
-0.0347786
0.0019628
-0.0352615
0.00175401
-0.0357172
0.00156713
-0.0361363
0.00135878
-0.0364963
0.00111886
-0.0367901
0.00090294
-0.0370424
0.000797227
-0.0372958
0.000844019
-0.03758
0.00100569
-0.0378949
0.001189
-0.0382124
0.00130178
-0.0384939
0.00130496
-0.0387151
0.00123382
-0.0388823
0.00116517
-0.0390245
0.00114497
-0.0391693
0.00115866
0.00118441
-0.00941124
0.0171022
-0.0171053
0.0166169
-0.0224472
0.0138137
-0.0261766
0.0113052
-0.0288754
0.0092916
-0.0308449
0.00763676
-0.0323385
0.00636126
-0.0335182
0.00536618
-0.0344518
0.00454166
-0.0352141
0.00390722
-0.03589
0.00346451
-0.0365144
0.00311507
-0.037074
0.00277302
-0.0375667
0.00245554
-0.0380237
0.00221103
-0.0384713
0.00201469
-0.0388929
0.0017804
-0.039244
0.0014699
-0.0395033
0.00116224
-0.0397067
0.00100071
-0.0399222
0.00105945
-0.0401959
0.00127946
-0.0405261
0.00151918
-0.0408697
0.00164541
-0.0411687
0.0016039
-0.0413862
0.00145139
-0.041534
0.0013129
-0.0416578
0.00126879
-0.0417928
0.00129363
0.00133394
-0.0124719
0.0295741
-0.0217636
0.0259086
-0.0270729
0.019123
-0.0302919
0.0145241
-0.0326236
0.0116234
-0.0342214
0.00923451
-0.0353941
0.00753394
-0.0363651
0.0063372
-0.0371302
0.00530674
-0.0377299
0.00450694
-0.0382954
0.00403002
-0.0388739
0.00369354
-0.0394009
0.00330001
-0.0398431
0.00289777
-0.0402525
0.00262049
-0.0406861
0.00244825
-0.0411191
0.00221341
-0.0414666
0.00181736
-0.0416786
0.00137425
-0.0418073
0.00112945
-0.041965
0.00121718
-0.0422252
0.0015396
-0.0425803
0.00187433
-0.0429642
0.00202929
-0.04329
0.00192968
-0.0435018
0.00166317
-0.043618
0.00142916
-0.0437129
0.00136364
-0.0438357
0.00141649
0.00147547
-0.0177836
0.0473577
-0.0290041
0.0371292
-0.0335324
0.0236513
-0.0349832
0.0159749
-0.0366276
0.0132678
-0.0375339
0.0101408
-0.0381272
0.00812723
-0.0388541
0.0070641
-0.0394607
0.00591337
-0.0398185
0.00486472
-0.0402049
0.00441637
-0.0407412
0.0042299
-0.0412493
0.00380806
-0.0416226
0.00327106
-0.0419527
0.00295065
-0.0423708
0.00286629
-0.0428415
0.00268414
-0.043206
0.00218183
-0.0433558
0.00152412
-0.0433674
0.00114106
-0.0434364
0.00128611
-0.0436799
0.00178314
-0.0440756
0.00227005
-0.0445208
0.00247443
-0.0448873
0.00229623
-0.0450898
0.00186568
-0.0451548
0.00149411
-0.0452033
0.00141221
-0.045314
0.00152715
0.00161339
0.207447
0.00576026
0.207034
0.0111752
0.206432
0.01635
0.205647
0.0213681
0.204688
0.0262941
0.203561
0.0311823
0.202271
0.0360802
0.200825
0.0410296
0.199229
0.0460674
0.197488
0.0512269
0.195607
0.0565381
0.193592
0.0620295
0.191449
0.0677283
0.189182
0.0736621
0.186796
0.0798592
0.184296
0.0863512
0.181685
0.0931737
0.178963
0.10037
0.176133
0.107994
0.173191
0.116114
0.170134
0.124822
0.166956
0.134243
0.163654
0.144547
0.160228
0.155978
0.156702
0.16889
0.153168
0.183811
0.149993
0.201537
0.148853
0.222981
0.16054
0.245628
0.258794
0.236074
0.21249
0.00595268
0.212118
0.011548
0.211574
0.0168936
0.210868
0.022074
0.210008
0.0271546
0.209
0.0321898
0.207853
0.0372273
0.206574
0.0423088
0.20517
0.0474711
0.20365
0.0527469
0.202022
0.0581661
0.200295
0.0637564
0.198479
0.0695444
0.196584
0.0755567
0.194623
0.0818209
0.192607
0.088367
0.190552
0.0952291
0.188474
0.102448
0.186396
0.110072
0.184345
0.118164
0.182363
0.126805
0.180509
0.136097
0.178884
0.146173
0.177657
0.157205
0.177153
0.169395
0.178023
0.182941
0.181684
0.197875
0.190739
0.213926
0.206195
0.230172
0.245688
0.219302
0.217658
0.00612262
0.217329
0.011877
0.21685
0.0173723
0.21623
0.0226937
0.215478
0.027907
0.214601
0.0330665
0.213609
0.0382195
0.21251
0.0434075
0.211315
0.0486665
0.210033
0.0540285
0.208677
0.0595224
0.207259
0.0651745
0.205793
0.0710101
0.204296
0.0770538
0.202786
0.0833308
0.201285
0.0898678
0.19982
0.0966946
0.198422
0.103845
0.197134
0.11136
0.196012
0.119287
0.195134
0.127683
0.194613
0.136618
0.194619
0.146167
0.195416
0.156408
0.197414
0.167397
0.201223
0.179131
0.207614
0.191484
0.217248
0.204293
0.229844
0.217575
0.228753
0.246779
0.222951
0.00626809
0.22267
0.0121583
0.222262
0.0177805
0.221735
0.0232201
0.2211
0.0285426
0.220364
0.033802
0.219539
0.0390452
0.218633
0.0443125
0.217661
0.0496392
0.216633
0.0550559
0.215566
0.0605899
0.214475
0.0662657
0.213379
0.0721062
0.212299
0.0781332
0.211262
0.0843682
0.210297
0.090833
0.20944
0.0975508
0.208739
0.104547
0.208251
0.111848
0.208052
0.119485
0.208246
0.127489
0.208972
0.135891
0.210425
0.144715
0.212866
0.153966
0.216643
0.16362
0.222176
0.173599
0.229913
0.183747
0.240426
0.19378
0.254632
0.203369
0.21026
0.273125
0.228374
0.00638721
0.228144
0.0123884
0.227812
0.0181131
0.227385
0.0236464
0.226874
0.0290534
0.226289
0.0343872
0.225641
0.0396938
0.224941
0.0450123
0.224203
0.0503766
0.223444
0.0558156
0.222679
0.0613545
0.221929
0.0670154
0.221217
0.0728183
0.220569
0.0787811
0.220017
0.0849206
0.219597
0.0912528
0.219355
0.0977929
0.219346
0.104556
0.21964
0.111554
0.220324
0.118801
0.221512
0.126301
0.223349
0.134055
0.226018
0.142045
0.229752
0.150232
0.23483
0.158542
0.241581
0.166848
0.250383
0.174945
0.261683
0.182481
0.275952
0.189099
0.193714
0.292498
0.233929
0.00647832
0.233754
0.0125639
0.233502
0.0183653
0.233181
0.0239667
0.232802
0.0294322
0.232376
0.0348139
0.231913
0.0401562
0.231429
0.045497
0.230937
0.0508682
0.230456
0.0562968
0.230005
0.0618054
0.229607
0.0674134
0.229288
0.0731371
0.229079
0.0789903
0.229015
0.0849844
0.229139
0.0911289
0.229502
0.0974305
0.230164
0.103894
0.2312
0.110518
0.232701
0.117299
0.23478
0.124223
0.237572
0.131263
0.241241
0.138376
0.245979
0.145494
0.252006
0.152514
0.259566
0.159288
0.268899
0.165612
0.280185
0.171195
0.293518
0.175765
0.178809
0.308423
0.23962
0.00653991
0.239502
0.012682
0.239334
0.0185331
0.239125
0.0241759
0.238884
0.0296729
0.238623
0.035075
0.238354
0.0404249
0.238092
0.0457586
0.237855
0.051106
0.23766
0.0564917
0.237529
0.0619357
0.237489
0.0674541
0.237567
0.0730593
0.237796
0.0787607
0.238216
0.0845643
0.238872
0.090473
0.239817
0.0964856
0.241114
0.102597
0.242837
0.108795
0.245075
0.115062
0.247929
0.121368
0.25152
0.127672
0.255983
0.133913
0.261467
0.14001
0.268129
0.145852
0.276119
0.151298
0.285557
0.156175
0.296487
0.160265
0.308899
0.163353
0.165173
0.322535
0.245448
0.00657073
0.24539
0.0127403
0.24531
0.0186131
0.245216
0.0242695
0.245119
0.0297706
0.245029
0.0351652
0.244959
0.0404942
0.244926
0.0457915
0.244948
0.0510848
0.245043
0.0563961
0.245237
0.0617424
0.245554
0.0671365
0.246026
0.0725871
0.246688
0.078099
0.247579
0.0836732
0.248746
0.0893063
0.250241
0.0949903
0.252126
0.100712
0.254471
0.10645
0.257355
0.112178
0.260867
0.117856
0.265107
0.123432
0.270177
0.128842
0.276186
0.134001
0.283233
0.138805
0.291399
0.143133
0.30073
0.146843
0.311216
0.149779
0.322789
0.15178
0.152715
0.335247
0.251418
0.00656975
0.251422
0.0127368
0.251432
0.0186024
0.251457
0.0242443
0.251507
0.0297214
0.251591
0.0350805
0.251725
0.0403603
0.251924
0.0455924
0.252207
0.0508021
0.252594
0.0560087
0.25311
0.0612264
0.253782
0.0664645
0.254641
0.0717283
0.255722
0.0770183
0.257064
0.0823309
0.258713
0.0876575
0.260718
0.0929846
0.263137
0.0982927
0.266032
0.103555
0.269471
0.108739
0.273528
0.113799
0.278279
0.118682
0.283798
0.123323
0.290155
0.127643
0.297408
0.131553
0.305589
0.134952
0.314701
0.137732
0.324697
0.139782
0.335479
0.140997
0.141319
0.346876
0.257532
0.00653623
0.257599
0.0126702
0.257702
0.0184992
0.257848
0.024098
0.258047
0.029523
0.258309
0.0348187
0.258648
0.0400214
0.25908
0.0451604
0.259623
0.0502584
0.2603
0.0553321
0.261134
0.0603927
0.262152
0.0654467
0.263384
0.0704958
0.264865
0.0755372
0.266633
0.0805631
0.268729
0.0855613
0.2712
0.090514
0.274095
0.0953978
0.277467
0.100183
0.281373
0.104833
0.28587
0.109303
0.291011
0.113541
0.296847
0.117487
0.303418
0.121072
0.310748
0.124223
0.31884
0.126861
0.327665
0.128907
0.337159
0.130287
0.347219
0.130938
0.130837
0.357701
0.263794
0.0064697
0.263925
0.0125395
0.264122
0.0183023
0.26439
0.0238294
0.264739
0.0291744
0.265178
0.0343792
0.265722
0.0394778
0.266385
0.044497
0.267187
0.0494569
0.268147
0.0543716
0.26929
0.0592499
0.270642
0.0640953
0.272231
0.0689068
0.274089
0.0736785
0.276252
0.0784001
0.278758
0.0830561
0.281645
0.0876265
0.284957
0.0920858
0.288737
0.0964032
0.293027
0.100542
0.297869
0.10446
0.3033
0.10811
0.309347
0.111439
0.316028
0.114391
0.323345
0.116906
0.331279
0.118927
0.339786
0.120399
0.348797
0.121276
0.358213
0.121522
0.121135
0.367915
0.270207
0.00636998
0.270402
0.0123445
0.270693
0.0180115
0.271084
0.0234384
0.271582
0.0286759
0.272198
0.0337632
0.272944
0.0387319
0.273835
0.043606
0.274888
0.0484035
0.276124
0.0531359
0.277564
0.0578097
0.279233
0.0624262
0.281158
0.0669819
0.283368
0.0714689
0.285893
0.0758748
0.288767
0.0801827
0.292022
0.0843713
0.295693
0.0884148
0.299813
0.0922833
0.304413
0.0959422
0.30952
0.0993535
0.315155
0.102476
0.32133
0.105264
0.328045
0.107675
0.335287
0.109664
0.343024
0.11119
0.351207
0.112216
0.359766
0.112717
0.368613
0.112675
0.112101
0.377647
0.276774
0.00623717
0.277033
0.0120854
0.277417
0.0176272
0.277929
0.022926
0.278576
0.0280292
0.279366
0.0329735
0.28031
0.0377877
0.281422
0.0424935
0.28272
0.0471064
0.284219
0.0516361
0.285942
0.0560868
0.287911
0.0604579
0.290148
0.0647445
0.29268
0.068937
0.295532
0.0730221
0.298733
0.0769823
0.302308
0.0807964
0.306283
0.0844397
0.310682
0.0878841
0.315525
0.0910989
0.320828
0.0940508
0.326598
0.0967051
0.332836
0.0990268
0.33953
0.100982
0.346656
0.102538
0.354178
0.103668
0.362043
0.104351
0.370187
0.104573
0.378532
0.10433
0.103639
0.386994
0.283498
0.00607166
0.283821
0.0117629
0.284297
0.0171508
0.284929
0.0222942
0.285721
0.0272375
0.28668
0.0320144
0.287816
0.0366511
0.289142
0.0411673
0.290673
0.0455761
0.292423
0.0498854
0.294413
0.0540977
0.296659
0.0582112
0.299184
0.0622197
0.302008
0.0661129
0.305153
0.0698773
0.30864
0.0734957
0.312488
0.0769479
0.316716
0.0802113
0.32134
0.0832607
0.326369
0.0860695
0.33181
0.0886099
0.337661
0.0908542
0.343913
0.0927753
0.350546
0.0943484
0.357532
0.0955519
0.364831
0.0963688
0.372394
0.0967883
0.38016
0.0968067
0.388063
0.0964272
0.0956705
0.396031
0.290384
0.00587408
0.290768
0.0113785
0.291335
0.0165842
0.292083
0.0215461
0.293016
0.0263048
0.294139
0.0308914
0.29546
0.0353296
0.296991
0.0396369
0.298742
0.0438245
0.300729
0.0478987
0.302966
0.0518608
0.305469
0.055708
0.308255
0.0594334
0.311341
0.0630268
0.314744
0.0664749
0.318478
0.0697616
0.322557
0.0728686
0.326993
0.0757756
0.331793
0.078461
0.33696
0.0809025
0.342491
0.083078
0.34838
0.0849657
0.354609
0.0865461
0.361156
0.0878019
0.367988
0.0887196
0.375067
0.0892903
0.382344
0.0895105
0.389769
0.0893825
0.397281
0.0889146
0.088128
0.404824
0.297435
0.00564529
0.297879
0.0109337
0.298533
0.0159303
0.299394
0.0206854
0.300463
0.0252363
0.301743
0.0296113
0.30324
0.0338318
0.304964
0.0379131
0.306924
0.0418649
0.30913
0.0456921
0.311596
0.0493952
0.314333
0.0529707
0.317355
0.0564116
0.320674
0.0597082
0.324301
0.062848
0.328246
0.0658165
0.332517
0.0685973
0.337119
0.0711733
0.342054
0.0735263
0.347318
0.0756385
0.352904
0.0774926
0.358797
0.0790727
0.364978
0.080365
0.371421
0.0813588
0.378094
0.0820467
0.384958
0.0824256
0.391972
0.0824968
0.399088
0.0822667
0.406256
0.0817463
0.0809562
0.413428
0.304654
0.00538637
0.305157
0.0104307
0.305895
0.0151922
0.306864
0.0197166
0.308062
0.0240379
0.309492
0.0281817
0.311157
0.0321671
0.313062
0.0360075
0.315216
0.0397114
0.317625
0.0432824
0.3203
0.0467204
0.323249
0.0500217
0.326481
0.0531797
0.330004
0.0561854
0.333825
0.0590274
0.337948
0.0616931
0.342377
0.0641686
0.34711
0.0664394
0.352146
0.0684912
0.357474
0.0703101
0.363083
0.0718831
0.368957
0.0731993
0.375072
0.0742498
0.381402
0.0750286
0.387916
0.0755331
0.394577
0.0757641
0.401348
0.0757264
0.408186
0.0754285
0.41505
0.0748826
0.0741083
0.421897
0.312046
0.00509851
0.312605
0.00987194
0.313424
0.0143736
0.314495
0.0186448
0.315817
0.0227162
0.317388
0.0266109
0.319209
0.0303457
0.321284
0.0339325
0.323617
0.0373783
0.326214
0.0406862
0.329078
0.0438555
0.332217
0.0468827
0.335635
0.0497617
0.339336
0.0524844
0.343323
0.0550411
0.347595
0.0574208
0.352151
0.0596122
0.356987
0.0616037
0.362094
0.0633841
0.367461
0.0649431
0.373072
0.0662716
0.378909
0.0673626
0.384948
0.0682111
0.391162
0.0688149
0.39752
0.0691744
0.403991
0.0692933
0.410539
0.0691783
0.417129
0.0688392
0.423723
0.0682884
0.0675439
0.430287
0.319615
0.00478306
0.320227
0.00925996
0.321122
0.0134783
0.322292
0.0174752
0.32373
0.0212781
0.325433
0.0249074
0.327401
0.0283781
0.329633
0.0317003
0.332131
0.0348801
0.334898
0.0379199
0.337934
0.040819
0.341243
0.0435741
0.344825
0.0461799
0.34868
0.0486291
0.352807
0.0509138
0.357203
0.053025
0.361862
0.0549535
0.366775
0.0566904
0.371932
0.0582273
0.377318
0.0595571
0.382916
0.0606739
0.388705
0.0615736
0.394661
0.0622544
0.40076
0.0627165
0.406971
0.0629628
0.413266
0.0629986
0.419613
0.0628317
0.42598
0.0624721
0.432336
0.0619321
0.0612278
0.438652
0.327365
0.00444136
0.328027
0.00859746
0.328995
0.0125105
0.330257
0.0162135
0.331804
0.0197307
0.333632
0.02308
0.335735
0.0262745
0.338113
0.029323
0.340762
0.0322306
0.343683
0.0349992
0.346874
0.0376283
0.350333
0.0401147
0.354059
0.042454
0.358048
0.0446403
0.362295
0.0466669
0.366793
0.0485267
0.371534
0.0502128
0.376506