/*--------------------------------*- C++ -*----------------------------------*\
  =========                 |
  \\      /  F ield         | OpenFOAM: The Open Source CFD Toolbox
   \\    /   O peration     | Website:  https://openfoam.org
    \\  /    A nd           | Version:  7
     \\/     M anipulation  |
\*---------------------------------------------------------------------------*/
FoamFile
{
    version     2.0;
    format      ascii;
    class       volVectorField;
    location    "4.9";
    object      U;
}
// * * * * * * * * * * * * * * * * * * * * * * * * * * * * * * * * * * * * * //

dimensions      [0 1 -1 0 0 0 0];

internalField   nonuniform List<vector> 
2790
(
(9.94399 0.0205232 0)
(9.87572 0.0295877 0)
(9.77521 0.0359895 0)
(9.64944 0.0425562 0)
(9.50409 0.0493855 0)
(9.34007 0.0564284 0)
(9.15655 0.063816 0)
(8.95263 0.0717118 0)
(8.72747 0.0802555 0)
(8.48008 0.0895739 0)
(8.20928 0.0997941 0)
(7.91365 0.111046 0)
(7.59169 0.123461 0)
(7.24178 0.137166 0)
(6.86233 0.152275 0)
(6.4518 0.168873 0)
(6.00888 0.187 0)
(5.53268 0.206623 0)
(5.02297 0.227594 0)
(4.48045 0.249615 0)
(3.90716 0.272181 0)
(3.30683 0.29453 0)
(2.68529 0.315624 0)
(2.05063 0.334292 0)
(1.4118 0.350609 0)
(0.798044 0.372887 0)
(0.110724 0.325066 0)
(-0.469564 -0.114859 0)
(-0.453776 -0.297158 0)
(-0.231164 -0.423861 0)
(9.9985 0.040703 0)
(9.98145 0.0623828 0)
(9.93574 0.0791402 0)
(9.86416 0.0966249 0)
(9.77097 0.115124 0)
(9.65715 0.134488 0)
(9.52206 0.154975 0)
(9.36485 0.176943 0)
(9.18472 0.200708 0)
(8.98067 0.22655 0)
(8.75153 0.254745 0)
(8.49589 0.285562 0)
(8.21221 0.319252 0)
(7.89883 0.356026 0)
(7.55405 0.396024 0)
(7.1762 0.439267 0)
(6.76379 0.485598 0)
(6.31567 0.534593 0)
(5.83126 0.585468 0)
(5.31089 0.63696 0)
(4.75616 0.68721 0)
(4.17043 0.733653 0)
(3.55931 0.772959 0)
(2.93157 0.801099 0)
(2.29997 0.813755 0)
(1.69297 0.807259 0)
(1.10718 0.74726 0)
(0.658908 0.54794 0)
(0.186473 0.224629 0)
(-0.00819984 -0.453725 0)
(9.99559 0.043207 0)
(9.97556 0.0752717 0)
(9.9318 0.103346 0)
(9.8649 0.132371 0)
(9.77778 0.163059 0)
(9.67155 0.195399 0)
(9.54588 0.229743 0)
(9.40014 0.266603 0)
(9.23365 0.30647 0)
(9.04564 0.349807 0)
(8.83509 0.397073 0)
(8.60082 0.448723 0)
(8.34145 0.505193 0)
(8.0555 0.566865 0)
(7.74138 0.634013 0)
(7.39745 0.706734 0)
(7.02211 0.78484 0)
(6.61396 0.867727 0)
(6.17195 0.954198 0)
(5.69565 1.04226 0)
(5.18564 1.12889 0)
(4.64398 1.20979 0)
(4.07481 1.27916 0)
(3.48539 1.32934 0)
(2.88687 1.3501 0)
(2.29949 1.32644 0)
(1.73186 1.22079 0)
(1.21627 0.973021 0)
(0.701157 0.570164 0)
(0.358049 -0.156533 0)
(9.99403 0.0494993 0)
(9.97181 0.0932064 0)
(9.92788 0.133572 0)
(9.86225 0.174209 0)
(9.77693 0.216434 0)
(9.67298 0.260661 0)
(9.55031 0.30743 0)
(9.40849 0.357415 0)
(9.24702 0.411291 0)
(9.06533 0.469705 0)
(8.86269 0.533302 0)
(8.6382 0.602724 0)
(8.39085 0.678592 0)
(8.11952 0.761475 0)
(7.823 0.851821 0)
(7.50001 0.949875 0)
(7.14925 1.05555 0)
(6.76945 1.16824 0)
(6.3595 1.2866 0)
(5.91861 1.40827 0)
(5.44654 1.52947 0)
(4.94402 1.64468 0)
(4.41318 1.74614 0)
(3.85829 1.82322 0)
(3.28584 1.86137 0)
(2.70642 1.84033 0)
(2.12567 1.72602 0)
(1.55427 1.47788 0)
(0.957959 1.08372 0)
(0.509428 0.502351 0)
(9.99331 0.0572137 0)
(9.96994 0.110959 0)
(9.92593 0.162104 0)
(9.86146 0.213348 0)
(9.77799 0.266357 0)
(9.67635 0.321914 0)
(9.55654 0.380702 0)
(9.41822 0.443488 0)
(9.26097 0.511056 0)
(9.08433 0.58417 0)
(8.8877 0.663587 0)
(8.67039 0.750063 0)
(8.43159 0.844334 0)
(8.17046 0.947082 0)
(7.88608 1.05888 0)
(7.57748 1.18007 0)
(7.24367 1.31068 0)
(6.88361 1.45018 0)
(6.49629 1.59722 0)
(6.08074 1.74932 0)
(5.63617 1.90241 0)
(5.16213 2.05031 0)
(4.65879 2.18417 0)
(4.12723 2.29174 0)
(3.56942 2.35657 0)
(2.98891 2.35733 0)
(2.38685 2.26497 0)
(1.7664 2.04767 0)
(1.09 1.69143 0)
(0.536655 1.15418 0)
(9.99302 0.0655387 0)
(9.96923 0.128702 0)
(9.92556 0.190114 0)
(9.86253 0.251844 0)
(9.78128 0.315579 0)
(9.68244 0.382319 0)
(9.56601 0.452875 0)
(9.43171 0.528102 0)
(9.2792 0.60888 0)
(9.10806 0.696084 0)
(8.91777 0.790579 0)
(8.70774 0.893223 0)
(8.47728 1.00485 0)
(8.22567 1.12625 0)
(7.95215 1.25809 0)
(7.65589 1.40081 0)
(7.33603 1.55454 0)
(6.99164 1.71886 0)
(6.62169 1.89255 0)
(6.22501 2.07322 0)
(5.80029 2.25684 0)
(5.34605 2.4372 0)
(4.86072 2.60519 0)
(4.34272 2.74822 0)
(3.79041 2.84955 0)
(3.20259 2.88821 0)
(2.57659 2.83825 0)
(1.91348 2.67164 0)
(1.17276 2.37403 0)
(0.54997 1.89444 0)
(9.99297 0.074075 0)
(9.96926 0.146314 0)
(9.92637 0.217484 0)
(9.86508 0.289293 0)
(9.78642 0.363356 0)
(9.69085 0.440828 0)
(9.57835 0.522661 0)
(9.44871 0.609811 0)
(9.30165 0.703255 0)
(9.13678 0.803964 0)
(8.95364 0.912899 0)
(8.7517 1.03101 0)
(8.53033 1.15922 0)
(8.28887 1.2984 0)
(8.02659 1.44929 0)
(7.74269 1.61247 0)
(7.4363 1.78818 0)
(7.1064 1.97615 0)
(6.75181 2.1754 0)
(6.37101 2.38381 0)
(5.96211 2.59773 0)
(5.52265 2.81137 0)
(5.04954 3.01614 0)
(4.53902 3.19996 0)
(3.98668 3.34668 0)
(3.38793 3.43598 0)
(2.73726 3.44333 0)
(2.03625 3.34152 0)
(1.24175 3.11361 0)
(0.563517 2.69319 0)
(9.99306 0.0825882 0)
(9.96981 0.163606 0)
(9.92807 0.244051 0)
(9.86885 0.32548 0)
(9.79313 0.409447 0)
(9.70126 0.497207 0)
(9.59323 0.58984 0)
(9.46888 0.688396 0)
(9.32796 0.79394 0)
(9.17014 0.907529 0)
(8.99502 1.03021 0)
(8.8021 1.16303 0)
(8.59081 1.307 0)
(8.3605 1.46309 0)
(8.11044 1.63214 0)
(7.8398 1.81486 0)
(7.54761 2.01166 0)
(7.23267 2.2225 0)
(6.8935 2.44672 0)
(6.52817 2.68268 0)
(6.1341 2.92734 0)
(5.70786 3.17576 0)
(5.24498 3.42035 0)
(4.7398 3.65019 0)
(4.1855 3.85024 0)
(3.57477 4.0009 0)
(2.89953 4.07792 0)
(2.16212 4.05241 0)
(1.31612 3.90174 0)
(0.583221 3.5402 0)
(9.99326 0.0909285 0)
(9.97072 0.180409 0)
(9.93046 0.269668 0)
(9.87362 0.360242 0)
(9.80118 0.453648 0)
(9.71344 0.551211 0)
(9.61038 0.654113 0)
(9.49188 0.763497 0)
(9.35775 0.880505 0)
(9.20773 1.00628 0)
(9.04145 1.14196 0)
(8.85847 1.28866 0)
(8.65827 1.44752 0)
(8.44021 1.61958 0)
(8.20357 1.80586 0)
(7.94745 2.0072 0)
(7.67078 2.22424 0)
(7.37216 2.45726 0)
(7.0498 2.70604 0)
(6.70128 2.96955 0)
(6.32336 3.24565 0)
(5.91166 3.53052 0)
(5.46038 3.81805 0)
(4.96202 4.09898 0)
(4.40743 4.35986 0)
(3.78641 4.58211 0)
(3.08758 4.7411 0)
(2.31271 4.80449 0)
(1.41064 4.74112 0)
(0.614308 4.44197 0)
(9.99352 0.0989924 0)
(9.97191 0.196579 0)
(9.9334 0.294196 0)
(9.87924 0.393418 0)
(9.8104 0.495757 0)
(9.72717 0.602589 0)
(9.62953 0.715183 0)
(9.51741 0.834762 0)
(9.39068 0.962544 0)
(9.24912 1.09975 0)
(9.09245 1.24759 0)
(8.92027 1.40729 0)
(8.73212 1.58006 0)
(8.52741 1.7671 0)
(8.30543 1.96955 0)
(8.06525 2.18847 0)
(7.80572 2.42478 0)
(7.52529 2.67915 0)
(7.22191 2.95191 0)
(6.89277 3.2428 0)
(6.53403 3.55077 0)
(6.14048 3.87348 0)
(5.70506 4.20669 0)
(5.21849 4.54338 0)
(4.669 4.87243 0)
(4.04287 5.17697 0)
(3.32369 5.43233 0)
(2.50976 5.602 0)
(1.54186 5.64354 0)
(0.664052 5.41809 0)
(9.99384 0.106704 0)
(9.9733 0.212 0)
(9.9368 0.317503 0)
(9.88558 0.424857 0)
(9.82063 0.53559 0)
(9.74225 0.651122 0)
(9.65044 0.772788 0)
(9.54517 0.901886 0)
(9.42637 1.0397 0)
(9.2939 1.18752 0)
(9.14752 1.34663 0)
(8.98694 1.51835 0)
(8.81174 1.70398 0)
(8.62142 1.90486 0)
(8.41531 2.1223 0)
(8.19252 2.35759 0)
(7.95187 2.61195 0)
(7.69178 2.88653 0)
(7.41004 3.18227 0)
(7.10364 3.49984 0)
(6.76835 3.83946 0)
(6.39834 4.20052 0)
(5.98556 4.58117 0)
(5.51909 4.97732 0)
(4.98438 5.38131 0)
(4.36326 5.77956 0)
(3.63189 6.14915 0)
(2.7801 6.4507 0)
(1.73343 6.62855 0)
(0.744822 6.50314 0)
(9.9942 0.114006 0)
(9.97487 0.226575 0)
(9.94056 0.339474 0)
(9.89252 0.454424 0)
(9.83173 0.572984 0)
(9.75851 0.69661 0)
(9.67288 0.826695 0)
(9.57488 0.964594 0)
(9.46448 1.11165 0)
(9.34162 1.26922 0)
(9.20615 1.43865 0)
(9.05786 1.62133 0)
(8.89644 1.81868 0)
(8.72146 2.03215 0)
(8.53236 2.26322 0)
(8.32835 2.51343 0)
(8.10834 2.78433 0)
(7.8708 3.07755 0)
(7.6136 3.39471 0)
(7.33372 3.73747 0)
(7.02691 4.10743 0)
(6.68714 4.50601 0)
(6.30587 4.93409 0)
(5.87107 5.39144 0)
(5.36576 5.87535 0)
(4.76687 6.37825 0)
(4.04068 6.88324 0)
(3.16142 7.35353 0)
(2.0247 7.72324 0)
(0.880709 7.75713 0)
(9.99459 0.120854 0)
(9.97657 0.240225 0)
(9.94461 0.360008 0)
(9.89995 0.482002 0)
(9.84356 0.607797 0)
(9.77575 0.738884 0)
(9.69662 0.876698 0)
(9.60623 1.02265 0)
(9.50463 1.17812 0)
(9.39184 1.34451 0)
(9.26781 1.52325 0)
(9.13241 1.71578 0)
(8.98547 1.9236 0)
(8.82668 2.14828 0)
(8.65562 2.39147 0)
(8.47166 2.65492 0)
(8.27391 2.94051 0)
(8.06106 3.25033 0)
(7.83124 3.58667 0)
(7.58177 3.95216 0)
(7.30876 4.34982 0)
(7.00662 4.78314 0)
(6.66718 5.25609 0)
(6.27843 5.77294 0)
(5.82241 6.33769 0)
(5.27242 6.95242 0)
(4.58445 7.61366 0)
(3.70987 8.30095 0)
(2.4881 8.95826 0)
(1.12443 9.29325 0)
(9.99501 0.127211 0)
(9.97838 0.252885 0)
(9.94891 0.379022 0)
(9.90779 0.507488 0)
(9.85598 0.639909 0)
(9.79381 0.777803 0)
(9.72142 0.92264 0)
(9.63893 1.07586 0)
(9.54647 1.23889 0)
(9.44412 1.41317 0)
(9.33194 1.60016 0)
(9.20994 1.80135 0)
(9.07804 2.01833 0)
(8.93613 2.25274 0)
(8.78396 2.50638 0)
(8.62115 2.78116 0)
(8.44706 3.07928 0)
(8.26079 3.40317 0)
(8.06092 3.75575 0)
(7.84542 4.14049 0)
(7.61126 4.56166 0)
(7.35403 5.02469 0)
(7.06708 5.53652 0)
(6.74033 6.10615 0)
(6.35783 6.74526 0)
(5.89396 7.46894 0)
(5.30065 8.29635 0)
(4.50872 9.24802 0)
(3.26867 10.3419 0)
(1.60491 11.3591 0)
(9.99545 0.133051 0)
(9.98026 0.264505 0)
(9.95339 0.396443 0)
(9.91596 0.53079 0)
(9.86888 0.669201 0)
(9.81252 0.813214 0)
(9.74707 0.964324 0)
(9.67271 1.124 0)
(9.58963 1.29368 0)
(9.49801 1.47484 0)
(9.39801 1.66895 0)
(9.28976 1.87757 0)
(9.17336 2.10229 0)
(9.04885 2.34484 0)
(8.91622 2.60708 0)
(8.77536 2.8911 0)
(8.62604 3.19926 0)
(8.4678 3.5343 0)
(8.29991 3.89953 0)
(8.12124 4.29905 0)
(7.93008 4.73808 0)
(7.72388 5.22345 0)
(7.4988 5.76441 0)
(7.24894 6.37376 0)
(6.96481 7.06994 0)
(6.63088 7.88079 0)
(6.21435 8.85175 0)
(5.66579 10.0658 0)
(4.69009 11.731 0)
(2.68735 14.5923 0)
(0.11529 -0.115241 0)
(0.272115 -0.10567 0)
(0.432577 -0.0837108 0)
(0.567526 -0.0629592 0)
(0.672816 -0.0461268 0)
(0.753412 -0.0331054 0)
(0.815308 -0.0232481 0)
(0.863285 -0.0159129 0)
(0.900875 -0.0105496 0)
(0.930755 -0.00671014 0)
(0.955041 -0.00404046 0)
(0.975417 -0.00226269 0)
(0.993212 -0.00115198 0)
(1.00944 -0.000515592 0)
(1.02482 -0.000177179 0)
(1.03973 3.22191e-05 0)
(1.05425 0.000274077 0)
(1.06807 0.000688367 0)
(1.08063 0.00136507 0)
(1.09118 0.00231362 0)
(1.09902 0.00345477 0)
(1.1037 0.00464955 0)
(1.10515 0.00572361 0)
(1.10383 0.0064638 0)
(1.09961 0.00713012 0)
(1.09229 0.00784469 0)
(1.08154 0.00850148 0)
(1.06728 0.00891793 0)
(1.05049 0.00862957 0)
(1.03135 0.0065137 0)
(0.0992001 -0.270251 0)
(0.252072 -0.254793 0)
(0.401275 -0.207796 0)
(0.529044 -0.162411 0)
(0.632624 -0.125498 0)
(0.716549 -0.0969217 0)
(0.785802 -0.0752601 0)
(0.844216 -0.0590638 0)
(0.894538 -0.0470972 0)
(0.938796 -0.0383718 0)
(0.978547 -0.0321204 0)
(1.01501 -0.02775 0)
(1.04914 -0.02479 0)
(1.08167 -0.0228448 0)
(1.11314 -0.0215584 0)
(1.14393 -0.0205912 0)
(1.17425 -0.0196163 0)
(1.20411 -0.0183429 0)
(1.23333 -0.0165721 0)
(1.26159 -0.014261 0)
(1.2885 -0.0115489 0)
(1.31376 -0.00870133 0)
(1.33722 -0.00598768 0)
(1.35852 -0.00352062 0)
(1.37774 -0.00102196 0)
(1.39468 0.00178197 0)
(1.40873 0.00491113 0)
(1.41862 0.00750861 0)
(1.42515 0.00860872 0)
(1.43125 0.00685014 0)
(0.0789908 -0.427483 0)
(0.20998 -0.401345 0)
(0.327815 -0.328943 0)
(0.427805 -0.259964 0)
(0.508078 -0.204339 0)
(0.573329 -0.161362 0)
(0.62757 -0.128753 0)
(0.673744 -0.104238 0)
(0.713878 -0.0859327 0)
(0.749427 -0.0723701 0)
(0.781515 -0.0624283 0)
(0.811027 -0.0552458 0)
(0.838657 -0.0501458 0)
(0.864948 -0.0465695 0)
(0.890321 -0.0440256 0)
(0.91509 -0.0420536 0)
(0.939465 -0.0402094 0)
(0.963531 -0.0380886 0)
(0.987227 -0.0353984 0)
(1.01035 -0.0320513 0)
(1.03259 -0.0282179 0)
(1.05371 -0.0242571 0)
(1.07363 -0.020486 0)
(1.09263 -0.0169005 0)
(1.11113 -0.0133026 0)
(1.12943 -0.00929657 0)
(1.14772 -0.00472506 0)
(1.16635 -0.000441583 0)
(1.18295 0.00233621 0)
(1.1974 0.00273989 0)
(0.0592179 -0.551572 0)
(0.162297 -0.508814 0)
(0.241977 -0.412968 0)
(0.309321 -0.325133 0)
(0.360949 -0.25586 0)
(0.402476 -0.202882 0)
(0.436573 -0.162949 0)
(0.465259 -0.132949 0)
(0.489774 -0.110462 0)
(0.510971 -0.0936909 0)
(0.529537 -0.0812827 0)
(0.546029 -0.0722056 0)
(0.560893 -0.0656519 0)
(0.574492 -0.0609619 0)
(0.58713 -0.0575666 0)
(0.599077 -0.0549409 0)
(0.610577 -0.0525731 0)
(0.621829 -0.0499773 0)
(0.632929 -0.0467705 0)
(0.643816 -0.0427934 0)
(0.654225 -0.0382051 0)
(0.663782 -0.0334406 0)
(0.67223 -0.0289913 0)
(0.679733 -0.0251029 0)
(0.686799 -0.0216754 0)
(0.693961 -0.0182534 0)
(0.701597 -0.0144814 0)
(0.709442 -0.0103782 0)
(0.716513 -0.00668986 0)
(0.719938 -0.0030021 0)
(0.0385635 -0.644201 0)
(0.108402 -0.579586 0)
(0.144741 -0.462958 0)
(0.177359 -0.36155 0)
(0.197067 -0.283436 0)
(0.211676 -0.224241 0)
(0.221927 -0.180015 0)
(0.229112 -0.146686 0)
(0.233738 -0.121508 0)
(0.236214 -0.102548 0)
(0.236929 -0.0883577 0)
(0.236191 -0.0778338 0)
(0.234255 -0.0701141 0)
(0.231351 -0.0645027 0)
(0.227706 -0.0604157 0)
(0.223575 -0.0573233 0)
(0.219265 -0.0546954 0)
(0.215114 -0.0519856 0)
(0.211394 -0.0486964 0)
(0.208212 -0.0445224 0)
(0.205294 -0.0395026 0)
(0.202057 -0.0340429 0)
(0.197515 -0.0287183 0)
(0.191151 -0.0239281 0)
(0.182985 -0.0196795 0)
(0.172981 -0.0155847 0)
(0.163446 -0.0112717 0)
(0.154495 -0.00606601 0)
(0.142671 -0.000564337 0)
(0.128339 0.000960011 0)
(0.0163155 -0.699996 0)
(0.0478036 -0.609363 0)
(0.0377104 -0.47502 0)
(0.0343318 -0.364941 0)
(0.0197702 -0.281588 0)
(0.00430272 -0.2188 0)
(-0.0128431 -0.172516 0)
(-0.0307404 -0.138051 0)
(-0.0495102 -0.112085 0)
(-0.0687518 -0.0926436 0)
(-0.0881761 -0.0781754 0)
(-0.107598 -0.0675261 0)
(-0.126842 -0.059808 0)
(-0.145744 -0.054315 0)
(-0.164144 -0.0504723 0)
(-0.181856 -0.0477721 0)
(-0.198641 -0.0456902 0)
(-0.214245 -0.0436422 0)
(-0.228493 -0.0410493 0)
(-0.241377 -0.0375142 0)
(-0.25312 -0.0329907 0)
(-0.264181 -0.0278167 0)
(-0.275177 -0.0225657 0)
(-0.286626 -0.0176803 0)
(-0.298833 -0.0132334 0)
(-0.311838 -0.00876857 0)
(-0.325464 -0.00382286 0)
(-0.340947 0.00107645 0)
(-0.350967 0.00418755 0)
(-0.359253 0.00388373 0)
(-0.0092558 -0.712102 0)
(-0.0213017 -0.592253 0)
(-0.0777347 -0.446208 0)
(-0.120009 -0.3335 0)
(-0.16958 -0.249969 0)
(-0.217181 -0.189491 0)
(-0.262743 -0.144958 0)
(-0.305845 -0.111851 0)
(-0.346351 -0.0874154 0)
(-0.384039 -0.0696302 0)
(-0.418824 -0.0568544 0)
(-0.450793 -0.0478674 0)
(-0.480131 -0.0417499 0)
(-0.507078 -0.0377871 0)
(-0.531886 -0.0354148 0)
(-0.554753 -0.0341494 0)
(-0.575781 -0.0334815 0)
(-0.595018 -0.0328 0)
(-0.612564 -0.031453 0)
(-0.628662 -0.0289499 0)
(-0.643702 -0.0251542 0)
(-0.65817 -0.0203084 0)
(-0.672537 -0.0149985 0)
(-0.687123 -0.00975984 0)
(-0.702097 -0.0048965 0)
(-0.717652 -0.000519174 0)
(-0.731191 0.00344894 0)
(-0.740862 0.00650862 0)
(-0.74954 0.00768987 0)
(-0.754875 0.00683952 0)
(-0.0412853 -0.672686 0)
(-0.0999565 -0.529185 0)
(-0.201313 -0.382004 0)
(-0.283636 -0.271459 0)
(-0.366851 -0.191578 0)
(-0.444119 -0.136064 0)
(-0.513978 -0.097376 0)
(-0.575922 -0.069855 0)
(-0.630518 -0.0503355 0)
(-0.678698 -0.0369332 0)
(-0.7213 -0.028057 0)
(-0.75915 -0.0225088 0)
(-0.792987 -0.0193837 0)
(-0.823472 -0.0179813 0)
(-0.851187 -0.0177831 0)
(-0.876568 -0.0184011 0)
(-0.899856 -0.0194258 0)
(-0.92116 -0.0202814 0)
(-0.940638 -0.0202586 0)
(-0.958634 -0.0187655 0)
(-0.975642 -0.0156083 0)
(-0.992201 -0.011035 0)
(-1.00875 -0.00587254 0)
(-1.02549 -0.0010658 0)
(-1.04064 0.00290267 0)
(-1.05299 0.00611614 0)
(-1.06389 0.00888978 0)
(-1.07376 0.0111435 0)
(-1.082 0.0118749 0)
(-1.08644 0.0110147 0)
(-0.0815154 -0.576482 0)
(-0.190301 -0.41711 0)
(-0.342524 -0.27786 0)
(-0.465152 -0.178761 0)
(-0.577994 -0.109386 0)
(-0.679335 -0.0625606 0)
(-0.769125 -0.0325506 0)
(-0.84658 -0.0144134 0)
(-0.909821 -0.00423563 0)
(-0.962194 0.00140094 0)
(-1.00617 0.0041465 0)
(-1.04379 0.00491269 0)
(-1.07663 0.0043107 0)
(-1.10593 0.00282364 0)
(-1.13264 0.000784895 0)
(-1.15743 -0.00162377 0)
(-1.18066 -0.00419611 0)
(-1.20241 -0.00646192 0)
(-1.22268 -0.00767038 0)
(-1.24135 -0.00711083 0)
(-1.25911 -0.00456038 0)
(-1.27665 -0.000632781 0)
(-1.29315 0.00368583 0)
(-1.30774 0.00740143 0)
(-1.32105 0.0101347 0)
(-1.33309 0.0122215 0)
(-1.34378 0.0140478 0)
(-1.35334 0.0154401 0)
(-1.36121 0.0156875 0)
(-1.36515 0.0149135 0)
(-0.137856 -0.419009 0)
(-0.309307 -0.253486 0)
(-0.528004 -0.130366 0)
(-0.705978 -0.0447521 0)
(-0.848495 0.0038691 0)
(-0.95905 0.0283663 0)
(-1.04494 0.0388979 0)
(-1.11281 0.0414495 0)
(-1.16962 0.0403866 0)
(-1.21765 0.0377451 0)
(-1.25901 0.0344281 0)
(-1.29517 0.0307058 0)
(-1.32719 0.0267098 0)
(-1.35593 0.0226489 0)
(-1.38216 0.0186635 0)
(-1.40637 0.0146877 0)
(-1.42866 0.0106511 0)
(-1.44883 0.00687987 0)
(-1.46684 0.00420626 0)
(-1.48337 0.00355408 0)
(-1.49885 0.00521497 0)
(-1.51358 0.00846254 0)
(-1.52841 0.0121761 0)
(-1.54312 0.0152822 0)
(-1.55688 0.017252 0)
(-1.56899 0.0183396 0)
(-1.57945 0.0191406 0)
(-1.58869 0.0197413 0)
(-1.59622 0.01966 0)
(-1.59981 0.0190188 0)
(-0.222947 -0.219059 0)
(-0.470088 -0.00588242 0)
(-0.716185 0.0802845 0)
(-0.896211 0.108471 0)
(-1.03801 0.114854 0)
(-1.15055 0.111257 0)
(-1.2403 0.102997 0)
(-1.31259 0.0929067 0)
(-1.37148 0.0824384 0)
(-1.42033 0.0726471 0)
(-1.46193 0.0639597 0)
(-1.49814 0.0560827 0)
(-1.53008 0.0487113 0)
(-1.55857 0.0419292 0)
(-1.5845 0.0358472 0)
(-1.6085 0.0301791 0)
(-1.63055 0.0245002 0)
(-1.65014 0.0189688 0)
(-1.667 0.0146164 0)
(-1.6817 0.0127172 0)
(-1.69555 0.0137645 0)
(-1.70982 0.0170279 0)
(-1.72492 0.0208165 0)
(-1.74024 0.023545 0)
(-1.75451 0.0245649 0)
(-1.76672 0.0243733 0)
(-1.77689 0.0239761 0)
(-1.78571 0.0238123 0)
(-1.79286 0.0235393 0)
(-1.79619 0.0230892 0)
(-0.297295 0.210594 0)
(-0.570945 0.280855 0)
(-0.848739 0.285055 0)
(-1.05182 0.263831 0)
(-1.20738 0.233852 0)
(-1.32586 0.202314 0)
(-1.4172 0.173198 0)
(-1.48896 0.147672 0)
(-1.54626 0.12576 0)
(-1.59309 0.10781 0)
(-1.6329 0.0935524 0)
(-1.66786 0.0816261 0)
(-1.69883 0.0708842 0)
(-1.72641 0.0612981 0)
(-1.75159 0.0531399 0)
(-1.77526 0.0458875 0)
(-1.79729 0.0385233 0)
(-1.81663 0.0308953 0)
(-1.83255 0.024419 0)
(-1.84575 0.0211192 0)
(-1.85819 0.0218536 0)
(-1.87179 0.0255208 0)
(-1.88715 0.029726 0)
(-1.90329 0.0322338 0)
(-1.91829 0.0321716 0)
(-1.93065 0.0303869 0)
(-1.94039 0.0285592 0)
(-1.94858 0.0276298 0)
(-1.95523 0.0272704 0)
(-1.95829 0.0270302 0)
(-0.348339 0.607617 0)
(-0.689326 0.616032 0)
(-1.0142 0.525692 0)
(-1.23072 0.434357 0)
(-1.3863 0.357294 0)
(-1.4996 0.292105 0)
(-1.58421 0.240131 0)
(-1.64972 0.199262 0)
(-1.70135 0.166135 0)
(-1.74296 0.140261 0)
(-1.77871 0.121138 0)
(-1.81117 0.105911 0)
(-1.84049 0.0920075 0)
(-1.86643 0.0795184 0)
(-1.89018 0.0694364 0)
(-1.91321 0.0610775 0)
(-1.93531 0.0523541 0)
(-1.95446 0.0424202 0)
(-1.96905 0.0332659 0)
(-1.97992 0.0282472 0)
(-1.99012 0.028951 0)
(-2.00262 0.033716 0)
(-2.01833 0.0389676 0)
(-2.0357 0.041511 0)
(-2.05181 0.0401755 0)
(-2.06439 0.0363438 0)
(-2.07342 0.0327488 0)
(-2.08063 0.0310666 0)
(-2.0866 0.030793 0)
(-2.08937 0.030804 0)
(-0.463088 1.11774 0)
(-0.894847 1.01824 0)
(-1.25149 0.785963 0)
(-1.45 0.597473 0)
(-1.58305 0.469957 0)
(-1.67712 0.368801 0)
(-1.74439 0.295745 0)
(-1.79702 0.243856 0)
(-1.83906 0.201468 0)
(-1.87214 0.167698 0)
(-1.90135 0.144747 0)
(-1.93032 0.127936 0)
(-1.95765 0.111678 0)
(-1.98122 0.0963921 0)
(-2.00246 0.0848632 0)
(-2.02431 0.0764697 0)
(-2.04673 0.0670852 0)
(-2.06607 0.0544418 0)
(-2.07898 0.041457 0)
(-2.08639 0.0339388 0)
(-2.09318 0.0348903 0)
(-2.10411 0.0416925 0)
(-2.12045 0.048842 0)
(-2.13973 0.0517398 0)
(-2.15754 0.0488088 0)
(-2.17042 0.0422155 0)
(-2.1783 0.0363059 0)
(-2.18397 0.0338958 0)
(-2.189 0.0340217 0)
(-2.1915 0.0343695 0)
(-0.690397 2.09827 0)
(-1.22466 1.6755 0)
(-1.60181 1.07761 0)
(-1.72686 0.686894 0)
(-1.79921 0.54575 0)
(-1.85787 0.428983 0)
(-1.89371 0.344035 0)
(-1.92745 0.286053 0)
(-1.95928 0.231485 0)
(-1.98141 0.185624 0)
(-2.00051 0.161833 0)
(-2.02493 0.149098 0)
(-2.05075 0.132443 0)
(-2.07145 0.113104 0)
(-2.08875 0.0988994 0)
(-2.10886 0.0909014 0)
(-2.13261 0.0812076 0)
(-2.15336 0.064885 0)
(-2.16442 0.0462325 0)
(-2.16664 0.0352665 0)
(-2.16815 0.0375077 0)
(-2.17679 0.0484139 0)
(-2.19426 0.0591203 0)
(-2.21651 0.0630746 0)
(-2.23692 0.0582317 0)
(-2.2502 0.047877 0)
(-2.25618 0.0388054 0)
(-2.25942 0.035739 0)
(-2.26319 0.0368854 0)
(-2.26547 0.0377659 0)
(9.9959 0.138446 0)
(9.98225 0.275239 0)
(9.9581 0.412526 0)
(9.92453 0.552275 0)
(9.88242 0.696162 0)
(9.83216 0.845742 0)
(9.77398 1.00252 0)
(9.70814 1.16797 0)
(9.63491 1.34356 0)
(9.55457 1.53074 0)
(9.46738 1.73103 0)
(9.37362 1.94595 0)
(9.27354 2.17714 0)
(9.1674 2.42635 0)
(9.05546 2.69547 0)
(8.93793 2.98666 0)
(8.81501 3.30237 0)
(8.68682 3.64548 0)
(8.55346 4.0195 0)
(8.4149 4.42882 0)
(8.27108 4.87908 0)
(8.1219 5.37774 0)
(7.96728 5.93497 0)
(7.80751 6.56513 0)
(7.64378 7.28929 0)
(7.48109 8.14004 0)
(7.33268 9.17136 0)
(7.28863 10.4768 0)
(7.74697 12.2012 0)
(7.92907 14.92 0)
(9.99638 0.143406 0)
(9.98434 0.285094 0)
(9.96305 0.427255 0)
(9.93351 0.571885 0)
(9.89656 0.720678 0)
(9.85261 0.875191 0)
(9.80196 1.03693 0)
(9.74491 1.20738 0)
(9.68182 1.38798 0)
(9.61307 1.5802 0)
(9.53905 1.78551 0)
(9.46016 2.00545 0)
(9.37685 2.24163 0)
(9.2896 2.49577 0)
(9.19893 2.76975 0)
(9.10541 3.0657 0)
(9.0097 3.38604 0)
(8.91256 3.73362 0)
(8.81488 4.11189 0)
(8.71786 4.52511 0)
(8.6231 4.97869 0)
(8.53297 5.47968 0)
(8.45118 6.03738 0)
(8.38399 6.6644 0)
(8.34258 7.37795 0)
(8.34903 8.20144 0)
(8.44218 9.16501 0)
(8.67794 10.3019 0)
(9.32512 11.5569 0)
(9.81553 12.6453 0)
(9.99688 0.147843 0)
(9.98651 0.293906 0)
(9.96819 0.440406 0)
(9.94282 0.589356 0)
(9.9112 0.742452 0)
(9.87376 0.901246 0)
(9.83084 1.06723 0)
(9.78282 1.24187 0)
(9.73012 1.4266 0)
(9.67321 1.62284 0)
(9.6126 1.83203 0)
(9.54885 2.05566 0)
(9.48258 2.29529 0)
(9.41448 2.55257 0)
(9.34535 2.8293 0)
(9.27612 3.12748 0)
(9.20787 3.44939 0)
(9.14196 3.79766 0)
(9.08006 4.17541 0)
(9.0244 4.5864 0)
(8.97799 5.03523 0)
(8.9451 5.52758 0)
(8.93204 6.07042 0)
(8.94831 6.67216 0)
(9.00843 7.34222 0)
(9.13452 8.08926 0)
(9.35759 8.91514 0)
(9.68716 9.80874 0)
(10.253 10.7187 0)
(10.9408 11.4349 0)
(9.9974 0.151705 0)
(9.98873 0.301568 0)
(9.97346 0.451813 0)
(9.95238 0.604456 0)
(9.92622 0.761184 0)
(9.89543 0.923532 0)
(9.8604 1.09297 0)
(9.82155 1.27093 0)
(9.7794 1.4588 0)
(9.73449 1.65797 0)
(9.68744 1.8698 0)
(9.63894 2.09571 0)
(9.58978 2.33717 0)
(9.54086 2.59571 0)
(9.49322 2.87298 0)
(9.4481 3.17079 0)
(9.40698 3.49114 0)
(9.3717 3.8363 0)
(9.34454 4.20884 0)
(9.32849 4.61173 0)
(9.32747 5.04839 0)
(9.34678 5.52264 0)
(9.39367 6.03862 0)
(9.47805 6.60029 0)
(9.61312 7.21041 0)
(9.81572 7.86867 0)
(10.1086 8.56794 0)
(10.5005 9.29358 0)
(11.0581 10.0354 0)
(11.8515 10.6803 0)
(9.99792 0.154945 0)
(9.99101 0.307988 0)
(9.97884 0.461341 0)
(9.96211 0.617008 0)
(9.94149 0.776655 0)
(9.91744 0.941788 0)
(9.89038 1.11384 0)
(9.86079 1.2942 0)
(9.82925 1.4842 0)
(9.79637 1.68514 0)
(9.76288 1.89834 0)
(9.72958 2.12508 0)
(9.6974 2.3667 0)
(9.66741 2.62459 0)
(9.64087 2.9002 0)
(9.61926 3.19504 0)
(9.60435 3.51079 0)
(9.59834 3.84921 0)
(9.60391 4.21223 0)
(9.62444 4.60189 0)
(9.66426 5.0203 0)
(9.7289 5.46946 0)
(9.82543 5.95099 0)
(9.96281 6.46558 0)
(10.1521 7.01215 0)
(10.4064 7.58682 0)
(10.7429 8.18148 0)
(11.1734 8.78141 0)
(11.7208 9.37504 0)
(12.4741 9.88746 0)
(9.99845 0.157519 0)
(9.9933 0.313079 0)
(9.98427 0.468863 0)
(9.97193 0.626846 0)
(9.95689 0.788661 0)
(9.9396 0.955775 0)
(9.92052 1.12957 0)
(9.90019 1.31137 0)
(9.87921 1.50245 0)
(9.85828 1.70401 0)
(9.83819 1.91726 0)
(9.81986 2.14337 0)
(9.8043 2.38352 0)
(9.79274 2.63889 0)
(9.78657 2.91069 0)
(9.78744 3.20013 0)
(9.79734 3.50845 0)
(9.81861 3.83692 0)
(9.85413 4.18674 0)
(9.90738 4.55905 0)
(9.98266 4.95473 0)
(10.0852 5.37427 0)
(10.2213 5.8174 0)
(10.3985 6.28265 0)
(10.6257 6.76678 0)
(10.9125 7.264 0)
(11.2701 7.7651 0)
(11.7066 8.2545 0)
(12.2228 8.71551 0)
(12.8987 9.10661 0)
(9.99898 0.159388 0)
(9.9956 0.316765 0)
(9.9897 0.474266 0)
(9.98175 0.633823 0)
(9.97227 0.797023 0)
(9.96172 0.965281 0)
(9.95057 1.13992 0)
(9.93939 1.32219 0)
(9.92883 1.51327 0)
(9.91963 1.71428 0)
(9.91265 1.9263 0)
(9.90885 2.15034 0)
(9.90935 2.38741 0)
(9.91544 2.63848 0)
(9.92861 2.90447 0)
(9.9506 3.18628 0)
(9.98345 3.48472 0)
(10.0296 3.80051 0)
(10.0918 4.13422 0)
(10.1734 4.48613 0)
(10.2785 4.85616 0)
(10.4115 5.24359 0)
(10.5779 5.64686 0)
(10.7834 6.06315 0)
(11.0347 6.48796 0)
(11.3379 6.91462 0)
(11.6994 7.33377 0)
(12.1232 7.73197 0)
(12.6031 8.09466 0)
(13.2086 8.40132 0)
(9.99951 0.16052 0)
(9.99789 0.31898 0)
(9.9951 0.477454 0)
(9.9915 0.637813 0)
(9.98752 0.80159 0)
(9.9836 0.970136 0)
(9.98024 1.1447 0)
(9.97803 1.32646 0)
(9.97763 1.51648 0)
(9.97983 1.71578 0)
(9.98549 1.92529 0)
(9.99565 2.14588 0)
(10.0114 2.37836 0)
(10.0342 2.62347 0)
(10.0654 2.88186 0)
(10.1068 3.15409 0)
(10.1605 3.44057 0)
(10.2287 3.74154 0)
(10.3141 4.05698 0)
(10.4197 4.3865 0)
(10.5489 4.72926 0)
(10.7056 5.08372 0)
(10.8939 5.4475 0)
(11.1181 5.81708 0)
(11.3825 6.18755 0)
(11.6909 6.55234 0)
(12.0462 6.90319 0)
(12.4498 7.22977 0)
(12.8941 7.52093 0)
(13.4371 7.76535 0)
(10 0.160885 0)
(10.0001 0.319669 0)
(10.0004 0.478345 0)
(10.0011 0.638715 0)
(10.0025 0.802244 0)
(10.005 0.97021 0)
(10.0093 1.14378 0)
(10.0158 1.32404 0)
(10.0252 1.51195 0)
(10.0383 1.70841 0)
(10.056 1.9142 0)
(10.0794 2.13004 0)
(10.1095 2.35653 0)
(10.1477 2.5942 0)
(10.1955 2.84342 0)
(10.2545 3.10445 0)
(10.3266 3.37733 0)
(10.414 3.66189 0)
(10.519 3.95764 0)
(10.6441 4.26369 0)
(10.7923 4.57866 0)
(10.9665 4.90054 0)
(11.1697 5.22652 0)
(11.4049 5.55289 0)
(11.6746 5.87492 0)
(11.9807 6.18673 0)
(12.3241 6.48146 0)
(12.7045 6.75128 0)
(13.1142 6.98783 0)
(13.602 7.18427 0)
(10.0005 0.160463 0)
(10.0023 0.318789 0)
(10.0056 0.47688 0)
(10.0104 0.636455 0)
(10.017 0.798901 0)
(10.0259 0.965417 0)
(10.0374 1.13708 0)
(10.0522 1.31488 0)
(10.071 1.49966 0)
(10.0945 1.69219 0)
(10.1236 1.89313 0)
(10.1593 2.10301 0)
(10.2027 2.32227 0)
(10.255 2.5512 0)
(10.3177 2.78995 0)
(10.3923 3.03848 0)
(10.4804 3.29655 0)
(10.584 3.56365 0)
(10.7051 3.83894 0)
(10.8458 4.1212 0)
(11.0082 4.40873 0)
(11.1946 4.69927 0)
(11.407 4.98996 0)
(11.6473 5.2772 0)
(11.9166 5.5567 0)
(12.2157 5.82349 0)
(12.5441 6.07203 0)
(12.9004 6.29642 0)
(13.2776 6.49061 0)
(13.7175 6.65046 0)
(10.001 0.159237 0)
(10.0044 0.316311 0)
(10.0106 0.47302 0)
(10.0194 0.630988 0)
(10.0311 0.791517 0)
(10.0459 0.955719 0)
(10.0644 1.12458 0)
(10.0872 1.29898 0)
(10.1147 1.47966 0)
(10.1479 1.66726 0)
(10.1876 1.86229 0)
(10.2346 2.06514 0)
(10.2901 2.27606 0)
(10.3551 2.49517 0)
(10.431 2.72239 0)
(10.519 2.95747 0)
(10.6208 3.19992 0)
(10.7379 3.44899 0)
(10.8718 3.70361 0)
(11.0242 3.96235 0)
(11.1968 4.22339 0)
(11.391 4.48444 0)
(11.6082 4.74272 0)
(11.8491 4.99498 0)
(12.1142 5.2375 0)
(12.4033 5.46619 0)
(12.7151 5.6767 0)
(13.0479 5.86469 0)
(13.3954 6.02592 0)
(13.7942 6.15787 0)
(10.0015 0.157202 0)
(10.0065 0.312222 0)
(10.0154 0.466747 0)
(10.028 0.622296 0)
(10.0444 0.780082 0)
(10.065 0.941125 0)
(10.0901 1.10632 0)
(10.1202 1.27642 0)
(10.156 1.45209 0)
(10.1982 1.63382 0)
(10.2475 1.822 0)
(10.3048 2.01687 0)
(10.3711 2.21854 0)
(10.4473 2.42695 0)
(10.5346 2.64186 0)
(10.6342 2.86283 0)
(10.7472 3.08921 0)
(10.875 3.32008 0)
(11.0188 3.55425 0)
(11.1798 3.79021 0)
(11.3591 4.02612 0)
(11.5576 4.2598 0)
(11.7759 4.4887 0)
(12.0143 4.70998 0)
(12.2726 4.92053 0)
(12.5499 5.11705 0)
(12.8449 5.29625 0)
(13.1555 5.45495 0)
(13.4763 5.59023 0)
(13.8398 5.70059 0)
(10.0019 0.154354 0)
(10.0084 0.306521 0)
(10.0199 0.458062 0)
(10.0361 0.610392 0)
(10.0571 0.764625 0)
(10.083 0.921689 0)
(10.1142 1.08238 0)
(10.1512 1.24735 0)
(10.1946 1.41715 0)
(10.245 1.59217 0)
(10.303 1.77267 0)
(10.3695 1.95876 0)
(10.4452 2.15043 0)
(10.5311 2.34747 0)
(10.6282 2.54952 0)
(10.7372 2.75601 0)
(10.8594 2.96618 0)
(10.9955 3.17901 0)
(11.1465 3.39329 0)
(11.3133 3.60749 0)
(11.4964 3.81988 0)
(11.6963 4.02843 0)
(11.9132 4.23093 0)
(12.1468 4.42494 0)
(12.3966 4.60792 0)
(12.6616 4.7773 0)
(12.94 4.93058 0)
(13.23 5.0655 0)
(13.5269 5.18008 0)
(13.8599 5.27345 0)
(10.0024 0.150702 0)
(10.0102 0.29922 0)
(10.0241 0.446992 0)
(10.0438 0.595316 0)
(10.0689 0.745212 0)
(10.0997 0.897511 0)
(10.1366 1.05291 0)
(10.1799 1.21197 0)
(10.2302 1.37514 0)
(10.2879 1.54269 0)
(10.3537 1.71479 0)
(10.4282 1.89145 0)
(10.5122 2.07252 0)
(10.6064 2.25772 0)
(10.7114 2.44658 0)
(10.8282 2.63846 0)
(10.9574 2.83252 0)
(11.0997 3.02774 0)
(11.2556 3.22291 0)
(11.4258 3.41658 0)
(11.6104 3.60715 0)
(11.8095 3.79284 0)
(12.023 3.97173 0)
(12.2505 4.14181 0)
(12.4909 4.30103 0)
(12.7433 4.44743 0)
(13.0059 4.57915 0)
(13.2769 4.69458 0)
(13.5526 4.79241 0)
(13.8592 4.8722 0)
(10.0027 0.146256 0)
(10.0119 0.290346 0)
(10.0281 0.433578 0)
(10.0508 0.577136 0)
(10.0798 0.721939 0)
(10.1152 0.868727 0)
(10.1572 1.0181 0)
(10.2062 1.17054 0)
(10.2626 1.32638 0)
(10.3269 1.48581 0)
(10.3995 1.64891 0)
(10.481 1.8156 0)
(10.5719 1.98566 0)
(10.6729 2.15872 0)
(10.7845 2.33425 0)
(10.9072 2.51157 0)
(11.0417 2.68984 0)
(11.1882 2.86806 0)
(11.3472 3.04505 0)
(11.5188 3.21951 0)
(11.703 3.39001 0)
(11.8997 3.55499 0)
(12.1086 3.71284 0)
(12.3288 3.86193 0)
(12.5595 4.00066 0)
(12.7994 4.12751 0)
(13.0471 4.24115 0)
(13.3009 4.34045 0)
(13.5576 4.42455 0)
(13.8413 4.49328 0)
(10.0031 0.141035 0)
(10.0134 0.279936 0)
(10.0317 0.417882 0)
(10.0573 0.55594 0)
(10.0898 0.694933 0)
(10.1293 0.835509 0)
(10.1759 0.978184 0)
(10.23 1.12334 0)
(10.2919 1.27124 0)
(10.3618 1.42201 0)
(10.4403 1.57562 0)
(10.5276 1.73195 0)
(10.6244 1.8907 0)
(10.7309 2.05146 0)
(10.8475 2.21368 0)
(10.9748 2.37668 0)
(11.1129 2.53962 0)
(11.262 2.70155 0)
(11.4224 2.8614 0)
(11.5939 3.01801 0)
(11.7764 3.1701 0)
(11.9695 3.31638 0)
(12.1727 3.45551 0)
(12.3852 3.58619 0)
(12.6061 3.70717 0)
(12.8341 3.81733 0)
(13.0678 3.91568 0)
(13.3059 4.00147 0)
(13.5457 4.07415 0)
(13.8093 4.13373 0)
(10.0034 0.135064 0)
(10.0148 0.26804 0)