/*--------------------------------*- C++ -*----------------------------------*\
  =========                 |
  \\      /  F ield         | OpenFOAM: The Open Source CFD Toolbox
   \\    /   O peration     | Website:  https://openfoam.org
    \\  /    A nd           | Version:  7
     \\/     M anipulation  |
\*---------------------------------------------------------------------------*/
FoamFile
{
    version     2.0;
    format      ascii;
    class       surfaceVectorField;
    location    "4.9";
    object      Uf;
}
// * * * * * * * * * * * * * * * * * * * * * * * * * * * * * * * * * * * * * //

dimensions      [0 1 -1 0 0 0 0];

internalField   nonuniform List<vector> 
5457
(
(9.92088 0.0251096 0)
(9.97125 0.0387458 0)
(9.82401 0.0328269 0)
(9.92859 0.0485852 0)
(9.70961 0.0393121 0)
(9.85548 0.0587683 0)
(9.57544 0.0460117 0)
(9.7568 0.0705935 0)
(9.42138 0.0529491 0)
(9.63753 0.0830136 0)
(9.24754 0.0601664 0)
(9.49861 0.0959368 0)
(9.05362 0.0678111 0)
(9.3393 0.109613 0)
(8.83892 0.0760347 0)
(9.15874 0.124289 0)
(8.60252 0.0849704 0)
(8.95609 0.140168 0)
(8.34326 0.0947451 0)
(8.73038 0.157434 0)
(8.05984 0.105487 0)
(8.4804 0.17627 0)
(7.7508 0.117328 0)
(8.20477 0.196858 0)
(7.41456 0.130396 0)
(7.90195 0.219362 0)
(7.0495 0.144811 0)
(7.5703 0.243924 0)
(6.65403 0.160673 0)
(7.20819 0.270634 0)
(6.22672 0.178045 0)
(6.814 0.299502 0)
(5.76643 0.196929 0)
(6.38634 0.330415 0)
(5.27258 0.217234 0)
(5.92418 0.363085 0)
(4.74539 0.238736 0)
(5.42711 0.396977 0)
(4.18622 0.261033 0)
(4.89567 0.431238 0)
(3.59799 0.283489 0)
(4.33166 0.46462 0)
(2.98558 0.305203 0)
(3.73863 0.495426 0)
(2.35614 0.325069 0)
(3.1223 0.521513 0)
(1.71913 0.342548 0)
(2.4911 0.540558 0)
(1.08438 0.361881 0)
(1.85589 0.551674 0)
(0.451863 0.348691 0)
(1.24551 0.563021 0)
(-0.145822 0.102475 0)
(0.60895 0.54489 0)
(-0.423616 -0.207098 0)
(0.0946718 0.259381 0)
(-0.402155 -0.361267 0)
(-0.133652 -0.0205227 0)
(-0.119682 -0.393886 0)
(9.99641 0.0516725 0)
(9.99705 0.0405046 0)
(9.95879 0.0708617 0)
(9.97851 0.0674546 0)
(9.89824 0.087987 0)
(9.93377 0.0898702 0)
(9.81659 0.105985 0)
(9.86453 0.113555 0)
(9.71359 0.124922 0)
(9.77438 0.138515 0)
(9.58909 0.144854 0)
(9.66435 0.164647 0)
(9.44274 0.166091 0)
(9.53397 0.192332 0)
(9.2739 0.188968 0)
(9.3825 0.222031 0)
(9.08166 0.213784 0)
(9.20919 0.254149 0)
(8.8649 0.240816 0)
(9.01316 0.289065 0)
(8.6223 0.270338 0)
(8.79331 0.327154 0)
(8.35239 0.302608 0)
(8.54835 0.368787 0)
(8.05356 0.337858 0)
(8.27683 0.414318 0)
(7.72412 0.376264 0)
(7.97717 0.464048 0)
(7.36237 0.417904 0)
(7.64771 0.518191 0)
(6.96672 0.462709 0)
(7.28682 0.576808 0)
(6.53583 0.510388 0)
(6.89295 0.639728 0)
(6.06884 0.560334 0)
(6.46482 0.706429 0)
(5.5656 0.611522 0)
(6.0016 0.775911 0)
(5.02711 0.662386 0)
(5.50327 0.846525 0)
(4.4559 0.710709 0)
(4.9709 0.915807 0)
(3.85652 0.753541 0)
(4.4072 0.980308 0)
(3.23622 0.787197 0)
(3.81706 1.03546 0)
(2.60584 0.807502 0)
(3.20848 1.07549 0)
(1.98282 0.810468 0)
(2.59342 1.09315 0)
(1.40531 0.776901 0)
(1.99623 1.07709 0)
(0.929774 0.646409 0)
(1.41952 0.978417 0)
(0.439879 0.384352 0)
(0.93759 0.716806 0)
(0.0591845 -0.118601 0)
(0.443815 0.343538 0)
(0.174924 -0.335919 0)
(9.98903 0.059431 0)
(9.99481 0.0458775 0)
(9.95434 0.0894767 0)
(9.97368 0.0848544 0)
(9.89729 0.118032 0)
(9.92984 0.119174 0)
(9.82046 0.147899 0)
(9.86357 0.153977 0)
(9.72416 0.179422 0)
(9.77736 0.190409 0)
(9.60821 0.212776 0)
(9.67227 0.228638 0)
(9.47234 0.248393 0)
(9.5481 0.26913 0)
(9.31607 0.286775 0)
(9.40431 0.312497 0)
(9.13868 0.328398 0)
(9.24034 0.359326 0)
(8.93924 0.373722 0)
(9.05549 0.410175 0)
(8.71664 0.423206 0)
(8.84889 0.465599 0)
(8.4696 0.477296 0)
(8.61951 0.526153 0)
(8.19667 0.536398 0)
(8.36615 0.592372 0)
(7.89632 0.60084 0)
(8.08751 0.664736 0)
(7.56692 0.670808 0)
(7.78219 0.743616 0)
(7.20684 0.746253 0)
(7.44873 0.829186 0)
(6.81457 0.826779 0)
(7.08568 0.921315 0)
(6.38888 0.911479 0)
(6.69171 1.0194 0)
(5.92904 0.998754 0)
(6.26573 1.12217 0)
(5.43515 1.08609 0)
(5.80713 1.22742 0)
(4.90857 1.16982 0)
(5.31609 1.33174 0)
(4.35245 1.24489 0)
(4.794 1.43019 0)
(3.77262 1.30455 0)
(4.244 1.51588 0)
(3.17876 1.33984 0)
(3.67184 1.57943 0)
(2.58666 1.33812 0)
(3.08635 1.60775 0)
(2.01989 1.27298 0)
(2.50295 1.58159 0)
(1.48697 1.09542 0)
(1.92876 1.46426 0)
(0.958316 0.769186 0)
(1.38527 1.21042 0)
(0.479891 0.202473 0)
(0.829558 0.801059 0)
(0.433738 0.134105 0)
(9.98515 0.071614 0)
(9.99367 0.0531479 0)
(9.95039 0.11363 0)
(9.97087 0.102291 0)
(9.89436 0.154134 0)
(9.92691 0.147954 0)
(9.81882 0.195574 0)
(9.86185 0.193722 0)
(9.72442 0.238812 0)
(9.77746 0.241278 0)
(9.61112 0.284325 0)
(9.67467 0.291164 0)
(9.47874 0.332721 0)
(9.55343 0.343956 0)
(9.32694 0.384675 0)
(9.41335 0.400373 0)
(9.15523 0.440847 0)
(9.254 0.46114 0)
(8.96291 0.501884 0)
(9.07483 0.526962 0)
(8.74916 0.568428 0)
(8.87519 0.598536 0)
(8.51303 0.641111 0)
(8.65429 0.676562 0)
(8.25346 0.720529 0)
(8.41122 0.761719 0)
(7.96925 0.807187 0)
(8.14499 0.854634 0)
(7.65917 0.901434 0)
(7.85454 0.955816 0)
(7.32192 1.00334 0)
(7.53875 1.06556 0)
(6.95621 1.11257 0)
(7.19646 1.18384 0)
(6.56085 1.22813 0)
(6.82653 1.31007 0)
(6.1349 1.34816 0)
(6.4279 1.44291 0)
(5.67786 1.46959 0)
(5.99967 1.57989 0)
(5.19002 1.58776 0)
(5.54136 1.71707 0)
(4.67289 1.69602 0)
(5.05307 1.84853 0)
(4.12982 1.78514 0)
(4.53599 1.96583 0)
(3.56668 1.84252 0)
(3.99276 2.0573 0)
(2.99208 1.85073 0)
(3.42763 2.10714 0)
(2.41587 1.78249 0)
(2.84766 2.09449 0)
(1.84057 1.60047 0)
(2.25626 1.98875 0)
(1.25941 1.27845 0)
(1.66034 1.75306 0)
(0.666784 0.789562 0)
(1.02398 1.36779 0)
(0.523042 0.787178 0)
(9.98337 0.0844075 0)
(9.99316 0.0612915 0)
(9.94821 0.136837 0)
(9.96958 0.119927 0)
(9.89314 0.188032 0)
(9.92575 0.17624 0)
(9.81906 0.240169 0)
(9.86199 0.232698 0)
(9.72663 0.294468 0)
(9.77964 0.291088 0)
(9.6159 0.35166 0)
(9.6794 0.352274 0)
(9.48671 0.41247 0)
(9.56127 0.416978 0)
(9.33878 0.477676 0)
(9.42496 0.486009 0)
(9.1717 0.54805 0)
(9.27009 0.560204 0)
(8.98492 0.624353 0)
(9.0962 0.640386 0)
(8.77778 0.707342 0)
(8.90274 0.727366 0)
(8.54953 0.797761 0)
(8.68906 0.821954 0)
(8.29935 0.896322 0)
(8.45444 0.924938 0)
(8.02634 1.00365 0)
(8.19807 1.03705 0)
(7.72957 1.1202 0)
(7.91911 1.15891 0)
(7.40805 1.24616 0)
(7.61668 1.29092 0)
(7.06076 1.38126 0)
(7.28985 1.43314 0)
(6.68669 1.52458 0)
(6.93763 1.58509 0)
(6.28486 1.67418 0)
(6.55899 1.74549 0)
(5.85439 1.82678 0)
(6.15288 1.91187 0)
(5.39472 1.97724 0)
(5.71823 2.08015 0)
(4.90577 2.11804 0)
(5.25409 2.24408 0)
(4.38827 2.2386 0)
(4.75976 2.3946 0)
(3.84397 2.32454 0)
(4.23497 2.51919 0)
(3.27546 2.35695 0)
(3.67992 2.60123 0)
(2.68542 2.3106 0)
(3.09575 2.61971 0)
(2.07271 2.15502 0)
(2.48172 2.54733 0)
(1.4294 1.86742 0)
(1.83994 2.35374 0)
(0.742622 1.4196 0)
(1.13138 2.02455 0)
(0.543313 1.51453 0)
(9.98264 0.0974977 0)
(9.99299 0.0697928 0)
(9.94744 0.159775 0)
(9.96925 0.137583 0)
(9.89354 0.221348 0)
(9.92597 0.203927 0)
(9.82134 0.284092 0)
(9.86381 0.270688 0)
(9.73134 0.349348 0)
(9.78385 0.339583 0)
(9.62367 0.418019 0)
(9.68664 0.411697 0)
(9.49819 0.490938 0)
(9.57218 0.487903 0)
(9.35465 0.568974 0)
(9.44021 0.569104 0)
(9.19269 0.653003 0)
(9.29042 0.656233 0)
(9.01183 0.743896 0)
(9.12242 0.750213 0)
(8.81151 0.842514 0)
(8.93571 0.851955 0)
(8.59108 0.949706 0)
(8.72972 0.962364 0)
(8.34984 1.06628 0)
(8.50381 1.08232 0)
(8.08705 1.19296 0)
(8.25727 1.21264 0)
(7.80191 1.3303 0)
(7.98937 1.35404 0)
(7.49359 1.47859 0)
(7.69929 1.50702 0)
(7.16118 1.63768 0)
(7.38616 1.67176 0)
(6.80372 1.80674 0)
(7.04902 1.84791 0)
(6.42011 1.98396 0)
(6.68675 2.03435 0)
(6.00913 2.16613 0)
(6.29801 2.22882 0)
(5.56942 2.3481 0)
(5.8812 2.42747 0)
(5.09948 2.5222 0)
(5.43435 2.62425 0)
(4.59776 2.67756 0)
(4.95513 2.81028 0)
(4.06272 2.79949 0)
(4.44087 2.97322 0)
(3.49273 2.86911 0)
(3.88854 3.09662 0)
(2.88585 2.86293 0)
(3.29526 3.1599 0)
(2.23804 2.75395 0)
(2.65692 3.13792 0)
(1.54246 2.52106 0)
(1.97486 3.00322 0)
(0.793658 2.13137 0)
(1.20726 2.74064 0)
(0.556744 2.29187 0)
(9.9825 0.110626 0)
(9.99302 0.0783614 0)
(9.9477 0.182324 0)
(9.96954 0.155037 0)
(9.89522 0.253817 0)
(9.92722 0.230886 0)
(9.82524 0.326767 0)
(9.86697 0.307509 0)
(9.73813 0.402555 0)
(9.78977 0.386522 0)
(9.63403 0.482233 0)
(9.69605 0.469148 0)
(9.51285 0.566757 0)
(9.58579 0.556397 0)
(9.37437 0.657092 0)
(9.4588 0.64927 0)
(9.21828 0.754212 0)
(9.3148 0.748786 0)
(9.04413 0.859083 0)
(9.15346 0.855961 0)
(8.85144 0.97266 0)
(8.97433 0.971799 0)
(8.63962 1.09588 0)
(8.7769 1.09729 0)
(8.40802 1.22964 0)
(8.56057 1.23341 0)
(8.15594 1.37475 0)
(8.32469 1.38107 0)
(7.88264 1.53186 0)
(8.06852 1.54107 0)
(7.58726 1.70138 0)
(7.79125 1.71404 0)
(7.26889 1.88329 0)
(7.49195 1.9003 0)
(6.92642 2.07697 0)
(7.16954 2.09969 0)
(6.55851 2.28085 0)
(6.82266 2.31138 0)
(6.16347 2.49205 0)
(6.44959 2.53348 0)
(5.73914 2.70583 0)
(6.0481 2.76264 0)
(5.28275 2.91498 0)
(5.61526 2.99346 0)
(4.79085 3.10915 0)
(5.14726 3.21784 0)
(4.25932 3.2742 0)
(4.63941 3.42427 0)
(3.68342 3.39186 0)
(4.08609 3.59715 0)
(3.05808 3.4397 0)
(3.48135 3.71654 0)
(2.37776 3.39182 0)
(2.8184 3.75814 0)
(1.63793 3.22621 0)
(2.09918 3.69401 0)
(0.839142 2.90089 0)
(1.27894 3.50452 0)
(0.573369 3.11376 0)
(9.98273 0.123581 0)
(9.99316 0.0868174 0)
(9.94873 0.204309 0)
(9.97027 0.172093 0)
(9.89794 0.285252 0)
(9.92926 0.256975 0)
(9.83051 0.367965 0)
(9.87123 0.342988 0)
(9.74671 0.453851 0)
(9.79715 0.431678 0)
(9.64668 0.544077 0)
(9.70735 0.524351 0)
(9.53038 0.639707 0)
(9.6018 0.622135 0)
(9.39762 0.741799 0)
(9.48038 0.726125 0)
(9.24812 0.851413 0)
(9.34286 0.837424 0)
(9.08152 0.969605 0)
(9.18894 0.957131 0)
(8.89736 1.09742 0)
(9.01824 1.08634 0)
(8.69509 1.23588 0)
(8.83029 1.22613 0)
(8.47412 1.38598 0)
(8.62454 1.37757 0)
(8.23376 1.54862 0)
(8.40036 1.54168 0)
(7.97322 1.72459 0)
(8.15701 1.71937 0)
(7.69161 1.91444 0)
(7.89363 1.91142 0)
(7.38785 2.11834 0)
(7.60919 2.11835 0)
(7.06062 2.33595 0)
(7.30242 2.34028 0)
(6.70821 2.56611 0)
(6.97165 2.57675 0)
(6.32837 2.80647 0)
(6.61472 2.82642 0)
(5.91811 3.05303 0)
(6.22873 3.08669 0)
(5.47347 3.29952 0)
(5.80976 3.35316 0)
(4.98933 3.53665 0)
(5.35268 3.61897 0)
(4.45937 3.75141 0)
(4.85091 3.87399 0)
(3.87626 3.92647 0)
(4.29646 4.10394 0)
(3.23237 4.03987 0)
(3.68059 4.28969 0)
(2.52087 4.06501 0)
(2.99355 4.4068 0)
(1.7384 3.97617 0)
(2.23741 4.42462 0)
(0.889487 3.71881 0)
(1.36338 4.31634 0)
(0.598764 3.98495 0)
(9.98321 0.136203 0)
(9.99339 0.0950403 0)
(9.95032 0.225572 0)
(9.97131 0.188589 0)
(9.90151 0.315496 0)
(9.93193 0.282049 0)
(9.83694 0.407503 0)
(9.87643 0.37696 0)
(9.75684 0.503012 0)
(9.80579 0.47484 0)
(9.66135 0.603276 0)
(9.7203 0.57705 0)
(9.55046 0.709458 0)
(9.61995 0.684814 0)
(9.42403 0.8227 0)
(9.50465 0.799315 0)
(9.28183 0.944144 0)
(9.37422 0.921733 0)
(9.12355 1.07493 0)
(9.22843 1.05325 0)
(8.94879 1.21619 0)
(9.06695 1.19503 0)
(8.75705 1.36904 0)
(8.88937 1.34827 0)
(8.54776 1.53458 0)
(8.6952 1.51411 0)
(8.32024 1.71383 0)
(8.48381 1.6937 0)
(8.07369 1.90773 0)
(8.2545 1.88809 0)
(7.80713 2.11701 0)
(8.00635 2.09825 0)
(7.51932 2.34214 0)
(7.73825 2.32495 0)
(7.20868 2.58314 0)
(7.44873 2.56867 0)
(6.87311 2.83937 0)
(7.13585 2.82943 0)
(6.50979 3.10925 0)
(6.79702 3.10662 0)
(6.1149 3.38978 0)
(6.42869 3.39859 0)
(5.68335 3.676 0)
(6.02607 3.70228 0)
(5.20842 3.9602 0)
(5.58272 4.01247 0)
(4.6817 4.23098 0)
(5.09026 4.32095 0)
(4.09323 4.47231 0)
(4.53821 4.61538 0)
(3.43246 4.66255 0)
(3.91464 4.87787 0)
(2.69009 4.77317 0)
(3.20563 5.08359 0)
(1.86182 4.77243 0)
(2.41124 5.19799 0)
(0.954164 4.58976 0)
(1.47625 5.18434 0)
(0.63918 4.9195 0)
(9.98386 0.148369 0)
(9.99368 0.102944 0)
(9.95235 0.245971 0)
(9.9726 0.204394 0)
(9.90578 0.3444 0)
(9.9351 0.30597 0)
(9.84437 0.445199 0)
(9.88241 0.409271 0)
(9.76833 0.549811 0)
(9.81552 0.515817 0)
(9.6778 0.659559 0)
(9.73471 0.627011 0)
(9.57281 0.775687 0)
(9.63999 0.744158 0)
(9.45327 0.899417 0)
(9.53129 0.868516 0)
(9.31901 1.03197 0)
(9.40853 1.00134 0)
(9.16978 1.17455 0)
(9.27151 1.14387 0)
(9.00522 1.32839 0)
(9.11998 1.29738 0)
(8.82492 1.49471 0)
(8.9536 1.46312 0)
(8.62834 1.6747 0)
(8.77193 1.64236 0)
(8.41484 1.86953 0)
(8.57442 1.83635 0)
(8.1836 2.08032 0)
(8.36037 2.04634 0)
(7.9336 2.30804 0)
(8.12888 2.27348 0)
(7.66347 2.55349 0)
(7.8788 2.51886 0)
(7.37143 2.81716 0)
(7.60854 2.78338 0)
(7.05506 3.09909 0)
(7.31598 3.06766 0)
(6.71102 3.39863 0)
(6.9982 3.37194 0)
(6.33481 3.71405 0)
(6.65119 3.69575 0)
(5.92026 4.04207 0)
(6.26941 4.03764 0)
(5.45918 4.37704 0)
(5.84531 4.39449 0)
(4.94097 4.70987 0)
(5.36879 4.7607 0)
(4.35262 5.02652 0)
(4.82669 5.12672 0)
(3.67948 5.30618 0)
(4.20307 5.47705 0)
(2.90741 5.51817 0)
(3.47779 5.78746 0)
(2.02758 5.62301 0)
(2.64493 6.0195 0)
(1.04506 5.52946 0)
(1.63765 6.12393 0)
(0.704437 5.94307 0)
(9.98465 0.159981 0)
(9.99402 0.110463 0)
(9.95473 0.265382 0)
(9.97409 0.219401 0)
(9.91065 0.371821 0)
(9.93868 0.328613 0)
(9.85267 0.480885 0)
(9.88905 0.439777 0)
(9.781 0.594046 0)
(9.82618 0.554435 0)
(9.69581 0.712682 0)
(9.75038 0.674026 0)
(9.59716 0.838108 0)
(9.66166 0.799918 0)
(9.48502 0.971616 0)
(9.56003 0.933436 0)
(9.35927 1.11449 0)
(9.44543 1.07589 0)
(9.21972 1.26802 0)
(9.31776 1.22861 0)
(9.06612 1.43352 0)
(9.17683 1.39291 0)
(8.8981 1.61228 0)
(9.0224 1.57015 0)
(8.7152 1.80562 0)
(8.85409 1.76168 0)
(8.51684 2.01488 0)
(8.67144 1.96889 0)
(8.30225 2.24135 0)
(8.47384 2.19319 0)
(8.07039 2.48629 0)
(8.26043 2.43599 0)
(7.81988 2.75088 0)
(8.03011 2.69869 0)
(7.54883 3.03616 0)
(7.78129 2.98265 0)
(7.25464 3.34295 0)
(7.51182 3.28919 0)
(6.93368 3.67168 0)
(7.21868 3.61946 0)
(6.58094 4.02215 0)
(6.89763 3.97437 0)
(6.18948 4.39312 0)
(6.54274 4.35432 0)
(5.74979 4.78161 0)
(6.14572 4.7588 0)
(5.24912 5.18173 0)
(5.69508 5.18556 0)
(4.67094 5.58282 0)
(5.17507 5.62923 0)
(3.99488 5.96657 0)
(4.56506 6.07883 0)
(3.19838 6.30173 0)
(3.83628 6.51361 0)
(2.26172 6.54069 0)
(2.97076 6.89407 0)
(1.18057 6.5651 0)
(1.87907 7.15784 0)
(0.812765 7.09937 0)
(9.98553 0.170963 0)
(9.9944 0.117547 0)
(9.95738 0.283699 0)
(9.97572 0.23352 0)
(9.916 0.397636 0)
(9.94258 0.34987 0)
(9.86169 0.514413 0)
(9.89623 0.468353 0)
(9.79468 0.635536 0)
(9.83765 0.590541 0)
(9.71517 0.76243 0)
(9.76713 0.717911 0)
(9.62324 0.896468 0)
(9.68475 0.851877 0)
(9.51894 1.039 0)
(9.59055 0.993819 0)
(9.4022 1.19137 0)
(9.48455 1.14511 0)
(9.27293 1.35494 0)
(9.36673 1.30711 0)
(9.13093 1.53108 0)
(9.23698 1.48123 0)
(8.97595 1.72119 0)
(9.09514 1.66887 0)
(8.80762 1.92669 0)
(8.94095 1.8715 0)
(8.62545 2.14907 0)
(8.77407 2.09062 0)
(8.42875 2.38982 0)
(8.59399 2.3278 0)
(8.2166 2.6505 0)
(8.40001 2.58469 0)
(7.98768 2.93269 0)
(8.19112 2.86302 0)
(7.74017 3.23802 0)
(7.96593 3.16463 0)
(7.47148 3.56814 0)
(7.72242 3.49151 0)
(7.17799 3.92466 0)
(7.45774 3.8458 0)
(6.85456 4.3091 0)
(7.16784 4.22984 0)
(6.49391 4.72261 0)
(6.84688 4.64608 0)
(6.08578 5.1655 0)
(6.48653 5.09695 0)
(5.61571 5.63628 0)
(6.07475 5.58444 0)
(5.06364 6.1298 0)
(5.59408 6.10905 0)
(4.40224 6.63376 0)
(5.01964 6.66756 0)
(3.59613 7.1212 0)
(4.31257 7.24852 0)
(2.60429 7.5406 0)
(3.43565 7.82017 0)
(1.39426 7.74039 0)
(2.2564 8.315 0)
(1.00257 8.46496 0)
(9.9865 0.181253 0)
(9.9948 0.124156 0)
(9.96026 0.300832 0)
(9.97747 0.24668 0)
(9.92176 0.421734 0)
(9.94676 0.369647 0)
(9.87133 0.545651 0)
(9.90387 0.494886 0)
(9.80923 0.674124 0)
(9.84977 0.624005 0)
(9.73567 0.808615 0)
(9.78478 0.758507 0)
(9.6508 0.950544 0)
(9.70902 0.899847 0)
(9.55471 1.10131 0)
(9.62258 1.04945 0)
(9.44742 1.26231 0)
(9.52555 1.20872 0)
(9.3289 1.43495 0)
(9.41798 1.37908 0)
(9.19908 1.62066 0)
(9.29988 1.56197 0)
(9.05779 1.82093 0)
(9.17118 1.75887 0)
(8.90479 2.03729 0)
(9.03175 1.97131 0)
(8.73974 2.27133 0)
(8.8814 2.2009 0)
(8.56209 2.52477 0)
(8.71979 2.44937 0)
(8.37109 2.79942 0)
(8.5464 2.71856 0)
(8.16563 3.09727 0)
(8.36049 3.0105 0)
(7.94413 3.42051 0)
(8.16092 3.32748 0)
(7.7043 3.77159 0)
(7.94608 3.6721 0)
(7.44285 4.15336 0)
(7.71359 4.04744 0)
(7.15503 4.56907 0)
(7.46001 4.45717 0)
(6.83397 5.02244 0)
(7.18032 4.9058 0)
(6.46961 5.5176 0)
(6.86713 5.39884 0)
(6.04708 6.05869 0)
(6.50938 5.943 0)
(5.54413 6.64873 0)
(6.09012 6.54617 0)
(4.92713 7.28699 0)
(5.58319 7.21677 0)
(4.14503 7.96141 0)
(4.94255 7.96154 0)
(3.12175 8.63354 0)
(4.1093 8.77563 0)
(1.75621 9.12776 0)
(2.87838 9.62087 0)
(1.36467 10.1851 0)
(9.98754 0.190799 0)
(9.99523 0.13026 0)
(9.96332 0.316707 0)
(9.97932 0.258824 0)
(9.92785 0.444023 0)
(9.95115 0.387869 0)
(9.88148 0.57449 0)
(9.91188 0.519286 0)
(9.82448 0.70968 0)
(9.86243 0.654715 0)
(9.75712 0.851087 0)
(9.80317 0.795685 0)
(9.67958 1.00017 0)
(9.73425 0.943677 0)
(9.592 1.15835 0)
(9.65582 1.10014 0)
(9.4945 1.32707 0)
(9.56805 1.26653 0)
(9.38714 1.50778 0)
(9.47107 1.44428 0)
(9.26995 1.70196 0)
(9.36498 1.63486 0)
(9.14288 1.91114 0)
(9.24985 1.83981 0)
(9.00586 2.13694 0)
(9.1257 2.0607 0)
(8.85869 2.38108 0)
(8.99249 2.29924 0)
(8.70106 2.64541 0)
(8.85009 2.55724 0)
(8.53246 2.932 0)
(8.69826 2.83673 0)
(8.3521 3.24316 0)
(8.53655 3.13997 0)
(8.15883 3.58157 0)
(8.36429 3.46958 0)
(7.9509 3.95042 0)
(8.18041 3.82867 0)
(7.72578 4.35359 0)
(7.98333 4.22106 0)
(7.47969 4.79594 0)
(7.77067 4.65155 0)
(7.2071 5.28367 0)
(7.53895 5.12633 0)
(6.89961 5.82474 0)
(7.28294 5.65361 0)
(6.54425 6.42952 0)
(6.99463 6.24454 0)
(6.12029 7.11143 0)
(6.66132 6.91464 0)
(5.59298 7.88759 0)
(6.26242 7.68614 0)
(4.90082 8.77787 0)
(5.7575 8.59256 0)
(3.92679 9.80149 0)
(5.08725 9.6851 0)
(2.43313 10.8566 0)
(3.97938 11.0493 0)
(2.14613 12.5682 0)
(9.98862 0.199563 0)
(9.99567 0.135836 0)
(9.96652 0.331262 0)
(9.98124 0.269906 0)
(9.9342 0.46442 0)
(9.9557 0.404473 0)
(9.89202 0.600823 0)
(9.92016 0.541477 0)
(9.8403 0.742068 0)
(9.87552 0.682585 0)
(9.77932 0.889672 0)
(9.82216 0.829341 0)
(9.70931 1.04511 0)
(9.76027 0.983245 0)
(9.6305 1.20985 0)
(9.69009 1.14577 0)
(9.54306 1.38534 0)
(9.61184 1.31837 0)
(9.44716 1.57306 0)
(9.52576 1.50251 0)
(9.34294 1.77451 0)
(9.43205 1.69969 0)
(9.2305 1.99127 0)
(9.3309 1.91143 0)
(9.10992 2.22501 0)
(9.22251 2.13936 0)
(8.98123 2.47753 0)
(9.10701 2.38523 0)
(8.84434 2.75079 0)
(8.98453 2.65092 0)
(8.6991 3.04702 0)
(8.85512 2.93854 0)
(8.54512 3.36878 0)
(8.71875 3.2505 0)
(8.38183 3.71909 0)
(8.57525 3.58964 0)
(8.20825 4.10168 0)
(8.4243 3.95937 0)
(8.02294 4.52119 0)
(8.26531 4.36398 0)
(7.8237 4.98367 0)
(8.09738 4.80892 0)
(7.60725 5.49716 0)
(7.91915 5.30143 0)
(7.36856 6.07272 0)
(7.72864 5.85138 0)
(7.0997 6.72601 0)
(7.52297 6.47269 0)
(6.78752 7.48021 0)
(7.29792 7.18595 0)
(6.40847 8.37207 0)
(7.048 8.02355 0)
(5.91551 9.46603 0)
(6.76301 9.04197 0)
(5.19605 10.9084 0)
(6.46196 10.3569 0)
(3.88439 13.1788 0)
(6.18981 12.3036 0)
(5.25896 16.3727 0)
(0.183752 -0.110513 0)
(0.107245 -0.179974 0)
(0.360217 -0.0948217 0)
(0.262094 -0.168754 0)
(0.50655 -0.073459 0)
(0.416926 -0.136633 0)
(0.622615 -0.0546436 0)
(0.548285 -0.105813 0)
(0.713308 -0.0396939 0)
(0.65272 -0.0807293 0)
(0.783811 -0.0282356 0)
(0.734981 -0.0612747 0)
(0.838613 -0.0196243 0)
(0.800555 -0.0465039 0)
(0.881418 -0.0132633 0)
(0.853751 -0.0354659 0)
(0.915211 -0.00865284 0)
(0.897706 -0.0273375 0)
(0.942368 -0.00539126 0)
(0.934776 -0.0214507 0)
(0.964779 -0.0031622 0)
(0.966794 -0.0172834 0)
(0.983941 -0.00171397 0)
(0.995214 -0.014429 0)
(1.00102 -0.000837591 0)
(1.02118 -0.0125589 0)
(1.01689 -0.000348408 0)
(1.04555 -0.01139 0)
(1.0321 -7.37314e-05 0)
(1.06898 -0.0106598 0)
(1.04688 0.000151703 0)
(1.09183 -0.0101143 0)
(1.06111 0.000478747 0)
(1.11425 -0.0095104 0)
(1.07436 0.00102267 0)
(1.13609 -0.0086407 0)
(1.08594 0.00183367 0)
(1.15698 -0.00737674 0)
(1.09512 0.00287738 0)
(1.17638 -0.0057133 0)
(1.10135 0.00404502 0)
(1.19376 -0.00378025 0)
(1.10439 0.00518016 0)
(1.20873 -0.00180139 0)
(1.10452 0.00608928 0)
(1.22119 -7.77147e-05 0)
(1.1017 0.00679298 0)
(1.23118 0.00159204 0)
(1.09599 0.00748313 0)
(1.23868 0.00315543 0)
(1.08694 0.00816916 0)
(1.24348 0.0048747 0)
(1.07442 0.00870722 0)
(1.24513 0.00658731 0)
(1.05865 0.00877548 0)
(1.24295 0.00809831 0)
(1.04169 0.00758428 0)
(1.23782 0.00850693 0)
(1.2313 0.00617422 0)
(0.169233 -0.262614 0)
(0.0890954 -0.345727 0)
(0.33246 -0.231575 0)
(0.231026 -0.32485 0)
(0.470173 -0.185375 0)
(0.364545 -0.265218 0)
(0.582701 -0.144175 0)
(0.478424 -0.208401 0)
(0.674683 -0.11138 0)
(0.570351 -0.162606 0)
(0.750645 -0.0862203 0)
(0.644939 -0.127294 0)
(0.814336 -0.0672587 0)
(0.706686 -0.100551 0)
(0.868704 -0.053152 0)
(0.75898 -0.0805128 0)
(0.916035 -0.0427866 0)
(0.804208 -0.0656264 0)
(0.958098 -0.0352834 0)
(0.844111 -0.0546749 0)
(0.996272 -0.0299613 0)
(0.880031 -0.0467242 0)
(1.03164 -0.0262877 0)
(0.913019 -0.0410572 0)
(1.06503 -0.023829 0)
(0.943898 -0.0371077 0)
(1.09708 -0.0222093 0)
(0.973307 -0.0344036 0)
(1.12828 -0.0210806 0)
(1.00173 -0.0325235 0)
(1.1589 -0.0201096 0)
(1.02951 -0.0310689 0)
(1.18905 -0.0189872 0)
(1.05686 -0.0296561 0)
(1.21864 -0.0174681 0)
(1.08382 -0.0279431 0)
(1.24739 -0.0154303 0)
(1.11028 -0.0256937 0)
(1.27495 -0.0129212 0)
(1.13597 -0.0228557 0)
(1.301 -0.0101421 0)
(1.16054 -0.0195956 0)
(1.32533 -0.00736072 0)
(1.18373 -0.016227 0)
(1.34766 -0.00476889 0)
(1.20542 -0.0130066 0)
(1.36801 -0.00228622 0)
(1.22558 -0.00991011 0)
(1.38614 0.000363248 0)
(1.24444 -0.00685019 0)
(1.40159 0.00332785 0)
(1.26206 -0.00345141 0)
(1.4136 0.00619435 0)
(1.27823 0.000270268 0)
(1.42173 0.00805209 0)
(1.29248 0.00391903 0)
(1.42769 0.00773994 0)
(1.30405 0.00551949 0)
(1.31433 0.0045301 0)
(0.141936 -0.41457 0)
(0.0691043 -0.484744 0)
(0.273477 -0.365577 0)
(0.186139 -0.450643 0)
(0.381833 -0.294866 0)
(0.284896 -0.366392 0)
(0.469363 -0.232484 0)
(0.368563 -0.2882 0)
(0.54081 -0.183108 0)
(0.434514 -0.226203 0)
(0.600032 -0.145253 0)
(0.487903 -0.178764 0)
(0.650089 -0.116642 0)
(0.532072 -0.143029 0)
(0.693219 -0.095195 0)
(0.569502 -0.116248 0)
(0.731078 -0.0792324 0)
(0.601826 -0.0962534 0)
(0.764939 -0.0674586 0)
(0.630199 -0.0814207 0)
(0.795795 -0.05888 0)
(0.655526 -0.0705208 0)
(0.824427 -0.0527263 0)
(0.678528 -0.0626168 0)
(0.851449 -0.048379 0)
(0.699775 -0.056975 0)
(0.877345 -0.0453128 0)
(0.71972 -0.0529926 0)
(0.902484 -0.0430514 0)
(0.738726 -0.0501435 0)
(0.927131 -0.0411425 0)
(0.757084 -0.047936 0)
(0.951429 -0.0391617 0)
(0.775021 -0.045891 0)
(0.97537 -0.0367596 0)
(0.79268 -0.0435622 0)
(0.998794 -0.0337448 0)
(0.810078 -0.0406148 0)
(1.02144 -0.0301575 0)
(0.827081 -0.036937 0)
(1.04303 -0.0262611 0)
(0.843408 -0.0327118 0)
(1.06348 -0.0223941 0)
(0.858744 -0.0283513 0)
(1.08292 -0.0187147 0)
(0.87293 -0.0242595 0)
(1.10174 -0.015123 0)
(0.886183 -0.0205491 0)
(1.12022 -0.0113235 0)
(0.898966 -0.0170488 0)
(1.13862 -0.00703813 0)
(0.911697 -0.0133649 0)
(1.15686 -0.00260892 0)
(0.92466 -0.00932565 0)
(1.17434 0.000930717 0)
(0.937896 -0.00506125 0)
(1.18896 0.00253564 0)
(0.949731 -0.0018105 0)
(0.958668 -2.75944e-07 0)
(0.111724 -0.530449 0)
(0.0488907 -0.594171 0)
(0.206043 -0.461464 0)
(0.135349 -0.540841 0)
(0.279082 -0.369575 0)
(0.193359 -0.43459 0)
(0.336132 -0.29091 0)
(0.24334 -0.34021 0)
(0.381875 -0.229688 0)
(0.279008 -0.26692 0)
(0.419228 -0.183154 0)
(0.307076 -0.211229 0)
(0.450464 -0.148128 0)
(0.32925 -0.169535 0)
(0.477011 -0.121839 0)
(0.347185 -0.138243 0)
(0.499854 -0.102176 0)
(0.361756 -0.114733 0)
(0.51976 -0.0875609 0)
(0.373592 -0.097144 0)
(0.537337 -0.0767984 0)
(0.383233 -0.084076 0)
(0.553075 -0.0689679 0)
(0.39111 -0.0744676 0)
(0.567375 -0.0633349 0)
(0.397574 -0.0674884 0)
(0.58057 -0.0592845 0)
(0.402921 -0.0624647 0)
(0.592952 -0.0562695 0)
(0.407418 -0.0588221 0)
(0.604782 -0.0537712 0)
(0.411326 -0.0560318 0)
(0.616272 -0.0512907 0)
(0.414921 -0.053568 0)
(0.627536 -0.0483931 0)
(0.418472 -0.0509108 0)
(0.638544 -0.0448057 0)
(0.422162 -0.047627 0)
(0.649107 -0.0405267 0)
(0.426014 -0.0435062 0)
(0.65894 -0.0358513 0)
(0.429759 -0.0386833 0)
(0.667824 -0.0312425 0)
(0.432919 -0.0336184 0)
(0.67579 -0.0270703 0)
(0.434873 -0.0288713 0)
(0.683183 -0.0234096 0)
(0.435442 -0.0247279 0)
(0.690448 -0.0199848 0)
(0.434892 -0.0210583 0)
(0.6979 -0.0163899 0)
(0.433471 -0.0173805 0)
(0.705373 -0.0124543 0)
(0.432521 -0.0132571 0)
(0.712474 -0.00855604 0)
(0.431969 -0.00870898 0)
(0.717251 -0.00486801 0)
(0.429592 -0.00420638 0)
(0.424139 -0.00127399 0)
(0.0765469 -0.61228 0)
(0.0274395 -0.669144 0)
(0.129677 -0.521969 0)
(0.0781026 -0.59165 0)
(0.164268 -0.41286 0)
(0.0912256 -0.466888 0)
(0.18787 -0.32296 0)
(0.105845 -0.361728 0)
(0.204755 -0.254192 0)
(0.108418 -0.28195 0)
(0.216689 -0.202392 0)
(0.107989 -0.221601 0)
(0.225193 -0.163549 0)
(0.104542 -0.176751 0)
(0.230958 -0.134247 0)
(0.0991856 -0.143019 0)
(0.234432 -0.112141 0)
(0.092114 -0.117544 0)
(0.236017 -0.0955378 0)
(0.0837311 -0.0983963 0)
(0.236041 -0.0831587 0)
(0.0743765 -0.0840943 0)
(0.234776 -0.0740201 0)
(0.0642966 -0.0735153 0)
(0.23246 -0.0673419 0)
(0.0537063 -0.065786 0)
(0.22932 -0.0624836 0)
(0.0428037 -0.0602103 0)
(0.225599 -0.058888 0)
(0.0317812 -0.0562142 0)
(0.221577 -0.0560251 0)
(0.0208598 -0.0532793 0)
(0.217547 -0.0533567 0)
(0.0103118 -0.0508751 0)
(0.213753 -0.0503606 0)
(0.00043433 -0.0484357 0)
(0.210298 -0.0466343 0)
(-0.00854929 -0.0454262 0)
(0.207059 -0.0420425 0)
(-0.0165827 -0.0414921 0)
(0.203643 -0.0368054 0)
(-0.0239129 -0.036609 0)
(0.199456 -0.0314124 0)
(-0.0310617 -0.0311357 0)
(0.193925 -0.0263518 0)
(-0.0388308 -0.0256691 0)
(0.186773 -0.0218292 0)
(-0.0477376 -0.0206855 0)
(0.178107 -0.0176566 0)
(-0.0579241 -0.0162755 0)
(0.168542 -0.013454 0)
(-0.0694286 -0.0122261 0)
(0.158529 -0.00869998 0)
(-0.081009 -0.00798907 0)
(0.147009 -0.00334804 0)
(-0.093226 -0.00279137 0)
(0.135012 0.000188729 0)
(-0.104148 0.00181112 0)
(-0.115457 0.00233956 0)
(0.036036 -0.655221 0)
(0.00352985 -0.704439 0)
(0.0444428 -0.542994 0)
(0.0132509 -0.599689 0)
(0.0386629 -0.420638 0)
(-0.0200121 -0.461491 0)
(0.0274979 -0.323763 0)
(-0.0428387 -0.351549 0)
(0.0124885 -0.25057 0)
(-0.0749051 -0.26859 0)
(-0.00411368 -0.195935 0)
(-0.106439 -0.207172 0)
(-0.021935 -0.155489 0)
(-0.137793 -0.161628 0)
(-0.0405565 -0.125223 0)
(-0.168293 -0.12759 0)
(-0.0596879 -0.10248 0)
(-0.197931 -0.102067 0)
(-0.0790449 -0.085496 0)
(-0.226396 -0.0831068 0)
(-0.0984201 -0.0729144 0)
(-0.2535 -0.0691519 0)
(-0.11765 -0.0637132 0)
(-0.279195 -0.0590353 0)
(-0.136586 -0.0570943 0)
(-0.303487 -0.0518638 0)
(-0.155082 -0.0524166 0)
(-0.326411 -0.0469332 0)
(-0.172968 -0.0491383 0)
(-0.348015 -0.0436782 0)
(-0.190034 -0.0467436 0)
(-0.368304 -0.0416002 0)
(-0.206057 -0.0446784 0)
(-0.387211 -0.0401691 0)
(-0.220872 -0.0423612 0)
(-0.404631 -0.0387704 0)
(-0.234453 -0.0393029 0)
(-0.420528 -0.0367752 0)
(-0.246937 -0.0352795 0)
(-0.435019 -0.0337278 0)
(-0.258604 -0.0304346 0)
(-0.448411 -0.029524 0)
(-0.269857 -0.0252225 0)
(-0.461176 -0.0244636 0)
(-0.281135 -0.0201522 0)
(-0.473857 -0.0191404 0)
(-0.292833 -0.0154834 0)
(-0.486874 -0.0140733 0)
(-0.305149 -0.0110277 0)
(-0.500465 -0.00947824 0)
(-0.318587 -0.00632527 0)
(-0.514745 -0.00498543 0)
(-0.333436 -0.00140248 0)
(-0.528327 -0.000176391 0)
(-0.346641 0.00261341 0)
(-0.540905 0.00399185 0)
(-0.35508 0.00403746 0)
(-0.550253 0.00604363 0)
(-0.557064 0.00551931 0)
(-0.0117254 -0.652894 0)
(-0.0252705 -0.692954 0)
(-0.0489499 -0.520103 0)
(-0.0606291 -0.564091 0)
(-0.0951052 -0.390527 0)
(-0.139524 -0.418395 0)
(-0.143805 -0.292233 0)
(-0.201823 -0.30715 0)
(-0.192639 -0.220091 0)
(-0.268216 -0.225121 0)
(-0.239659 -0.167491 0)
(-0.33065 -0.166307 0)
(-0.284253 -0.128602 0)
(-0.388361 -0.123787 0)
(-0.326264 -0.0997792 0)
(-0.440883 -0.0927817 0)
(-0.36543 -0.0786291 0)
(-0.488435 -0.0703828 0)
(-0.40166 -0.0633186 0)
(-0.531369 -0.0544904 0)
(-0.435001 -0.0524146 0)
(-0.570062 -0.0434388 0)
(-0.465604 -0.0448452 0)
(-0.604972 -0.0359914 0)
(-0.493685 -0.0397922 0)
(-0.636559 -0.0312179 0)
(-0.519493 -0.0366151 0)
(-0.665275 -0.028407 0)
(-0.543253 -0.0347897 0)
(-0.691537 -0.0270248 0)
(-0.565118 -0.0338195 0)
(-0.71566 -0.0266371 0)
(-0.585171 -0.0331449 0)
(-0.737818 -0.0267707 0)
(-0.603504 -0.0321346 0)
(-0.758089 -0.0268096 0)
(-0.620322 -0.0302164 0)
(-0.776601 -0.0260622 0)
(-0.635959 -0.0270747 0)
(-0.793648 -0.0240029 0)
(-0.650815 -0.0227602 0)
(-0.809672 -0.0205025 0)
(-0.665339 -0.0176852 0)
(-0.825186 -0.0158524 0)
(-0.679844 -0.0124104 0)
(-0.840643 -0.010743 0)
(-0.69462 -0.00735723 0)
(-0.856308 -0.00572169 0)
(-0.70981 -0.00273399 0)
(-0.87137 -0.0010947 0)
(-0.724229 0.00144117 0)
(-0.885323 0.00278397 0)
(-0.736014 0.0049605 0)
(-0.897541 0.00602404 0)
(-0.745216 0.00709219 0)
(-0.907311 0.00871896 0)
(-0.752859 0.00726978 0)
(-0.915772 0.00987705 0)
(-0.920659 0.00901541 0)
(-0.0623998 -0.601793 0)
(-0.0614003 -0.631838 0)
(-0.149676 -0.456474 0)
(-0.145129 -0.480629 0)
(-0.237928 -0.327392 0)
(-0.271919 -0.335993 0)
(-0.323919 -0.231996 0)
(-0.374394 -0.228755 0)
(-0.404827 -0.164153 0)
(-0.472423 -0.153102 0)
(-0.478807 -0.116951 0)
(-0.561727 -0.10201 0)
(-0.544867 -0.08378 0)
(-0.641552 -0.0677293 0)
(-0.603285 -0.0602119 0)
(-0.711251 -0.0443797 0)
(-0.654736 -0.0437144 0)
(-0.770169 -0.0287602 0)
(-0.700113 -0.0325481 0)
(-0.820446 -0.0186486 0)
(-0.74031 -0.025316 0)
(-0.863733 -0.0124387 0)
(-0.77612 -0.0209649 0)
(-0.90147 -0.00902635 0)
(-0.808238 -0.0186909 0)
(-0.93481 -0.00760461 0)
(-0.837282 -0.0178834 0)
(-0.964698 -0.00755738 0)
(-0.863774 -0.0180884 0)
(-0.991911 -0.00845713 0)
(-0.888066 -0.0189073 0)
(-1.017 -0.0100129 0)
(-0.910334 -0.0198485 0)
(-1.04026 -0.0118914 0)
(-0.930704 -0.0202702 0)
(-1.06179 -0.0135203 0)
(-0.949436 -0.019521 0)
(-1.08166 -0.0141306 0)
(-0.966975 -0.0172057 0)
(-1.09999 -0.0130947 0)
(-0.98378 -0.013349 0)
(-1.11737 -0.0102973 0)
(-1.0004 -0.0084846 0)
(-1.13443 -0.00600122 0)
(-1.01707 -0.00349789 0)
(-1.15095 -0.00108777 0)
(-1.03299 0.000894721 0)
(-1.16662 0.00327288 0)
(-1.04678 0.00449021 0)
(-1.18085 0.00652033 0)
(-1.05844 0.00748639 0)
(-1.19304 0.00906201 0)
(-1.06865 0.0100032 0)
(-1.20383 0.0113992 0)
(-1.07753 0.0115049 0)
(-1.21355 0.0132794 0)
(-1.08535 0.0114499 0)
(-1.2216 0.0137997 0)
(-1.2258 0.0129403 0)
(-0.121932 -0.497748 0)