/*--------------------------------*- C++ -*----------------------------------*\
  =========                 |
  \\      /  F ield         | OpenFOAM: The Open Source CFD Toolbox
   \\    /   O peration     | Website:  https://openfoam.org
    \\  /    A nd           | Version:  7
     \\/     M anipulation  |
\*---------------------------------------------------------------------------*/
FoamFile
{
    version     2.0;
    format      ascii;
    class       volScalarField;
    location    "1.26";
    object      T;
}
// * * * * * * * * * * * * * * * * * * * * * * * * * * * * * * * * * * * * * //

dimensions      [0 0 0 1 0 0 0];

internalField   nonuniform List<scalar> 
12013
(
300.016
300.049
300.083
300.121
300.161
300.204
300.251
300.302
300.358
300.419
300.486
300.558
300.638
300.724
300.818
300.919
301.029
301.148
301.276
301.414
301.562
301.721
301.891
302.072
302.265
302.472
302.691
302.924
303.171
303.433
303.711
304.005
304.315
304.643
304.99
305.356
305.741
306.148
306.577
307.029
307.506
308.008
308.537
309.095
309.683
310.303
310.956
311.645
312.373
313.14
313.95
314.806
315.71
316.666
317.677
318.747
319.88
321.08
322.352
323.702
325.134
326.655
328.273
329.993
331.826
333.779
335.862
338.089
340.47
343.023
345.763
348.711
351.892
355.335
359.077
363.167
367.67
372.676
378.326
384.855
392.718
300.016
300.049
300.083
300.121
300.16
300.204
300.251
300.302
300.358
300.419
300.486
300.558
300.638
300.724
300.818
300.919
301.029
301.148
301.276
301.414
301.562
301.721
301.89
302.072
302.265
302.472
302.691
302.924
303.171
303.433
303.711
304.005
304.315
304.643
304.99
305.356
305.741
306.148
306.577
307.029
307.506
308.008
308.537
309.095
309.683
310.302
310.956
311.645
312.372
313.139
313.949
314.805
315.709
316.664
317.675
318.744
319.876
321.075
322.346
323.695
325.125
326.645
328.26
329.978
331.807
333.756
335.835
338.055
340.43
342.972
345.701
348.634
351.795
355.211
358.918
362.956
367.382
372.267
377.703
383.808
390.685
300.016
300.049
300.083
300.121
300.16
300.204
300.251
300.302
300.358
300.419
300.486
300.558
300.638
300.724
300.818
300.919
301.029
301.148
301.276
301.414
301.562
301.72
301.89
302.072
302.265
302.471
302.691
302.924
303.171
303.433
303.711
304.004
304.315
304.643
304.99
305.355
305.741
306.148
306.577
307.029
307.505
308.008
308.537
309.094
309.682
310.302
310.955
311.644
312.37
313.137
313.947
314.802
315.705
316.659
317.669
318.737
319.867
321.065
322.334
323.679
325.106
326.622
328.232
329.944
331.766
333.706
335.775
337.982
340.34
342.862
345.565
348.465
351.583
354.944
358.574
362.508
366.783
371.442
376.525
382.053
387.979
300.016
300.049
300.083
300.12
300.16
300.204
300.251
300.302
300.358
300.419
300.485
300.558
300.637
300.724
300.817
300.919
301.029
301.148
301.276
301.413
301.561
301.72
301.89
302.071
302.265
302.471
302.69
302.923
303.171
303.433
303.71
304.004
304.315
304.643
304.989
305.355
305.741
306.148
306.577
307.029
307.505
308.007
308.536
309.093
309.681
310.3
310.953
311.642
312.368
313.134
313.943
314.796
315.698
316.651
317.659
318.725
319.853
321.047
322.312
323.653
325.075
326.584
328.186
329.888
331.698
333.624
335.675
337.86
340.192
342.682
345.343
348.191
351.243
354.517
358.034
361.815
365.88
370.246
374.915
379.864
385.013
300.016
300.049
300.083
300.12
300.16
300.204
300.25
300.302
300.358
300.419
300.485
300.558
300.637
300.723
300.817
300.919
301.028
301.147
301.275
301.413
301.561
301.72
301.889
302.071
302.264
302.47
302.69
302.923
303.17
303.432
303.71
304.004
304.314
304.642
304.989
305.355
305.74
306.147
306.576
307.028
307.504
308.006
308.535
309.092
309.679
310.298
310.95
311.638
312.364
313.129
313.936
314.789
315.689
316.639
317.644
318.707
319.831
321.02
322.28
323.614
325.027
326.526
328.117
329.805
331.598
333.503
335.529
337.684
339.978
342.422
345.026
347.802
350.764
353.924
357.293
360.884
364.7
368.742
372.992
377.411
381.929
300.016
300.049
300.083
300.12
300.16
300.203
300.25
300.301
300.357
300.418
300.485
300.557
300.637
300.723
300.816
300.918
301.028
301.147
301.275
301.412
301.56
301.719
301.889
302.07
302.263
302.47
302.689
302.922
303.169
303.431
303.709
304.003
304.313
304.642
304.988
305.354
305.739
306.146
306.575
307.027
307.503
308.005
308.533
309.09
309.677
310.295
310.947
311.633
312.358
313.121
313.927
314.777
315.675
316.622
317.624
318.682
319.8
320.983
322.234
323.559
324.962
326.447
328.022
329.691
331.461
333.338
335.33
337.445
339.69
342.074
344.604
347.291
350.141
353.162
356.359
359.734
363.283
366.995
370.845
374.795
378.789
300.016
300.049
300.083
300.12
300.16
300.203
300.25
300.301
300.357
300.418
300.484
300.557
300.636
300.722
300.816
300.917
301.027
301.146
301.274
301.411
301.559
301.718
301.888
302.069
302.262
302.469
302.688
302.921
303.168
303.43
303.708
304.002
304.312
304.64
304.987
305.353
305.738
306.145
306.574
307.025
307.501
308.002
308.531
309.087
309.673
310.29
310.941
311.626
312.349
313.111
313.914
314.761
315.655
316.599
317.595
318.647
319.758
320.932
322.174
323.486
324.874
326.342
327.896
329.54
331.281
333.123
335.073
337.137
339.321
341.632
344.074
346.654
349.374
352.239
355.246
358.393
361.67
365.06
368.54
372.076
375.626
300.016
300.049
300.083
300.12
300.16
300.203
300.25
300.301
300.357
300.417
300.484
300.556
300.635
300.722
300.815
300.916
301.026
301.145
301.273
301.41
301.558
301.717
301.886
302.068
302.261
302.467
302.686
302.919
303.167
303.429
303.706
304
304.311
304.639
304.985
305.351
305.736
306.143
306.571
307.023
307.498
307.999
308.527
309.082
309.668
310.284
310.933
311.617
312.337
313.096
313.896
314.74
315.629
316.567
317.557
318.601
319.703
320.867
322.095
323.392
324.761
326.208
327.736
329.349
331.053
332.853
334.752
336.755
338.868
341.093
343.433
345.892
348.47
351.165
353.974
356.889
359.899
362.986
366.128
369.298
372.464
300.016
300.048
300.083
300.12
300.16
300.203
300.249
300.3
300.356
300.417
300.483
300.556
300.635
300.721
300.814
300.915
301.025
301.143
301.271
301.409
301.557
301.715
301.885
302.066
302.259
302.465
302.684
302.917
303.165
303.427
303.704
303.998
304.308
304.636
304.983
305.348
305.734
306.14
306.568
307.019
307.494
307.995
308.521
309.076
309.66
310.275
310.922
311.603
312.321
313.077
313.873
314.712
315.595
316.527
317.508
318.542
319.633
320.782
321.994
323.272
324.619
326.039
327.536
329.113
330.774
332.523
334.362
336.296
338.326
340.455
342.684
345.012
347.438
349.958
352.565
355.252
358.005
360.81
363.646
366.491
369.323
300.016
300.048
300.083
300.12
300.159
300.202
300.249
300.3
300.355
300.416
300.482
300.555
300.633
300.719
300.813
300.914
301.023
301.142
301.269
301.407
301.555
301.713
301.882
302.063
302.257
302.463
302.682
302.915
303.162
303.424
303.701
303.995
304.305
304.633
304.98
305.345
305.73
306.136
306.564
307.014
307.489
307.988
308.514
309.067
309.649
310.262
310.907
311.586
312.3
313.051
313.842
314.675
315.551
316.474
317.445
318.468
319.544
320.677
321.869
323.124
324.445
325.833
327.294
328.828
330.439
332.13
333.902
335.757
337.697
339.722
341.831
344.021
346.29
348.633
351.043
353.509
356.021
358.564
361.123
363.68
366.216
300.016
300.048
300.083
300.119
300.159
300.202
300.248
300.299
300.354
300.415
300.481
300.553
300.632
300.718
300.811
300.912
301.021
301.14
301.267
301.405
301.552
301.71
301.88
302.061
302.254
302.46
302.679
302.911
303.158
303.42
303.698
303.991
304.301
304.629
304.975
305.34
305.725
306.13
306.557
307.007
307.481
307.979
308.503
309.055
309.635
310.246
310.887
311.562
312.272
313.018
313.803
314.628
315.496
316.408
317.367
318.375
319.434
320.547
321.717
322.945
324.234
325.587
327.005
328.49
330.046
331.672
333.37
335.14
336.983
338.897
340.881
342.931
345.043
347.211
349.428
351.685
353.971
356.275
358.584
360.884
363.159
300.016
300.048
300.082
300.119
300.158
300.201
300.247
300.298
300.353
300.414
300.48
300.552
300.63
300.716
300.809
300.91
301.019
301.137
301.264
301.402
301.549
301.707
301.876
302.057
302.25
302.456
302.674
302.907
303.154
303.415
303.693
303.986
304.296
304.623
304.969
305.333
305.718
306.123
306.549
306.998
307.47
307.967
308.489
309.039
309.616
310.223
310.861
311.532
312.236
312.976
313.753
314.569
315.426
316.326
317.27
318.261
319.301
320.391
321.534
322.731
323.984
325.296
326.667
328.099
329.592
331.148
332.766
334.447
336.188
337.988
339.845
341.754
343.71
345.709
347.743
349.803
351.881
353.967
356.05
358.119
360.163
300.016
300.048
300.082
300.118
300.158
300.2
300.247
300.297
300.352
300.412
300.478
300.55
300.628
300.714
300.806
300.907
301.016
301.134
301.261
301.398
301.545
301.703
301.872
302.052
302.245
302.45
302.669
302.901
303.148
303.409
303.686
303.979
304.289
304.616
304.961
305.325
305.708
306.112
306.537
306.985
307.456
307.951
308.471
309.017
309.592
310.195
310.828
311.493
312.19
312.922
313.69
314.496
315.34
316.225
317.152
318.124
319.14
320.204
321.317
322.479
323.693
324.959
326.279
327.652
329.079
330.56
332.095
333.681
335.318
337.003
338.733
340.503
342.309
344.146
346.006
347.884
349.77
351.658
353.537
355.4
357.238
300.016
300.048
300.082
300.118
300.157
300.199
300.245
300.296
300.351
300.411
300.476
300.548
300.626
300.711
300.803
300.904
301.012
301.13
301.257
301.393
301.54
301.698
301.866
302.046
302.239
302.444
302.662
302.894
303.14
303.401
303.678
303.97
304.279
304.606
304.95
305.313
305.696
306.098
306.522
306.968
307.437
307.929
308.446
308.99
309.56
310.158
310.785
311.443
312.133
312.856
313.613
314.405
315.235
316.103
317.011
317.96
318.951
319.985
321.064
322.188
323.358
324.575
325.839
327.15
328.507
329.91
331.358
332.85
334.382
335.952
337.557
339.192
340.855
342.538
344.237
345.945
347.656
349.363
351.06
352.738
354.393
300.016
300.047
300.081
300.117
300.156
300.198
300.244
300.294
300.349
300.408
300.474
300.545
300.623
300.708
300.8
300.9
301.008
301.125
301.252
301.388
301.534
301.691
301.859
302.039
302.231
302.436
302.654
302.885
303.131
303.391
303.667
303.959
304.267
304.593
304.936
305.298
305.679
306.08
306.502
306.946
307.412
307.901
308.415
308.954
309.519
310.111
310.732
311.381
312.062
312.773
313.518
314.296
315.109
315.958
316.843
317.767
318.729
319.731
320.773
321.855
322.979
324.143
325.348
326.594
327.879
329.202
330.563
331.958
333.386
334.844
336.328
337.835
339.361
340.901
342.449
344.002
345.553
347.097
348.629
350.142
351.633
300.015
300.047
300.081
300.116
300.155
300.197
300.243
300.292
300.347
300.406
300.471
300.542
300.619
300.704
300.795
300.895
301.003
301.119
301.245
301.381
301.527
301.684
301.851
302.03
302.222
302.426
302.643
302.874
303.119
303.379
303.653
303.944
304.252
304.576
304.918
305.278
305.657
306.057
306.476
306.917
307.38
307.865
308.374
308.908
309.467
310.052
310.665
311.305
311.974
312.673
313.403
314.165
314.959
315.786
316.647
317.543
318.474
319.44
320.442
321.48
322.554
323.663
324.807
325.986
327.197
328.44
329.713
331.014
332.341
333.69
335.058
336.443
337.841
339.247
340.657
342.067
343.473
344.87
346.253
347.619
348.963
300.015
300.047
300.08
300.116
300.154
300.195
300.241
300.29
300.344
300.403
300.467
300.538
300.615
300.699
300.79
300.889
300.996
301.113
301.238
301.373
301.518
301.674
301.841
302.02
302.21
302.414
302.63
302.86
303.104
303.362
303.636
303.926
304.232
304.554
304.895
305.253
305.63
306.026
306.443
306.88
307.339
307.82
308.323
308.851
309.402
309.979
310.582
311.211
311.868
312.553
313.266
314.009
314.782
315.585
316.419
317.285
318.182
319.11
320.07
321.061
322.083
323.136
324.218
325.328
326.466
327.629
328.816
330.025
331.253
332.498
333.758
335.028
336.305
337.588
338.871
340.151
341.425
342.689
343.939
345.172
346.385
300.015
300.046
300.079
300.114
300.152
300.194
300.238
300.287
300.341
300.399
300.463
300.533
300.61
300.693
300.784
300.882
300.989
301.104
301.229
301.363
301.508
301.663
301.829
302.006
302.196
302.398
302.613
302.842
303.085
303.342
303.615
303.902
304.206
304.527
304.865
305.221
305.595
305.988
306.401
306.834
307.287
307.762
308.26
308.78
309.323
309.89
310.482
311.098
311.741
312.409
313.104
313.826
314.576
315.353
316.158
316.991
317.852
318.74
319.656
320.599
321.568
322.563
323.582
324.625
325.689
326.774
327.877
328.997
330.132
331.278
332.434
333.597
334.764
335.933
337.099
338.261
339.416
340.559
341.69
342.804
343.9
300.015
300.046
300.078
300.113
300.151
300.191
300.236
300.284
300.337
300.395
300.459
300.528
300.604
300.686
300.776
300.874
300.98
301.094
301.218
301.351
301.495
301.649
301.814
301.99
302.179
302.379
302.593
302.82
303.062
303.317
303.587
303.873
304.175
304.493
304.828
305.18
305.551
305.94
306.348
306.775
307.223
307.691
308.181
308.692
309.225
309.781
310.36
310.963
311.589
312.239
312.914
313.614
314.338
315.087
315.861
316.659
317.482
318.329
319.2
320.093
321.009
321.945
322.902
323.877
324.87
325.879
326.902
327.937
328.983
330.036
331.096
332.159
333.224
334.288
335.348
336.403
337.449
338.484
339.507
340.515
341.506
300.015
300.045
300.077
300.112
300.149
300.189
300.233
300.281
300.333
300.39
300.453
300.522
300.597
300.678
300.767
300.864
300.969
301.082
301.205
301.337
301.479
301.632
301.795
301.97
302.157
302.356
302.568
302.794
303.033
303.286
303.554
303.837
304.136
304.45
304.782
305.13
305.496
305.88
306.282
306.703
307.144
307.604
308.085
308.586
309.107
309.65
310.215
310.801
311.41
312.04
312.693
313.368
314.065
314.784
315.525
316.288
317.072
317.876
318.7
319.544
320.405
321.284
322.179
323.089
324.013
324.948
325.894
326.849
327.811
328.777
329.747
330.719
331.689
332.658
333.621
334.578
335.526
336.464
337.39
338.301
339.198
300.015
300.044
300.076
300.11
300.146
300.186
300.229
300.276
300.328
300.384
300.446
300.514
300.588
300.669
300.757
300.852
300.956
301.068
301.189
301.32
301.461
301.612
301.773
301.947
302.131
302.328
302.538
302.761
302.997
303.248
303.513
303.792
304.087
304.398
304.725
305.068
305.428
305.806
306.202
306.615
307.047
307.498
307.968
308.457
308.966
309.495
310.043
310.612
311.2
311.809
312.438
313.087
313.755
314.443
315.15
315.875
316.619
317.38
318.157
318.951
319.759
320.581
321.416
322.262
323.119
323.985
324.857
325.736
326.619
327.505
328.392
329.279
330.163
331.043
331.919
332.787
333.646
334.496
335.334
336.159
336.97
300.014
300.044
300.075
300.108
300.144
300.183
300.225
300.271
300.322
300.378
300.439
300.505
300.578
300.658
300.744
300.838
300.941
301.051
301.171
301.3
301.438
301.587
301.747
301.918
302.1
302.295
302.502
302.721
302.954
303.201
303.462
303.738
304.028
304.333
304.655
304.992
305.346
305.716
306.103
306.508
306.93
307.37
307.828
308.304
308.798
309.31
309.841
310.39
310.957
311.543
312.146
312.767
313.405
314.06
314.732
315.419
316.122
316.839
317.57
318.314
319.069
319.836
320.612
321.398
322.19
322.989
323.793
324.6
325.41
326.221
327.031
327.839
328.644
329.444
330.239
331.026
331.805
332.575
333.334
334.081
334.815
300.014
300.043
300.073
300.105
300.141
300.179
300.22
300.266
300.315
300.37
300.43
300.495
300.567
300.645
300.73
300.822
300.923
301.031
301.149
301.276
301.412
301.559
301.716
301.884
302.063
302.254
302.458
302.674
302.903
303.145
303.401
303.671
303.956
304.255
304.57
304.9
305.246
305.607
305.985
306.379
306.79
307.217
307.661
308.122
308.6
309.094
309.605
310.133
310.677
311.237
311.814
312.405
313.012
313.633
314.268
314.917
315.579
316.252
316.936
317.631
318.336
319.048
319.768
320.495
321.226
321.962
322.701
323.441
324.182
324.923
325.662
326.398
327.13
327.857
328.578
329.292
329.998
330.695
331.381
332.057
332.721
300.014
300.041
300.071
300.103
300.137
300.174
300.215
300.259
300.308
300.361
300.419
300.483
300.553
300.63
300.713
300.803
300.902
301.008
301.123
301.247
301.381
301.524
301.678
301.843
302.019
302.206
302.405
302.616
302.84
303.077
303.328
303.592
303.87
304.162
304.468
304.79
305.126
305.477
305.844
306.226
306.623
307.036
307.465
307.909
308.368
308.843
309.333
309.838
310.357
310.89
311.438
311.999
312.573
313.159
313.758
314.367
314.987
315.617
316.255
316.902
317.556
318.216
318.882
319.552
320.225
320.901
321.578
322.256
322.933
323.609
324.282
324.951
325.616
326.276
326.929
327.576
328.215
328.845
329.466
330.077
330.677
300.013
300.04
300.069
300.1
300.133
300.169
300.208
300.251
300.299
300.351
300.407
300.47
300.538
300.612
300.693
300.781
300.877
300.981
301.093
301.214
301.345
301.484
301.634
301.795
301.966
302.148
302.342
302.548
302.766
302.997
303.24
303.497
303.767
304.05
304.347
304.659
304.984
305.323
305.677
306.045
306.428
306.825
307.236
307.661
308.1
308.553
309.02
309.5
309.993
310.498
311.016
311.545
312.085
312.636
313.196
313.766
314.344
314.931
315.524
316.123
316.728
317.337
317.951
318.566
319.184
319.803
320.423
321.041
321.658
322.273
322.885
323.492
324.095
324.693
325.284
325.869
326.446
327.015
327.576
328.127
328.669
300.013
300.039
300.067
300.096
300.128
300.163
300.201
300.243
300.289
300.339
300.394
300.454
300.52
300.592
300.671
300.756
300.849
300.95
301.058
301.176
301.302
301.438
301.583
301.739
301.905
302.081
302.269
302.468
302.679
302.902
303.137
303.385
303.646
303.919
304.205
304.504
304.817
305.143
305.482
305.834
306.2
306.579
306.971
307.375
307.793
308.222
308.664
309.117
309.582
310.058
310.544
311.04
311.545
312.059
312.582
313.111
313.648
314.191
314.739
315.292
315.849
316.409
316.971
317.535
318.1
318.665
319.229
319.791
320.352
320.91
321.464
322.014
322.559
323.098
323.632
324.159
324.679
325.192
325.696
326.192
326.68
300.012
300.037
300.064
300.092
300.123
300.157
300.193
300.233
300.277
300.325
300.378
300.436
300.5
300.569
300.645
300.727
300.817
300.914
301.018
301.131
301.253
301.384
301.524
301.673
301.833
302.003
302.184
302.375
302.578
302.792
303.018
303.255
303.504
303.766
304.039
304.325
304.623
304.933
305.256
305.591
305.938
306.296
306.667
307.049
307.442
307.847
308.262
308.687
309.122
309.566
310.019
310.481
310.95
311.427
311.911
312.4
312.895
313.394
313.898
314.405
314.915
315.426
315.939
316.453
316.966
317.479
317.991
318.5
319.007
319.511
320.011
320.506
320.997
321.482
321.962
322.435
322.902
323.362
323.814
324.259
324.696
300.012
300.035
300.061
300.088
300.117
300.149
300.184
300.222
300.264
300.31
300.361
300.416
300.477
300.543
300.615
300.694
300.78
300.872
300.973
301.081
301.197
301.322
301.456
301.599
301.751
301.913
302.085
302.268
302.461
302.665
302.879
303.105
303.341
303.589
303.848
304.119
304.401
304.693
304.998
305.313
305.639
305.976
306.323
306.68
307.048
307.425
307.811
308.206
308.61
309.021
309.441
309.867
310.299
310.738
311.181
311.63
312.083
312.539
312.998
313.459
313.923
314.387
314.852
315.316
315.78
316.243
316.704
317.162
317.618
318.07
318.518
318.962
319.401
319.835
320.264
320.686
321.103
321.513
321.916
322.313
322.702
300.011
300.033
300.057
300.083
300.111
300.141
300.174
300.21
300.25
300.293
300.341
300.394
300.451
300.514
300.583
300.657
300.738
300.826
300.921
301.024
301.134
301.252
301.378
301.514
301.658
301.811
301.974
302.146
302.328
302.52
302.722
302.934
303.156
303.389
303.632
303.885
304.148
304.422
304.706
304.999
305.302
305.615
305.937
306.268
306.608
306.956
307.312
307.675
308.046
308.423
308.807
309.196
309.591
309.99
310.394
310.801
311.211
311.624
312.038
312.455
312.872
313.289
313.707
314.124
314.539
314.953
315.365
315.774
316.18
316.582
316.981
317.375
317.765
318.15
318.53
318.904
319.273
319.636
319.993
320.344
320.688
300.01
300.031
300.054
300.078
300.104
300.132
300.163
300.197
300.234
300.275
300.32
300.369
300.423
300.482
300.546
300.616
300.692
300.775
300.864
300.96
301.063
301.174
301.292
301.419
301.553
301.696
301.848
302.009
302.179
302.357
302.545
302.742
302.949
303.164
303.389
303.624
303.867
304.119
304.381
304.651
304.929
305.216
305.511
305.814
306.124
306.441
306.765
307.095
307.431
307.773
308.12
308.471
308.827
309.186
309.549
309.914
310.282
310.651
311.021
311.392
311.764
312.135
312.506
312.875
313.243
313.609
313.973
314.334
314.692
315.047
315.398
315.744
316.087
316.425
316.758
317.087
317.41
317.728
318.041
318.348
318.649
300.009
300.029
300.05
300.072
300.096
300.122
300.151
300.182
300.217
300.255
300.296
300.342
300.392
300.447
300.506
300.571
300.642
300.718
300.801
300.889
300.985
301.087
301.197
301.313
301.438
301.57
301.71
301.858
302.014
302.178
302.35
302.531
302.72
302.917
303.122
303.336
303.557
303.787
304.024
304.269
304.521
304.781
305.047
305.32
305.599
305.884
306.174
306.47
306.77
307.075
307.385
307.697
308.013
308.332
308.653
308.976
309.3
309.626
309.952
310.279
310.605
310.93
311.255
311.578
311.9
312.219
312.536
312.851
313.162
313.47
313.775
314.076
314.373
314.666
314.955
315.24
315.52
315.795
316.065
316.331
316.591
300.009
300.027
300.045
300.066
300.088
300.112
300.138
300.167
300.198
300.233
300.271
300.313
300.359
300.409
300.463
300.523
300.587
300.657
300.732
300.813
300.9
300.994
301.093
301.199
301.313
301.432
301.559
301.693
301.834
301.983
302.138
302.301
302.472
302.649
302.833
303.025
303.224
303.429
303.641
303.859
304.083
304.314
304.55
304.792
305.039
305.29
305.546
305.807
306.071
306.339
306.609
306.883
307.159
307.437
307.716
307.997
308.279
308.561
308.843
309.125
309.407
309.688
309.967
310.245
310.522
310.796
311.068
311.337
311.604
311.867
312.128
312.385
312.639
312.889
313.135
313.378
313.616
313.851
314.081
314.306
314.528
300.008
300.024
300.041
300.059
300.079
300.101
300.125
300.15
300.179
300.21
300.245
300.282
300.324
300.369
300.418
300.471
300.529
300.592
300.659
300.732
300.81
300.894
300.983
301.078
301.179
301.286
301.399
301.518
301.644
301.776
301.914
302.058
302.208
302.365
302.528
302.696
302.871
303.051
303.236
303.427
303.623
303.824
304.029
304.239
304.453
304.671
304.893
305.117
305.345
305.575
305.808
306.042
306.278
306.516
306.754
306.994
307.233
307.473
307.713
307.952
308.19
308.427
308.663
308.898
309.131
309.361
309.59
309.816
310.04
310.261
310.48
310.696
310.908
311.118
311.324
311.526
311.726
311.921
312.113
312.302
312.486
300.007
300.021
300.036
300.053
300.07
300.09
300.111
300.134
300.159
300.187
300.217
300.251
300.287
300.327
300.371
300.418
300.469
300.524
300.584
300.648
300.717
300.79
300.869
300.952
301.04
301.134
301.233
301.337
301.446
301.561
301.68
301.806
301.936
302.071
302.211
302.357
302.506
302.661
302.82
302.983
303.151
303.322
303.497
303.675
303.856
304.041
304.228
304.417
304.609
304.802
304.997
305.194
305.391
305.59
305.789
305.988
306.187
306.386
306.585
306.783
306.98
307.176
307.371
307.564
307.756
307.946
308.134
308.32
308.504
308.685
308.865
309.041
309.215
309.387
309.555
309.721
309.883
310.043
310.199
310.353
310.503
300.006
300.019
300.032
300.046
300.061
300.078
300.097
300.117
300.139
300.163
300.189
300.219
300.25
300.285
300.323
300.364
300.408
300.456
300.507
300.563
300.622
300.685
300.753
300.824
300.9
300.98
301.064
301.153
301.246
301.343
301.445
301.551
301.661
301.775
301.894
302.016
302.141
302.271
302.404
302.54
302.679
302.822
302.967
303.114
303.264
303.416
303.57
303.726
303.883
304.042
304.201
304.362
304.523
304.684
304.846
305.008
305.169
305.33
305.491
305.65
305.809
305.967
306.124
306.279
306.433
306.585
306.736
306.885
307.032
307.178
307.321
307.462
307.6
307.737
307.871
308.002
308.132
308.258
308.382
308.504
308.623
300.005
300.016
300.027
300.039
300.053
300.067
300.083
300.1
300.119
300.14
300.162
300.187
300.214
300.244
300.276
300.31
300.348
300.389
300.432
300.479
300.529
300.582
300.639
300.699
300.762
300.829
300.899
300.973
301.05
301.131
301.215
301.303
301.394
301.488
301.585
301.684
301.787
301.893
302.001
302.112
302.225
302.34
302.457
302.576
302.696
302.819
302.942
303.066
303.192
303.318
303.445
303.572
303.7
303.828
303.955
304.083
304.21
304.337
304.463
304.588
304.713
304.836
304.959
305.08
305.2
305.319
305.436
305.552
305.667
305.779
305.89
305.999
306.107
306.212
306.316
306.417
306.517
306.614
306.71
306.803
306.894
300.004
300.013
300.023
300.033
300.044
300.057
300.07
300.084
300.1
300.117
300.136
300.157
300.18
300.204
300.231
300.26
300.291
300.325
300.361
300.4
300.441
300.484
300.531
300.58
300.632
300.687
300.744
300.804
300.867
300.932
301
301.07
301.143
301.218
301.296
301.376
301.458
301.541
301.627
301.715
301.804
301.894
301.986
302.079
302.174
302.269
302.365
302.462
302.559
302.657
302.755
302.853
302.951
303.049
303.147
303.245
303.342
303.439
303.535
303.631
303.725
303.819
303.912
304.004
304.095
304.185
304.274
304.361
304.447
304.532
304.615
304.697
304.778
304.857
304.934
305.01
305.084
305.157
305.228
305.297
305.365
300.004
300.011
300.019
300.028
300.037
300.047
300.058
300.07
300.083
300.097
300.113
300.13
300.149
300.169
300.191
300.215
300.24
300.268
300.297
300.328
300.362
300.397
300.434
300.474
300.515
300.559
300.605
300.653
300.702
300.754
300.808
300.863
300.921
300.98
301.04
301.102
301.166
301.231
301.298
301.365
301.434
301.503
301.574
301.645
301.717
301.789
301.862
301.935
302.009
302.083
302.157
302.23
302.304
302.377
302.451
302.523
302.596
302.668
302.739
302.81
302.88
302.95
303.018
303.086
303.153
303.219
303.284
303.348
303.411
303.473
303.533
303.593
303.651
303.709
303.765
303.82
303.873
303.926
303.977
304.027
304.076
300.003
300.009
300.016
300.023
300.031
300.039
300.048
300.058
300.069
300.081
300.094
300.108
300.123
300.14
300.157
300.177
300.197
300.22
300.243
300.269
300.295
300.324
300.354
300.385
300.418
300.453
300.489
300.527
300.566
300.607
300.649
300.692
300.737
300.783
300.83
300.878
300.927
300.976
301.027
301.079
301.131
301.184
301.237
301.291
301.345
301.4
301.454
301.509
301.564
301.619
301.674
301.728
301.783
301.837
301.891
301.944
301.998
302.05
302.102
302.154
302.205
302.256
302.305
302.354
302.403
302.45
302.497
302.543
302.588
302.632
302.676
302.718
302.76
302.801
302.841
302.88
302.918
302.955
302.991
303.026
303.061
300.003
300.008
300.014
300.02
300.026
300.033
300.041
300.049
300.058
300.068
300.079
300.091
300.104
300.118
300.132
300.148
300.166
300.184
300.204
300.224
300.246
300.27
300.294
300.32
300.347
300.375
300.404
300.435
300.466
300.499
300.532
300.567
300.602
300.639
300.676
300.714
300.752
300.791
300.831
300.871
300.912
300.953
300.994
301.035
301.077
301.119
301.161
301.202
301.244
301.286
301.327
301.369
301.41
301.451
301.491
301.531
301.571
301.61
301.649
301.687
301.725
301.762
301.799
301.835
301.871
301.905
301.94
301.973
302.006
302.038
302.07
302.101
302.131
302.16
302.189
302.217
302.244
302.271
302.297
302.323
302.347
300.002
300.007
300.012
300.018
300.024
300.03
300.037
300.044
300.053
300.061
300.071
300.082
300.093
300.105
300.119
300.133
300.148
300.164
300.182
300.2
300.219
300.24
300.261
300.284
300.307
300.332
300.357
300.384
300.411
300.439
300.468
300.498
300.529
300.56
300.591
300.624
300.657
300.69
300.724
300.758
300.792
300.827
300.862
300.896
300.931
300.966
301.001
301.036
301.071
301.106
301.14
301.174
301.208
301.242
301.275
301.308
301.341
301.373
301.405
301.436
301.467
301.497
301.527
301.556
301.585
301.613
301.64
301.667
301.694
301.72
301.745
301.769
301.794
301.817
301.84
301.862
301.884
301.905
301.926
301.946
301.966
403.077
411.135
417.866
423.683
428.786
433.286
437.242
440.687
443.634
446.083
448.021
449.424
450.258
450.475
450.012
448.781
446.659
443.456
438.852
432.202
421.872
414.57
408.749
403.805
399.449
395.52
391.914
388.565
385.423
382.453
379.628
376.927
374.333
371.832
369.416
367.074
364.801
362.591
360.441
358.347
356.309
354.323
352.39
350.508
348.678
346.898
345.169
343.491
341.864
340.287
338.761
337.284
335.857
334.478
333.147
331.864
330.626
329.433
328.284
327.178
326.112
325.086
324.099
323.148
322.233
321.352
320.504
319.687
318.9
318.142
317.411
316.707
316.027
315.372
314.74
314.13
313.541
312.972
312.423
311.893
311.381
310.886
310.408
309.947
309.501
309.07
308.654
308.252
307.864
307.489
307.128
306.779
306.443
306.119
305.806
305.505
305.215
304.937
304.668
304.411
304.163
303.926
303.698
303.48
303.271
303.071
302.88
302.698
302.524
302.359
302.201
302.051
301.909
301.774
301.647
301.526
301.412
301.304
301.203
301.108
301.018
300.934
300.856
300.782
300.714
300.65
300.591
300.536
300.485
300.438
300.395
300.355
300.318
300.285
300.254
300.226
300.201
300.178
300.157
300.139
300.122
300.107
300.093
300.081
300.07
300.061
300.052
300.045
300.039
300.033
300.028
300.024
300.02
300.017
300.014
300.012
300.01
300.008
300.007
300.005
300.004
398.308
405.335
411.609
417.19
422.16
426.578
430.483
433.897
436.827
439.269
441.208
442.621
443.473
443.72
443.301
442.135
440.117
437.098
432.87
427.179
419.996
413.659
408.213
403.449
399.194
395.326
391.763
388.443
385.323
382.37
379.558
376.866
374.28
371.786
369.375
367.037
364.767
362.56
360.413
358.321
356.284
354.3
352.368
350.487
348.657
346.879
345.151
343.473
341.847
340.271
338.745
337.269
335.842
334.465
333.135
331.852
330.615
329.423
328.274
327.168
326.104
325.078
324.092
323.142
322.227
321.347
320.499
319.682
318.896
318.138
317.407
316.703
316.024
315.369
314.737
314.127
313.539
312.97
312.421
311.891
311.379
310.885
310.407
309.946
309.5
309.069
308.653
308.251
307.863
307.489
307.128
306.779
306.443
306.118
305.806
305.505
305.215
304.936
304.668
304.411
304.163
303.926
303.698
303.48
303.271
303.071
302.88
302.698
302.524
302.359
302.201
302.051
301.909
301.774
301.647
301.526
301.412
301.304
301.203
301.108
301.018
300.934
300.856
300.782
300.714
300.65
300.591
300.536
300.485
300.438
300.395
300.355
300.318
300.285
300.254
300.226
300.201
300.178
300.157
300.139
300.122
300.107
300.093
300.081
300.07
300.061
300.052
300.045
300.039
300.033
300.028
300.024
300.02
300.017
300.014
300.012
300.01
300.008
300.007
300.005
300.004
394.173
400.213
405.867
411.059
415.776
420.027
423.82
427.16
430.045
432.464
434.399
435.828
436.714
437.018
436.685
435.649
433.83
431.133
427.464
422.79
417.345
412.036
407.153
402.711
398.653
394.913
391.438
388.181
385.108
382.19
379.405
376.736
374.167
371.687
369.287
366.958
364.696
362.495
360.353
358.266
356.232
354.251
352.322
350.444
348.616
346.84
345.114
343.438
341.814
340.239
338.715
337.241
335.816
334.44
333.111
331.83
330.594
329.404
328.257
327.152
326.089
325.065
324.079
323.13
322.217
321.337
320.49
319.674
318.889
318.131
317.402
316.698
316.019