/*--------------------------------*- C++ -*----------------------------------*\
  =========                 |
  \\      /  F ield         | OpenFOAM: The Open Source CFD Toolbox
   \\    /   O peration     | Website:  https://openfoam.org
    \\  /    A nd           | Version:  7
     \\/     M anipulation  |
\*---------------------------------------------------------------------------*/
FoamFile
{
    version     2.0;
    format      ascii;
    class       volVectorField;
    location    "8.62";
    object      U;
}
// * * * * * * * * * * * * * * * * * * * * * * * * * * * * * * * * * * * * * //

dimensions      [0 1 -1 0 0 0 0];

internalField   nonuniform List<vector> 
12013
(
(0.100943 -0.000252523 0)
(0.104606 -0.000437652 0)
(0.110152 -0.000598019 0)
(0.117052 -0.00074006 0)
(0.125155 -0.000870162 0)
(0.134324 -0.000993161 0)
(0.144461 -0.00111296 0)
(0.155513 -0.00123263 0)
(0.167447 -0.00135416 0)
(0.180248 -0.00147837 0)
(0.1939 -0.00160477 0)
(0.208375 -0.00173173 0)
(0.223633 -0.00185668 0)
(0.239605 -0.0019765 0)
(0.256204 -0.00208795 0)
(0.273319 -0.00218795 0)
(0.290823 -0.00227397 0)
(0.308579 -0.00234413 0)
(0.326449 -0.00239727 0)
(0.344293 -0.00243296 0)
(0.361981 -0.00245138 0)
(0.379393 -0.00245323 0)
(0.396423 -0.00243958 0)
(0.412979 -0.00241175 0)
(0.428985 -0.00237121 0)
(0.444379 -0.00231949 0)
(0.459113 -0.0022581 0)
(0.473151 -0.0021885 0)
(0.48647 -0.00211205 0)
(0.499056 -0.00203 0)
(0.510903 -0.00194348 0)
(0.522013 -0.00185349 0)
(0.532394 -0.00176093 0)
(0.54206 -0.00166657 0)
(0.551027 -0.00157107 0)
(0.559316 -0.00147503 0)
(0.566949 -0.00137893 0)
(0.573951 -0.00128318 0)
(0.580348 -0.00118814 0)
(0.586168 -0.00109411 0)
(0.591438 -0.00100133 0)
(0.596186 -0.000909979 0)
(0.600442 -0.00082023 0)
(0.604232 -0.000732201 0)
(0.607587 -0.000645977 0)
(0.610533 -0.000561605 0)
(0.613098 -0.000479109 0)
(0.61531 -0.000398481 0)
(0.617194 -0.000319679 0)
(0.618777 -0.000242622 0)
(0.620085 -0.00016719 0)
(0.621141 -9.32195e-05 0)
(0.621969 -2.0496e-05 0)
(0.622593 5.11845e-05 0)
(0.623035 0.000122024 0)
(0.623316 0.000192299 0)
(0.623458 0.000262389 0)
(0.62348 0.000332763 0)
(0.623401 0.000403991 0)
(0.623239 0.000476761 0)
(0.62301 0.000551909 0)
(0.622727 0.000630452 0)
(0.622404 0.000713636 0)
(0.622051 0.000802996 0)
(0.621673 0.000900444 0)
(0.621276 0.00100839 0)
(0.620856 0.00112989 0)
(0.620409 0.00126895 0)
(0.619918 0.00143084 0)
(0.619359 0.00162272 0)
(0.618693 0.00185458 0)
(0.617859 0.00214079 0)
(0.616768 0.00250286 0)
(0.615282 0.00297435 0)
(0.61319 0.00361024 0)
(0.610154 0.00450558 0)
(0.605617 0.00583476 0)
(0.598591 0.00794435 0)
(0.587302 0.0116533 0)
(0.568618 0.019887 0)
(0.549947 0.0530033 0)
(0.100857 -0.000769063 0)
(0.104499 -0.00133929 0)
(0.110012 -0.00183042 0)
(0.116886 -0.00226467 0)
(0.124965 -0.00266217 0)
(0.134111 -0.00303768 0)
(0.144229 -0.00340318 0)
(0.155263 -0.00376808 0)
(0.167183 -0.00413852 0)
(0.179973 -0.00451695 0)
(0.193619 -0.00490193 0)
(0.208095 -0.00528846 0)
(0.223358 -0.00566873 0)
(0.239345 -0.00603328 0)
(0.255965 -0.00637218 0)
(0.273108 -0.0066762 0)
(0.290647 -0.00693764 0)
(0.308443 -0.00715082 0)
(0.326357 -0.00731229 0)
(0.344247 -0.00742076 0)
(0.361983 -0.00747682 0)
(0.379443 -0.00748259 0)
(0.39652 -0.00744132 0)
(0.413123 -0.00735703 0)
(0.429173 -0.00723415 0)
(0.444608 -0.0070773 0)
(0.459381 -0.00689106 0)
(0.473455 -0.00667982 0)
(0.486807 -0.00644768 0)
(0.499422 -0.00619844 0)
(0.511296 -0.00593549 0)
(0.522431 -0.00566188 0)
(0.532833 -0.0053803 0)
(0.542518 -0.0050931 0)
(0.551501 -0.00480231 0)
(0.559803 -0.00450968 0)
(0.567447 -0.00421671 0)
(0.574459 -0.00392469 0)
(0.580863 -0.00363467 0)
(0.586688 -0.00334756 0)
(0.591961 -0.00306409 0)
(0.596711 -0.00278488 0)
(0.600967 -0.00251039 0)
(0.604755 -0.00224101 0)
(0.608106 -0.00197699 0)
(0.611047 -0.0017185 0)
(0.613605 -0.00146562 0)
(0.615807 -0.00121831 0)
(0.617681 -0.000976454 0)
(0.619251 -0.000739799 0)
(0.620544 -0.000507992 0)
(0.621583 -0.000280533 0)
(0.622393 -5.67712e-05 0)
(0.622996 0.000163897 0)
(0.623414 0.000382034 0)
(0.62367 0.000598469 0)
(0.623783 0.000814358 0)
(0.623774 0.00103114 0)
(0.623661 0.00125054 0)
(0.623462 0.00147468 0)
(0.623192 0.00170608 0)
(0.622866 0.00194784 0)
(0.622497 0.00220373 0)
(0.622093 0.00247837 0)
(0.621663 0.00277751 0)
(0.621211 0.00310835 0)
(0.620736 0.00348002 0)
(0.620233 0.00390435 0)
(0.61969 0.00439684 0)
(0.619086 0.00497838 0)
(0.618388 0.00567771 0)
(0.617547 0.00653564 0)
(0.616492 0.00761199 0)
(0.615119 0.00899771 0)
(0.613278 0.0108366 0)
(0.610756 0.013366 0)
(0.607249 0.0169937 0)
(0.60233 0.0224519 0)
(0.595449 0.0311324 0)
(0.586509 0.0457571 0)
(0.583483 0.0714722 0)
(0.100758 -0.00130183 0)
(0.104342 -0.00229339 0)
(0.109787 -0.00314 0)
(0.116603 -0.00388814 0)
(0.124631 -0.00457283 0)
(0.133732 -0.00521951 0)
(0.143809 -0.00584896 0)
(0.154808 -0.00647755 0)
(0.166699 -0.007116 0)
(0.179469 -0.00776862 0)
(0.193105 -0.00843301 0)
(0.207584 -0.00910053 0)
(0.222865 -0.00975767 0)
(0.238884 -0.010388 0)
(0.255553 -0.0109743 0)
(0.272758 -0.0115005 0)
(0.290371 -0.0119532 0)
(0.308253 -0.0123225 0)
(0.326258 -0.0126024 0)
(0.344246 -0.0127907 0)
(0.362082 -0.0128882 0)
(0.379642 -0.0128988 0)
(0.396817 -0.0128281 0)
(0.413514 -0.012683 0)
(0.429655 -0.0124712 0)
(0.445175 -0.0122006 0)
(0.460026 -0.0118793 0)
(0.474173 -0.0115149 0)
(0.487591 -0.0111143 0)
(0.500267 -0.0106842 0)
(0.512195 -0.0102305 0)
(0.523377 -0.0097584 0)
(0.533822 -0.00927253 0)
(0.543544 -0.00877697 0)
(0.552559 -0.00827522 0)
(0.560888 -0.0077703 0)
(0.568555 -0.0072648 0)
(0.575585 -0.0067609 0)
(0.582004 -0.00626045 0)
(0.587839 -0.00576499 0)
(0.59312 -0.00527579 0)
(0.597874 -0.00479387 0)
(0.602129 -0.00432007 0)
(0.605915 -0.00385499 0)
(0.60926 -0.00339909 0)
(0.612191 -0.00295265 0)
(0.614737 -0.00251577 0)
(0.616924 -0.00208839 0)
(0.618779 -0.00167028 0)
(0.620328 -0.00126102 0)
(0.621595 -0.000859978 0)
(0.622606 -0.000466281 0)
(0.623383 -7.8824e-05 0)
(0.62395 0.000303425 0)
(0.624329 0.000681472 0)
(0.624542 0.0010568 0)
(0.624607 0.00143141 0)
(0.624547 0.00180776 0)
(0.624378 0.00218882 0)
(0.624118 0.00257818 0)
(0.623783 0.00298012 0)
(0.623388 0.00339986 0)
(0.622944 0.00384372 0)
(0.622463 0.00431942 0)
(0.621952 0.00483649 0)
(0.621417 0.00540678 0)
(0.620859 0.00604521 0)
(0.620277 0.00677085 0)
(0.619662 0.00760843 0)
(0.619001 0.00859063 0)
(0.618274 0.00976154 0)
(0.617448 0.011182 0)
(0.616484 0.012938 0)
(0.615326 0.0151542 0)
(0.613914 0.0180156 0)
(0.612185 0.0218035 0)
(0.610111 0.0269523 0)
(0.607773 0.034139 0)
(0.605546 0.0444266 0)
(0.604546 0.0594006 0)
(0.608672 0.0804829 0)
(0.100652 -0.00184346 0)
(0.104156 -0.00329454 0)
(0.109502 -0.00452328 0)
(0.116231 -0.00560959 0)
(0.124181 -0.00660346 0)
(0.133213 -0.00754196 0)
(0.143229 -0.00845564 0)
(0.154175 -0.00936856 0)
(0.166026 -0.0102966 0)
(0.178769 -0.0112462 0)
(0.192395 -0.0122141 0)
(0.206887 -0.0131876 0)
(0.222205 -0.014147 0)
(0.238286 -0.0150681 0)
(0.255041 -0.0159255 0)
(0.272355 -0.0166954 0)
(0.290098 -0.017358 0)
(0.308124 -0.0178988 0)
(0.326284 -0.0183087 0)
(0.344433 -0.0185846 0)
(0.362432 -0.0187278 0)
(0.380154 -0.0187438 0)
(0.397487 -0.018641 0)
(0.414334 -0.0184295 0)
(0.430615 -0.0181207 0)
(0.446268 -0.0177263 0)
(0.461241 -0.017258 0)
(0.475499 -0.0167268 0)
(0.489018 -0.0161432 0)
(0.501784 -0.0155168 0)
(0.513792 -0.014856 0)
(0.525046 -0.0141687 0)
(0.535554 -0.0134614 0)
(0.545329 -0.0127402 0)
(0.55439 -0.0120101 0)
(0.562759 -0.0112755 0)
(0.570458 -0.0105402 0)
(0.577514 -0.00980721 0)
(0.583953 -0.00907931 0)
(0.589803 -0.00835869 0)
(0.595093 -0.00764716 0)
(0.599851 -0.0069462 0)
(0.604106 -0.00625698 0)
(0.607887 -0.00558037 0)
(0.611223 -0.004917 0)
(0.614141 -0.00426723 0)
(0.616669 -0.00363121 0)
(0.618834 -0.00300883 0)
(0.620663 -0.00239972 0)
(0.622181 -0.00180324 0)
(0.623414 -0.00121845 0)
(0.624387 -0.000644087 0)
(0.625121 -7.86053e-05 0)
(0.625641 0.00047948 0)
(0.625968 0.00103172 0)
(0.626124 0.00158032 0)
(0.626129 0.0021282 0)
(0.626003 0.00267887 0)
(0.625764 0.00323657 0)
(0.625429 0.00380636 0)
(0.625014 0.00439428 0)
(0.624534 0.0050076 0)
(0.624002 0.0056551 0)
(0.62343 0.00634741 0)
(0.622826 0.0070975 0)
(0.622199 0.00792134 0)
(0.621553 0.00883878 0)
(0.620891 0.00987473 0)
(0.620211 0.0110609 0)
(0.619511 0.0124382 0)
(0.618784 0.01406 0)
(0.618022 0.0159973 0)
(0.617217 0.0183452 0)
(0.616367 0.0212333 0)
(0.615489 0.0248384 0)
(0.614636 0.0294017 0)
(0.613941 0.0352465 0)
(0.613687 0.0427875 0)
(0.614419 0.0525058 0)
(0.617078 0.0648048 0)
(0.623293 0.0794365 0)
(0.100543 -0.00239237 0)
(0.103959 -0.00433842 0)
(0.109182 -0.0059771 0)
(0.115798 -0.00742755 0)
(0.123648 -0.00875446 0)
(0.132589 -0.0100073 0)
(0.142525 -0.0112275 0)
(0.153405 -0.0124477 0)
(0.165205 -0.0136897 0)
(0.17792 -0.0149627 0)
(0.191546 -0.0162623 0)
(0.20607 -0.0175716 0)
(0.221457 -0.0188638 0)
(0.237645 -0.0201058 0)
(0.254543 -0.0212629 0)
(0.272033 -0.0223025 0)
(0.289978 -0.0231974 0)
(0.308227 -0.0239276 0)
(0.326623 -0.024481 0)
(0.345012 -0.0248532 0)
(0.363251 -0.0250462 0)
(0.381207 -0.0250677 0)
(0.398764 -0.0249289 0)
(0.415823 -0.0246439 0)
(0.432302 -0.0242281 0)
(0.448136 -0.0236975 0)
(0.463274 -0.0230679 0)
(0.477682 -0.0223542 0)
(0.491334 -0.0215705 0)
(0.504219 -0.0207296 0)
(0.516332 -0.0198432 0)
(0.527676 -0.0189214 0)
(0.538262 -0.0179734 0)
(0.548105 -0.017007 0)
(0.557223 -0.0160289 0)
(0.565638 -0.0150451 0)
(0.573375 -0.0140605 0)
(0.58046 -0.0130792 0)
(0.586921 -0.0121048 0)
(0.592786 -0.0111403 0)
(0.598083 -0.0101879 0)
(0.602843 -0.00924974 0)
(0.607095 -0.00832718 0)
(0.610866 -0.00742139 0)
(0.614187 -0.00653316 0)
(0.617085 -0.00566296 0)
(0.619588 -0.00481092 0)
(0.621724 -0.00397686 0)
(0.623518 -0.00316026 0)
(0.624997 -0.00236025 0)
(0.626186 -0.00157554 0)
(0.627109 -0.000804438 0)
(0.62779 -4.50371e-05 0)
(0.628252 0.000704666 0)
(0.628517 0.00144687 0)
(0.628606 0.00218458 0)
(0.628539 0.00292163 0)
(0.628336 0.00366262 0)
(0.628016 0.00441302 0)
(0.627596 0.00517931 0)
(0.627091 0.00596919 0)
(0.626519 0.00679184 0)
(0.625891 0.00765819 0)
(0.625223 0.00858136 0)
(0.624524 0.00957715 0)
(0.623805 0.0106647 0)
(0.623076 0.0118674 0)
(0.622343 0.0132139 0)
(0.621616 0.0147397 0)
(0.620901 0.0164892 0)
(0.620207 0.0185181 0)
(0.619548 0.0208965 0)
(0.618945 0.023713 0)
(0.618436 0.0270789 0)
(0.618086 0.0311315 0)
(0.618004 0.0360353 0)
(0.618371 0.0419742 0)
(0.619469 0.0491267 0)
(0.621716 0.0576059 0)
(0.625672 0.0673355 0)
(0.631993 0.0778228 0)
(0.100431 -0.00294814 0)
(0.103761 -0.00542183 0)
(0.108847 -0.00749916 0)
(0.115332 -0.00934109 0)
(0.123061 -0.0110268 0)
(0.131895 -0.0126188 0)
(0.141737 -0.0141704 0)
(0.15254 -0.0157241 0)
(0.164288 -0.0173087 0)
(0.176982 -0.0189364 0)
(0.190629 -0.0206022 0)
(0.205221 -0.0222843 0)
(0.220728 -0.0239473 0)
(0.23709 -0.0255479 0)
(0.254212 -0.0270403 0)
(0.27197 -0.0283814 0)
(0.290215 -0.0295355 0)
(0.308786 -0.0304765 0)
(0.327516 -0.0311886 0)
(0.346242 -0.0316663 0)
(0.36481 -0.0319126 0)
(0.383082 -0.0319378 0)
(0.400937 -0.0317568 0)
(0.418273 -0.0313883 0)
(0.435005 -0.0308523 0)
(0.451069 -0.0301696 0)
(0.466413 -0.0293607 0)
(0.481004 -0.0284449 0)
(0.494818 -0.0274404 0)
(0.507843 -0.0263636 0)
(0.520078 -0.0252294 0)
(0.531527 -0.0240508 0)
(0.542201 -0.0228394 0)
(0.552117 -0.0216051 0)
(0.561295 -0.0203566 0)
(0.569759 -0.0191013 0)
(0.577533 -0.0178453 0)
(0.584645 -0.016594 0)
(0.591124 -0.0153517 0)
(0.596999 -0.0141221 0)
(0.602299 -0.0129083 0)
(0.607054 -0.0117124 0)
(0.611293 -0.0105365 0)
(0.615047 -0.00938188 0)
(0.618344 -0.00824946 0)
(0.621213 -0.00713979 0)
(0.623681 -0.00605298 0)
(0.625777 -0.00498877 0)
(0.627526 -0.00394644 0)
(0.628955 -0.00292488 0)
(0.630089 -0.00192244 0)
(0.630952 -0.000936947 0)
(0.631569 3.38148e-05 0)
(0.631962 0.000992325 0)
(0.632153 0.00194156 0)
(0.632164 0.0028854 0)
(0.632016 0.00382859 0)
(0.631727 0.00477677 0)
(0.631317 0.00573654 0)
(0.630803 0.00671571 0)
(0.630203 0.00772339 0)
(0.629532 0.00877036 0)
(0.628806 0.00986928 0)
(0.628039 0.0110351 0)
(0.627246 0.0122855 0)
(0.626441 0.0136417 0)
(0.625637 0.0151285 0)
(0.624847 0.0167761 0)
(0.624088 0.0186202 0)
(0.623376 0.0207039 0)
(0.622735 0.0230784 0)
(0.622195 0.0258045 0)
(0.621795 0.0289537 0)
(0.621596 0.032607 0)
(0.62168 0.0368533 0)
(0.622167 0.0417814 0)
(0.623218 0.0474665 0)
(0.625046 0.0539436 0)
(0.627911 0.0611664 0)
(0.632094 0.0689493 0)
(0.637822 0.0769022 0)
(0.100319 -0.00351132 0)
(0.103569 -0.00654305 0)
(0.108514 -0.00908834 0)
(0.114855 -0.0113502 0)
(0.122451 -0.0134225 0)
(0.131165 -0.0153808 0)
(0.140905 -0.0172919 0)
(0.151629 -0.0192096 0)
(0.163331 -0.0211709 0)
(0.176026 -0.0231922 0)
(0.18973 -0.0252674 0)
(0.204448 -0.0273688 0)
(0.220154 -0.0294509 0)
(0.236786 -0.0314576 0)
(0.254242 -0.0333294 0)
(0.272387 -0.0350109 0)
(0.291056 -0.036456 0)
(0.310072 -0.0376316 0)
(0.329253 -0.0385182 0)
(0.348423 -0.0391094 0)
(0.367417 -0.03941 0)
(0.38609 -0.0394336 0)
(0.404316 -0.0392 0)
(0.42199 -0.0387331 0)
(0.439027 -0.0380586 0)
(0.455362 -0.0372029 0)
(0.470945 -0.0361918 0)
(0.485743 -0.0350496 0)
(0.499737 -0.033799 0)
(0.512916 -0.0324604 0)
(0.52528 -0.0310522 0)
(0.536837 -0.0295904 0)
(0.5476 -0.0280894 0)
(0.557588 -0.0265612 0)
(0.566822 -0.0250165 0)
(0.575327 -0.0234643 0)
(0.583131 -0.021912 0)
(0.590262 -0.0203662 0)
(0.596749 -0.018832 0)
(0.602624 -0.017314 0)
(0.607915 -0.0158155 0)
(0.612653 -0.0143395 0)
(0.61687 -0.0128881 0)
(0.620594 -0.0114629 0)
(0.623855 -0.010065 0)
(0.626682 -0.00869487 0)
(0.629104 -0.00735269 0)
(0.631147 -0.00603805 0)
(0.632839 -0.00475004 0)
(0.634206 -0.00348725 0)
(0.635274 -0.0022477 0)
(0.636065 -0.00102876 0)
(0.636606 0.000172167 0)
(0.63692 0.00135798 0)
(0.637028 0.0025325 0)
(0.636952 0.00370048 0)
(0.636712 0.00486757 0)
(0.636329 0.00604032 0)
(0.635821 0.00722638 0)
(0.635208 0.00843458 0)
(0.634506 0.0096752 0)
(0.633734 0.0109601 0)
(0.632908 0.0123032 0)
(0.632044 0.0137203 0)
(0.631161 0.01523 0)
(0.630274 0.0168539 0)
(0.629402 0.0186168 0)
(0.628563 0.0205474 0)
(0.627781 0.0226788 0)
(0.627081 0.0250485 0)
(0.626494 0.0276989 0)
(0.626059 0.0306766 0)
(0.625826 0.0340313 0)
(0.625858 0.0378131 0)
(0.626237 0.0420675 0)
(0.627064 0.0468271 0)
(0.628458 0.0521001 0)
(0.630557 0.057853 0)
(0.6335 0.0639911 0)
(0.637401 0.0703385 0)
(0.642305 0.0766318 0)
(0.100203 -0.00408358 0)
(0.103388 -0.00770189 0)
(0.108195 -0.010745 0)
(0.114386 -0.0134562 0)
(0.121844 -0.0159446 0)
(0.130432 -0.0182993 0)
(0.140067 -0.0206019 0)
(0.150719 -0.0229197 0)
(0.162396 -0.0252997 0)
(0.175129 -0.0277633 0)
(0.188953 -0.0303032 0)
(0.203883 -0.0328838 0)
(0.219898 -0.0354466 0)
(0.236931 -0.037919 0)
(0.254866 -0.0402244 0)
(0.273547 -0.0422919 0)
(0.292788 -0.0440637 0)
(0.312388 -0.0454987 0)
(0.332147 -0.0465739 0)
(0.351872 -0.0472829 0)
(0.371388 -0.0476334 0)
(0.390541 -0.047644 0)
(0.409202 -0.0473406 0)
(0.427264 -0.0467536 0)
(0.444642 -0.0459155 0)
(0.461274 -0.0448594 0)
(0.477113 -0.0436171 0)
(0.49213 -0.0422184 0)
(0.506306 -0.0406909 0)
(0.519637 -0.0390595 0)
(0.532126 -0.0373464 0)
(0.543783 -0.0355709 0)
(0.554624 -0.03375 0)
(0.564671 -0.0318984 0)
(0.573947 -0.0300285 0)
(0.58248 -0.0281509 0)
(0.590298 -0.0262746 0)
(0.597432 -0.0244071 0)
(0.603912 -0.0225546 0)
(0.60977 -0.0207222 0)
(0.615037 -0.0189139 0)
(0.619744 -0.017133 0)
(0.623922 -0.0153819 0)
(0.627602 -0.0136625 0)
(0.630814 -0.0119758 0)
(0.633586 -0.0103226 0)
(0.635947 -0.00870268 0)
(0.637926 -0.00711565 0)
(0.639548 -0.00556037 0)
(0.640841 -0.00403516 0)
(0.641831 -0.00253769 0)
(0.64254 -0.00106496 0)
(0.642996 0.00038605 0)
(0.643221 0.00181875 0)
(0.643236 0.00323776 0)
(0.643065 0.00464869 0)
(0.642727 0.00605796 0)
(0.642243 0.00747293 0)
(0.641633 0.00890202 0)
(0.640916 0.0103548 0)
(0.640111 0.0118424 0)
(0.639236 0.0133771 0)
(0.63831 0.0149733 0)
(0.637352 0.016647 0)
(0.636381 0.0184165 0)
(0.635417 0.0203023 0)
(0.634481 0.0223273 0)
(0.633598 0.0245169 0)
(0.632793 0.0268989 0)
(0.632097 0.0295033 0)
(0.631546 0.0323612 0)
(0.63118 0.035504 0)
(0.63105 0.0389607 0)
(0.631213 0.0427555 0)
(0.631737 0.0469024 0)
(0.632694 0.0513997 0)
(0.634164 0.0562224 0)
(0.636222 0.061314 0)
(0.63893 0.0665802 0)
(0.642319 0.0718858 0)
(0.646362 0.0770647 0)
(0.100083 -0.00466747 0)
(0.10322 -0.00889969 0)
(0.107897 -0.012471 0)
(0.11394 -0.015662 0)
(0.121258 -0.0185981 0)
(0.129722 -0.0213826 0)
(0.13926 -0.024114 0)
(0.149858 -0.0268758 0)
(0.161546 -0.0297274 0)
(0.17438 -0.0326962 0)
(0.188416 -0.0357726 0)
(0.203682 -0.03891 0)
(0.220158 -0.0420318 0)
(0.237761 -0.0450435 0)
(0.256352 -0.0478466 0)
(0.275744 -0.0503515 0)
(0.29572 -0.0524866 0)
(0.316051 -0.0542029 0)
(0.336512 -0.0554751 0)
(0.356894 -0.0562986 0)
(0.377012 -0.0566861 0)
(0.396705 -0.056663 0)
(0.415843 -0.0562633 0)
(0.43432 -0.0555255 0)
(0.452054 -0.0544905 0)
(0.468988 -0.0531986 0)
(0.485079 -0.0516886 0)
(0.500302 -0.0499967 0)
(0.514647 -0.0481558 0)
(0.528111 -0.0461954 0)
(0.540703 -0.0441417 0)
(0.552437 -0.0420176 0)
(0.563332 -0.0398429 0)
(0.573414 -0.0376346 0)
(0.582708 -0.0354073 0)
(0.591244 -0.0331731 0)
(0.599054 -0.0309424 0)
(0.606169 -0.0287237 0)
(0.612621 -0.0265241 0)
(0.618442 -0.0243494 0)
(0.623666 -0.022204 0)
(0.628324 -0.0200916 0)
(0.632447 -0.018015 0)
(0.636067 -0.015976 0)
(0.639213 -0.0139758 0)
(0.641917 -0.0120151 0)
(0.644205 -0.0100936 0)
(0.646107 -0.00821084 0)
(0.647649 -0.00636535 0)
(0.648858 -0.00455524 0)
(0.64976 -0.00277788 0)
(0.65038 -0.00102995 0)
(0.650743 0.000692018 0)
(0.650872 0.00239202 0)
(0.65079 0.00407541 0)
(0.650519 0.00574855 0)
(0.650079 0.00741851 0)
(0.649493 0.00909324 0)
(0.648779 0.0107816 0)
(0.647958 0.0124937 0)
(0.64705 0.0142407 0)
(0.646075 0.0160352 0)
(0.645052 0.017891 0)
(0.644003 0.0198235 0)
(0.642947 0.0218496 0)
(0.641909 0.0239876 0)
(0.640912 0.0262573 0)
(0.639981 0.0286793 0)
(0.639146 0.031275 0)
(0.638437 0.0340659 0)
(0.637891 0.0370722 0)
(0.637545 0.0403113 0)
(0.637445 0.0437962 0)
(0.637635 0.0475324 0)
(0.638166 0.051515 0)
(0.639085 0.0557251 0)
(0.640438 0.0601262 0)
(0.64226 0.064662 0)
(0.644568 0.0692555 0)
(0.647355 0.0738118 0)
(0.650574 0.0782298 0)
(0.0999565 -0.00526621 0)
(0.103064 -0.0101392 0)
(0.107626 -0.0142701 0)
(0.113527 -0.0179728 0)
(0.12071 -0.0213906 0)
(0.12906 -0.0246425 0)
(0.138518 -0.0278471 0)
(0.149096 -0.0311079 0)
(0.160856 -0.0344997 0)
(0.173886 -0.0380566 0)
(0.188268 -0.0417639 0)
(0.204039 -0.045558 0)
(0.221169 -0.0493366 0)
(0.239549 -0.0529754 0)
(0.259 -0.056348 0)
(0.279292 -0.0593428 0)
(0.300166 -0.0618737 0)
(0.321361 -0.0638852 0)
(0.342629 -0.0653519 0)
(0.363744 -0.0662743 0)
(0.384513 -0.0666729 0)
(0.404775 -0.066583 0)
(0.4244 -0.0660487 0)
(0.443287 -0.0651187 0)
(0.461362 -0.0638433 0)
(0.478572 -0.0622716 0)
(0.494884 -0.06045 0)
(0.510281 -0.0584213 0)
(0.524756 -0.0562243 0)
(0.538315 -0.0538935 0)
(0.550972 -0.0514591 0)
(0.562744 -0.0489476 0)
(0.573656 -0.0463816 0)
(0.583737 -0.0437806 0)
(0.593015 -0.041161 0)
(0.601523 -0.0385366 0)
(0.609294 -0.035919 0)
(0.616361 -0.0333177 0)
(0.622758 -0.0307405 0)
(0.628519 -0.0281939 0)
(0.633677 -0.0256828 0)
(0.638265 -0.0232111 0)
(0.642315 -0.0207816 0)
(0.645859 -0.0183965 0)
(0.648926 -0.0160569 0)
(0.651547 -0.0137633 0)
(0.653752 -0.0115154 0)
(0.655567 -0.00931244 0)
(0.65702 -0.00715288 0)
(0.658139 -0.00503453 0)
(0.658949 -0.00295454 0)
(0.659473 -0.000909371 0)
(0.659742 0.00110501 0)
(0.659774 0.00309317 0)
(0.659593 0.00506117 0)
(0.659223 0.00701592 0)
(0.658683 0.00896495 0)
(0.657996 0.0109165 0)
(0.657182 0.0128797 0)
(0.656262 0.0148645 0)
(0.655256 0.016882 0)
(0.654186 0.0189441 0)
(0.653073 0.0210638 0)
(0.651938 0.0232549 0)
(0.650804 0.0255322 0)
(0.649695 0.0279109 0)
(0.648635 0.0304069 0)
(0.647652 0.0330356 0)
(0.646773 0.0358121 0)
(0.646029 0.0387496 0)
(0.645451 0.041859 0)
(0.645074 0.0451473 0)
(0.644932 0.0486161 0)
(0.645058 0.0522598 0)
(0.645487 0.0560641 0)
(0.646247 0.0600045 0)
(0.647358 0.0640447 0)
(0.648831 0.0681376 0)
(0.650663 0.0722258 0)
(0.652832 0.0762459 0)
(0.65529 0.0801375 0)
(0.0998213 -0.00588347 0)
(0.102918 -0.0114247 0)
(0.107384 -0.0161475 0)
(0.113153 -0.0203956 0)
(0.120212 -0.0243325 0)
(0.128465 -0.0280957 0)
(0.137875 -0.0318285 0)
(0.148489 -0.0356596 0)
(0.160415 -0.0396828 0)
(0.17378 -0.0439381 0)
(0.188691 -0.0483997 0)
(0.205185 -0.0529769 0)
(0.223207 -0.0575298 0)
(0.242598 -0.0618945 0)
(0.263123 -0.0659103 0)
(0.284495 -0.0694414 0)
(0.30641 -0.0723886 0)
(0.328573 -0.0746936 0)
(0.350712 -0.0763353 0)
(0.372593 -0.0773236 0)
(0.39402 -0.0776911 0)
(0.414835 -0.077486 0)
(0.434916 -0.0767652 0)
(0.45417 -0.0755895 0)
(0.472535 -0.0740201 0)
(0.489966 -0.0721156 0)
(0.506442 -0.0699308 0)
(0.521952 -0.0675155 0)
(0.536499 -0.0649144 0)
(0.550095 -0.0621672 0)
(0.56276 -0.0593082 0)
(0.574517 -0.0563672 0)
(0.585396 -0.0533698 0)
(0.595428 -0.0503377 0)
(0.604647 -0.047289 0)
(0.613085 -0.0442392 0)
(0.62078 -0.0412008 0)
(0.627766 -0.0381844 0)
(0.634078 -0.0351983 0)
(0.639751 -0.0322495 0)
(0.644819 -0.0293432 0)
(0.649316 -0.0264836 0)
(0.653273 -0.0236736 0)
(0.656724 -0.0209153 0)
(0.659699 -0.0182098 0)
(0.662227 -0.0155574 0)
(0.664338 -0.0129578 0)
(0.666059 -0.01041 0)
(0.667419 -0.0079122 0)
(0.668444 -0.00546201 0)
(0.66916 -0.00305643 0)
(0.669591 -0.000691858 0)
(0.669766 0.00163635 0)
(0.669704 0.00393348 0)
(0.66943 0.00620613 0)
(0.668965 0.00846153 0)
(0.668333 0.0107074 0)
(0.667553 0.012952 0)
(0.666648 0.0152043 0)
(0.665638 0.017474 0)
(0.664545 0.0197714 0)
(0.663391 0.0221074 0)
(0.662197 0.0244934 0)
(0.660986 0.0269414 0)
(0.659781 0.0294635 0)
(0.658605 0.0320716 0)
(0.657484 0.0347772 0)
(0.656442 0.0375911 0)
(0.655506 0.0405222 0)
(0.654704 0.0435776 0)
(0.654061 0.046761 0)
(0.653606 0.0500722 0)
(0.653364 0.0535061 0)
(0.653358 0.0570521 0)
(0.653608 0.0606928 0)
(0.654129 0.0644042 0)
(0.654927 0.0681556 0)
(0.656 0.0719107 0)
(0.657335 0.0756293 0)
(0.658907 0.07927 0)
(0.660675 0.0827976 0)
(0.0996748 -0.00652335 0)
(0.102783 -0.0127617 0)
(0.107172 -0.0181107 0)
(0.112823 -0.0229407 0)
(0.119777 -0.0274388 0)
(0.127961 -0.0317662 0)
(0.137373 -0.0360978 0)
(0.148111 -0.0405946 0)
(0.160339 -0.0453725 0)
(0.17423 -0.0504729 0)
(0.18991 -0.0558474 0)
(0.207395 -0.0613616 0)
(0.226576 -0.0668222 0)
(0.247221 -0.0720144 0)
(0.26902 -0.0767384 0)
(0.291621 -0.0808352 0)
(0.314673 -0.0841977 0)
(0.337852 -0.086771 0)
(0.360872 -0.088545 0)
(0.383497 -0.0895448 0)
(0.405536 -0.0898198 0)
(0.426841 -0.0894344 0)
(0.447303 -0.0884611 0)
(0.466844 -0.0869744 0)
(0.485413 -0.0850473 0)
(0.50298 -0.0827489 0)
(0.519533 -0.0801424 0)
(0.535073 -0.0772851 0)
(0.549612 -0.0742276 0)
(0.56317 -0.0710145 0)
(0.575772 -0.0676842 0)
(0.587449 -0.0642696 0)
(0.598232 -0.0607991 0)
(0.608159 -0.0572962 0)
(0.617265 -0.0537809 0)
(0.625587 -0.0502698 0)
(0.633163 -0.0467766 0)
(0.640028 -0.0433122 0)
(0.64622 -0.0398858 0)
(0.651775 -0.0365045 0)
(0.656727 -0.0331738 0)
(0.661109 -0.029898 0)
(0.664955 -0.0266799 0)
(0.668297 -0.0235216 0)
(0.671166 -0.020424 0)
(0.673591 -0.0173875 0)
(0.675601 -0.0144114 0)
(0.677225 -0.0114944 0)
(0.678489 -0.00863468 0)
(0.679421 -0.00582956 0)
(0.680045 -0.00307586 0)
(0.680386 -0.000370279 0)
(0.680474 0.00229242 0)
(0.680326 0.0049185 0)
(0.679968 0.00751495 0)
(0.679421 0.010089 0)
(0.678707 0.0126483 0)
(0.677848 0.0152009 0)
(0.676866 0.0177552 0)
(0.675781 0.0203203 0)
(0.674617 0.0229053 0)
(0.673393 0.02552 0)
(0.672133 0.0281739 0)
(0.670858 0.0308766 0)
(0.669591 0.0336374 0)
(0.668356 0.0364652 0)
(0.667174 0.0393675 0)
(0.666071 0.0423509 0)
(0.665068 0.0454198 0)
(0.66419 0.0485763 0)
(0.663457 0.0518197 0)
(0.66289 0.0551456 0)
(0.662508 0.0585461 0)
(0.662325 0.0620089 0)
(0.662352 0.0655174 0)
(0.662593 0.0690511 0)
(0.663049 0.0725863 0)
(0.66371 0.0760965 0)
(0.664562 0.0795545 0)
(0.665581 0.0829339 0)
(0.666734 0.0862149 0)
(0.0995142 -0.00719033 0)
(0.102654 -0.0141571 0)
(0.10699 -0.020169 0)
(0.112543 -0.0256217 0)
(0.119417 -0.0307306 0)
(0.127577 -0.0356892 0)
(0.137068 -0.040714 0)
(0.148059 -0.046007 0)
(0.160781 -0.0517063 0)
(0.175454 -0.0578442 0)
(0.192198 -0.0643283 0)
(0.210978 -0.0709566 0)
(0.231592 -0.0774632 0)
(0.253713 -0.0835727 0)
(0.27694 -0.0890467 0)
(0.300858 -0.0937093 0)
(0.325076 -0.0974546 0)
(0.349251 -0.100241 0)
(0.373096 -0.102077 0)
(0.396381 -0.103011 0)
(0.418932 -0.103111 0)
(0.440617 -0.102464 0)
(0.461344 -0.101159 0)
(0.481054 -0.0992845 0)
(0.499711 -0.0969273 0)
(0.517301 -0.0941668 0)
(0.533824 -0.091075 0)
(0.549292 -0.0877163 0)
(0.563726 -0.084147 0)
(0.577155 -0.0804163 0)
(0.589611 -0.0765665 0)
(0.601128 -0.0726333 0)
(0.611746 -0.0686474 0)
(0.621503 -0.0646342 0)
(0.630437 -0.060615 0)
(0.638589 -0.0566073 0)
(0.645998 -0.0526256 0)
(0.652701 -0.0486814 0)
(0.658736 -0.0447842 0)
(0.664139 -0.0409411 0)
(0.668945 -0.0371579 0)
(0.67319 -0.0334386 0)
(0.676904 -0.0297862 0)
(0.680121 -0.0262024 0)
(0.682871 -0.0226881 0)
(0.685183 -0.0192432 0)
(0.687087 -0.015867 0)
(0.68861 -0.012558 0)
(0.689779 -0.00931412 0)
(0.69062 -0.00613253 0)
(0.691158 -0.00300991 0)
(0.69142 5.70381e-05 0)
(0.691429 0.00307384 0)
(0.691207 0.00604758 0)
(0.690778 0.0089854 0)
(0.690163 0.0118944 0)
(0.689384 0.0147818 0)
(0.688464 0.0176553 0)
(0.687422 0.0205226 0)
(0.686282 0.0233918 0)
(0.685063 0.0262709 0)
(0.683788 0.0291678 0)
(0.682478 0.0320903 0)
(0.681155 0.0350458 0)
(0.67984 0.038041 0)
(0.678553 0.0410817 0)
(0.677318 0.0441726 0)
(0.676153 0.0473167 0)
(0.675079 0.0505153 0)
(0.674115 0.0537675 0)
(0.673277 0.05707 0)
(0.672581 0.0604167 0)
(0.672038 0.0637991 0)
(0.671657 0.0672055 0)
(0.671443 0.070622 0)
(0.671395 0.0740326 0)
(0.67151 0.0774196 0)
(0.671777 0.0807649 0)
(0.672181 0.0840505 0)
(0.672703 0.08726 0)
(0.673318 0.0903832 0)
(0.0993362 -0.0078894 0)
(0.102533 -0.0156198 0)
(0.106841 -0.0223349 0)
(0.112321 -0.0284573 0)
(0.119152 -0.0342384 0)
(0.127352 -0.0399169 0)
(0.137037 -0.0457653 0)
(0.148464 -0.0520345 0)
(0.161942 -0.0588788 0)
(0.177718 -0.066298 0)
(0.195868 -0.0741221 0)
(0.216254 -0.0820509 0)
(0.238549 -0.0897277 0)
(0.262307 -0.0968138 0)
(0.287041 -0.10304 0)
(0.312281 -0.108227 0)
(0.337611 -0.112284 0)
(0.362687 -0.115193 0)
(0.387233 -0.116993 0)
(0.411038 -0.117758 0)
(0.43395 -0.117584 0)
(0.455862 -0.116578 0)
(0.476703 -0.114849 0)
(0.496434 -0.112502 0)
(0.515038 -0.109636 0)
(0.532517 -0.10634 0)
(0.548883 -0.102695 0)
(0.564161 -0.0987733 0)
(0.578381 -0.0946354 0)
(0.59158 -0.0903348 0)
(0.603795 -0.0859171 0)
(0.615069 -0.0814208 0)
(0.625442 -0.0768781 0)
(0.634957 -0.0723161 0)
(0.643657 -0.067757 0)
(0.651581 -0.0632191 0)
(0.658771 -0.0587173 0)
(0.665266 -0.0542634 0)
(0.671104 -0.0498668 0)
(0.676321 -0.0455349 0)
(0.680953 -0.0412731 0)
(0.685033 -0.0370855 0)
(0.688596 -0.0329746 0)
(0.691671 -0.0289421 0)
(0.69429 -0.0249884 0)
(0.696481 -0.0211133 0)
(0.698273 -0.0173158 0)
(0.699694 -0.0135943 0)
(0.700768 -0.00994633 0)
(0.701523 -0.0063692 0)
(0.701982 -0.00285956 0)
(0.702174 0.000586639 0)
(0.702116 0.00397521 0)
(0.701834 0.00731325 0)
(0.701349 0.0106078 0)
(0.700683 0.0138656 0)
(0.699859 0.0170936 0)
(0.698896 0.0202986 0)
(0.697816 0.0234878 0)
(0.69664 0.0266679 0)
(0.695389 0.0298456 0)
(0.694082 0.0330275 0)
(0.692742 0.0362193 0)
(0.691387 0.0394265 0)
(0.690038 0.0426536 0)
(0.688714 0.045904 0)
(0.687433 0.0491801 0)
(0.686213 0.0524828 0)
(0.68507 0.0558112 0)
(0.68402 0.059163 0)
(0.683074 0.0625337 0)
(0.682244 0.0659172 0)
(0.681537 0.0693056 0)
(0.680958 0.0726891 0)
(0.680508 0.0760571 0)
(0.680184 0.0793975 0)
(0.679981 0.0826981 0)
(0.67989 0.0859469 0)
(0.679897 0.0891323 0)
(0.679986 0.0922448 0)
(0.68014 0.0952799 0)
(0.0991375 -0.00862627 0)
(0.102416 -0.0171607 0)
(0.106728 -0.024625 0)
(0.112166 -0.0314738 0)
(0.119006 -0.0380073 0)
(0.127343 -0.0445282 0)
(0.137389 -0.051383 0)
(0.149507 -0.0588755 0)
(0.164078 -0.0671562 0)
(0.181333 -0.0761497 0)
(0.201242 -0.085562 0)
(0.223515 -0.0949625 0)
(0.247667 -0.103894 0)
(0.273134 -0.111964 0)
(0.299355 -0.118891 0)
(0.325826 -0.124511 0)
(0.352132 -0.128766 0)
(0.37794 -0.131674 0)
(0.403001 -0.133311 0)
(0.427135 -0.133784 0)
(0.450217 -0.133218 0)
(0.472167 -0.131744 0)
(0.492942 -0.12949 0)
(0.512524 -0.126578 0)
(0.530914 -0.123118 0)
(0.548131 -0.119211 0)
(0.564201 -0.114945 0)
(0.579159 -0.110397 0)
(0.593046 -0.105634 0)
(0.605905 -0.100712 0)
(0.617781 -0.0956796 0)
(0.628719 -0.0905773 0)
(0.638765 -0.0854388 0)
(0.647964 -0.080292 0)
(0.656361 -0.0751599 0)
(0.663997 -0.0700609 0)
(0.670915 -0.0650102 0)
(0.677154 -0.0600196 0)
(0.682753 -0.0550984 0)
(0.687748 -0.0502537 0)
(0.692174 -0.0454906 0)
(0.696066 -0.0408129 0)
(0.699454 -0.0362227 0)
(0.702372 -0.0317214 0)
(0.704847 -0.0273091 0)
(0.706909 -0.0229852 0)
(0.708584 -0.0187485 0)
(0.7099 -0.014597 0)
(0.710883 -0.0105284 0)
(0.711556 -0.00653971 0)
(0.711944 -0.00262769 0)
(0.712073 0.00121246 0)
(0.711962 0.00498693 0)
(0.711633 0.00870245 0)
(0.71111 0.0123657 0)
(0.710412 0.0159831 0)
(0.70956 0.019561 0)
(0.708576 0.0231056 0)
(0.707479 0.0266229 0)
(0.706289 0.0301187 0)
(0.705027 0.0335985 0)
(0.70371 0.0370671 0)
(0.702359 0.0405291 0)
(0.700991 0.043988 0)
(0.699625 0.0474466 0)
(0.698277 0.0509069 0)
(0.696964 0.0543695 0)
(0.695699 0.0578341 0)
(0.694497 0.0612988 0)
(0.693368 0.0647608 0)
(0.692323 0.0682156 0)
(0.691369 0.0716579 0)
(0.690509 0.0750811 0)
(0.689748 0.0784779 0)
(0.689084 0.0818402 0)
(0.688513 0.0851599 0)
(0.688031 0.0884289 0)
(0.687629 0.0916394 0)
(0.687297 0.0947846 0)
(0.687022 0.0978592 0)
(0.686791 0.100863 0)
(0.0989139 -0.00940774 0)
(0.102304 -0.0187937 0)
(0.106654 -0.0270617 0)
(0.112095 -0.0347092 0)
(0.119021 -0.0421047 0)
(0.127634 -0.0496419 0)
(0.138274 -0.0577602 0)
(0.151422 -0.0668079 0)
(0.167492 -0.0768861 0)
(0.186627 -0.0877795 0)
(0.208619 -0.0990157 0)
(0.232976 -0.110011 0)
(0.259054 -0.120216 0)
(0.286185 -0.129208 0)
(0.313764 -0.136721 0)
(0.341285 -0.142632 0)
(0.368348 -0.146928 0)