/*--------------------------------*- C++ -*----------------------------------*\
  =========                 |
  \\      /  F ield         | OpenFOAM: The Open Source CFD Toolbox
   \\    /   O peration     | Website:  https://openfoam.org
    \\  /    A nd           | Version:  7
     \\/     M anipulation  |
\*---------------------------------------------------------------------------*/
FoamFile
{
    version     2.0;
    format      ascii;
    class       volScalarField;
    location    "4.72";
    object      T;
}
// * * * * * * * * * * * * * * * * * * * * * * * * * * * * * * * * * * * * * //

dimensions      [0 0 0 1 0 0 0];

internalField   nonuniform List<scalar> 
12013
(
300.058
300.176
300.297
300.42
300.545
300.671
300.798
300.924
301.051
301.176
301.3
301.423
301.544
301.664
301.782
301.898
302.012
302.124
302.235
302.345
302.453
302.56
302.666
302.771
302.876
302.981
303.087
303.193
303.301
303.411
303.522
303.637
303.756
303.879
304.008
304.142
304.284
304.434
304.593
304.763
304.945
305.14
305.35
305.577
305.823
306.089
306.378
306.692
307.034
307.407
307.813
308.256
308.738
309.265
309.839
310.466
311.149
311.895
312.707
313.593
314.558
315.61
316.756
318.005
319.366
320.849
322.465
324.228
326.15
328.25
330.546
333.059
335.817
338.851
342.2
345.916
350.066
354.744
360.097
366.363
374.004
300.058
300.176
300.297
300.42
300.545
300.672
300.798
300.925
301.051
301.177
301.301
301.424
301.545
301.665
301.782
301.899
302.013
302.125
302.236
302.346
302.454
302.561
302.667
302.772
302.877
302.983
303.088
303.195
303.302
303.412
303.524
303.639
303.757
303.881
304.009
304.144
304.285
304.435
304.594
304.764
304.946
305.141
305.351
305.578
305.823
306.089
306.378
306.692
307.034
307.407
307.812
308.255
308.737
309.263
309.837
310.463
311.146
311.89
312.701
313.586
314.55
315.6
316.744
317.99
319.348
320.827
322.438
324.195
326.11
328.201
330.485
332.984
335.723
338.731
342.045
345.711
349.785
354.344
359.484
365.329
371.987
300.058
300.176
300.297
300.421
300.546
300.672
300.799
300.926
301.052
301.178
301.302
301.425
301.547
301.667
301.785
301.901
302.015
302.128
302.239
302.348
302.457
302.564
302.67
302.775
302.88
302.986
303.091
303.198
303.305
303.415
303.527
303.642
303.76
303.884
304.012
304.146
304.288
304.438
304.597
304.766
304.948
305.143
305.353
305.579
305.825
306.09
306.379
306.693
307.034
307.406
307.811
308.252
308.734
309.259
309.832
310.456
311.137
311.879
312.688
313.57
314.53
315.577
316.716
317.956
319.307
320.778
322.379
324.123
326.023
328.094
330.353
332.821
335.518
338.472
341.712
345.275
349.201
353.537
358.327
363.598
369.309
300.058
300.176
300.298
300.421
300.547
300.674
300.801
300.928
301.054
301.18
301.305
301.428
301.55
301.67
301.788
301.904
302.019
302.132
302.243
302.353
302.461
302.568
302.674
302.78
302.885
302.991
303.096
303.203
303.31
303.42
303.532
303.647
303.765
303.888
304.017
304.151
304.293
304.442
304.601
304.771
304.952
305.146
305.356
305.582
305.827
306.092
306.38
306.693
307.034
307.405
307.808
308.249
308.729
309.252
309.823
310.445
311.123
311.862
312.667
313.544
314.499
315.538
316.67
317.901
319.24
320.697
322.281
324.004
325.879
327.919
330.139
332.556
335.189
338.059
341.188
344.601
348.321
352.369
356.75
361.446
366.381
300.058
300.177
300.298
300.423
300.549
300.676
300.803
300.931
301.058
301.184
301.309
301.432
301.554
301.675
301.793
301.91
302.025
302.138
302.249
302.359
302.468
302.575
302.681
302.787
302.893
302.998
303.104
303.21
303.318
303.427
303.539
303.654
303.773
303.896
304.024
304.158
304.299
304.449
304.607
304.777
304.957
305.152
305.361
305.586
305.831
306.095
306.382
306.694
307.033
307.403
307.805
308.243
308.721
309.242
309.809
310.428
311.102
311.836
312.635
313.505
314.452
315.482
316.602
317.819
319.142
320.579
322.139
323.833
325.672
327.667
329.832
332.18
334.726
337.485
340.471
343.698
347.175
350.903
354.869
359.039
363.345
300.059
300.177
300.3
300.424
300.551
300.678
300.806
300.934
301.062
301.188
301.314
301.438
301.561
301.681
301.8
301.917
302.033
302.146
302.258
302.368
302.477
302.585
302.691
302.797
302.903
303.008
303.114
303.22
303.328
303.438
303.55
303.665
303.783
303.906
304.034
304.168
304.309
304.458
304.616
304.785
304.965
305.159
305.367
305.592
305.835
306.099
306.385
306.695
307.033
307.4
307.8
308.236
308.711
309.228
309.791
310.405
311.073
311.801
312.592
313.453
314.389
315.405
316.51
317.709
319.009
320.42
321.948
323.603
325.395
327.333
329.427
331.688
334.126
336.751
339.569
342.586
345.8
349.203
352.774
356.478
360.261
300.059
300.178
300.301
300.427
300.554
300.682
300.811
300.939
301.067
301.195
301.321
301.446
301.569
301.69
301.81
301.928
302.043
302.157
302.269
302.38
302.489
302.597
302.704
302.81
302.916
303.022
303.127
303.234
303.342
303.452
303.563
303.678
303.797
303.919
304.047
304.181
304.321
304.47
304.628
304.796
304.976
305.168
305.376
305.6
305.842
306.104
306.388
306.697
307.032
307.397
307.794
308.226
308.697
309.21
309.768
310.375
311.036
311.754
312.535
313.384
314.306
315.306
316.39
317.565
318.837
320.214
321.702
323.309
325.043
326.911
328.92
331.079
333.392
335.864
338.499
341.293
344.24
347.327
350.533
353.825
357.165
300.059
300.18
300.303
300.429
300.557
300.686
300.816
300.946
301.075
301.203
301.33
301.456
301.58
301.702
301.822
301.941
302.057
302.172
302.284
302.395
302.505
302.613
302.721
302.827
302.933
303.039
303.145
303.252
303.36
303.469
303.581
303.696
303.814
303.936
304.064
304.197
304.338
304.486
304.643
304.81
304.989
305.181
305.387
305.61
305.85
306.11
306.392
306.699
307.031
307.393
307.786
308.214
308.68
309.186
309.737
310.336
310.988
311.695
312.463
313.297
314.201
315.18
316.239
317.385
318.623
319.959
321.398
322.948
324.613
326.399
328.311
330.354
332.53
334.839
337.28
339.849
342.534
345.323
348.195
351.124
354.081
300.06
300.181
300.306
300.433
300.562
300.692
300.823
300.954
301.084
301.213
301.342
301.468
301.593
301.716
301.838
301.957
302.074
302.19
302.303
302.415
302.525
302.634
302.742
302.849
302.955
303.061
303.167
303.274
303.382
303.492
303.604
303.718
303.836
303.958
304.085
304.218
304.358
304.506
304.662
304.828
305.006
305.197
305.402
305.622
305.861
306.119
306.398
306.701
307.03
307.388
307.776
308.199
308.658
309.157
309.7
310.289
310.929
311.623
312.375
313.19
314.072
315.026
316.056
317.167
318.364
319.651
321.035
322.518
324.105
325.8
327.605
329.522
331.552
333.692
335.938
338.284
340.719
343.23
345.799
348.407
351.029
300.06
300.183
300.309
300.437
300.568
300.7
300.832
300.964
301.096
301.226
301.356
301.484
301.61
301.735
301.857
301.978
302.096
302.212
302.327
302.439
302.55
302.66
302.768
302.875
302.982
303.089
303.195
303.302
303.411
303.52
303.632
303.746
303.864
303.986
304.112
304.245
304.384
304.53
304.686
304.851
305.027
305.216
305.42
305.638
305.874
306.129
306.406
306.705
307.03
307.382
307.765
308.181
308.632
309.123
309.655
310.232
310.857
311.535
312.268
313.061
313.918
314.842
315.837
316.908
318.058
319.291
320.611
322.02
323.522
325.117
326.808
328.594
330.474
332.443
334.497
336.629
338.828
341.083
343.379
345.699
348.028
300.061
300.185
300.313
300.443
300.575
300.709
300.842
300.976
301.11
301.242
301.374
301.503
301.631
301.757
301.881
302.003
302.123
302.24
302.356
302.469
302.581
302.691
302.8
302.908
303.016
303.123
303.23
303.337
303.445
303.555
303.666
303.781
303.898
304.019
304.146
304.277
304.415
304.561
304.715
304.879
305.054
305.241
305.442
305.658
305.891
306.143
306.415
306.71
307.03
307.376
307.752
308.16
308.602
309.082
309.601
310.164
310.773
311.432
312.143
312.911
313.738
314.628
315.583
316.609
317.706
318.879
320.129
321.458
322.868
324.359
325.932
327.583
329.312
331.114
332.982
334.911
336.89
338.911
340.96
343.025
345.092
300.062
300.188
300.318
300.45
300.584
300.72
300.856
300.992
301.127
301.262
301.395
301.527
301.657
301.785
301.91
302.034
302.155
302.274
302.391
302.506
302.619
302.73
302.84
302.949
303.057
303.164
303.272
303.379
303.488
303.597
303.709
303.823
303.94
304.061
304.186
304.317
304.454
304.599
304.751
304.914
305.086
305.271
305.469
305.683
305.912
306.16
306.427
306.717
307.03
307.37
307.738
308.136
308.567
309.034
309.54
310.086
310.676
311.313
311.999
312.738
313.531
314.383
315.295
316.27
317.31
318.417
319.593
320.837
322.152
323.536
324.988
326.506
328.087
329.726
331.418
333.156
334.932
336.739
338.565
340.402
342.239
300.063
300.191
300.323
300.458
300.595
300.733
300.872
301.01
301.148
301.286
301.421
301.556
301.688
301.818
301.946
302.071
302.195
302.315
302.434
302.55
302.665
302.777
302.888
302.998
303.107
303.215
303.322
303.43
303.539
303.649
303.76
303.874
303.991
304.111
304.235
304.365
304.501
304.644
304.795
304.956
305.126
305.308
305.503
305.713
305.938
306.181
306.443
306.727
307.033
307.364
307.722
308.11
308.529
308.982
309.471
309.998
310.567
311.179
311.837
312.543
313.3
314.109
314.974
315.895
316.873
317.911
319.009
320.167
321.384
322.659
323.992
325.379
326.816
328.3
329.826
331.387
332.978
334.59
336.216
337.849
339.48
300.064
300.195
300.33
300.468
300.608
300.749
300.891
301.033
301.174
301.314
301.453
301.59
301.725
301.858
301.989
302.117
302.242
302.365
302.485
302.604
302.72
302.834
302.946
303.057
303.166
303.275
303.384
303.492
303.601
303.711
303.822
303.935
304.052
304.171
304.295
304.424
304.558
304.699
304.849
305.006
305.174
305.353
305.545
305.75
305.971
306.208
306.464
306.74
307.038
307.36
307.707
308.083
308.487
308.924
309.394
309.901
310.446
311.03
311.657
312.328
313.045
313.81
314.624
315.487
316.402
317.368
318.386
319.455
320.575
321.744
322.959
324.219
325.521
326.859
328.229
329.628
331.048
332.485
333.931
335.382
336.829
300.066
300.2
300.339
300.48
300.623
300.768
300.914
301.059
301.204
301.348
301.491
301.632
301.77
301.906
302.04
302.171
302.299
302.424
302.547
302.668
302.786
302.901
303.015
303.127
303.238
303.348
303.457
303.566
303.675
303.785
303.896
304.009
304.125
304.244
304.366
304.494
304.627
304.766
304.913
305.068
305.233
305.408
305.596
305.796
306.011
306.243
306.491
306.759
307.048
307.359
307.694
308.055
308.445
308.863
309.313
309.797
310.315
310.87
311.464
312.097
312.772
313.489
314.25
315.054
315.903
316.797
317.735
318.716
319.74
320.804
321.907
323.047
324.219
325.421
326.649
327.898
329.164
330.442
331.727
333.014
334.299
300.068
300.206
300.349
300.494
300.642
300.791
300.941
301.091
301.241
301.389
301.536
301.681
301.824
301.964
302.101
302.235
302.367
302.495
302.621
302.744
302.864
302.982
303.098
303.211
303.323
303.434
303.544
303.654
303.763
303.873
303.985
304.097
304.212
304.33
304.452
304.578
304.709
304.846
304.99
305.142
305.303
305.475
305.657
305.853
306.062
306.286
306.527
306.785
307.064
307.363
307.685
308.031
308.402
308.802
309.23
309.688
310.178
310.702
311.26
311.854
312.485
313.153
313.859
314.603
315.386
316.207
317.066
317.961
318.892
319.856
320.852
321.878
322.93
324.006
325.103
326.216
327.342
328.477
329.617
330.759
331.898
300.07
300.213
300.361
300.511
300.664
300.819
300.974
301.129
301.284
301.438
301.59
301.74
301.887
302.032
302.173
302.312
302.447
302.58
302.709
302.834
302.957
303.078
303.196
303.311
303.425
303.537
303.648
303.758
303.868
303.979
304.09
304.202
304.316
304.433
304.553
304.678
304.807
304.941
305.083
305.231
305.389
305.556
305.733
305.922
306.124
306.341
306.572
306.821
307.088
307.374
307.681
308.011
308.364
308.742
309.147
309.579
310.04
310.53
311.052
311.605
312.19
312.808
313.459
314.144
314.861
315.611
316.392
317.205
318.046
318.916
319.812
320.731
321.673
322.633
323.609
324.599
325.599
326.606
327.617
328.628
329.638
300.073
300.222
300.375
300.531
300.69
300.851
301.013
301.174
301.336
301.495
301.654
301.809
301.962
302.113
302.259
302.403
302.543
302.679
302.812
302.942
303.068
303.191
303.311
303.429
303.545
303.659
303.771
303.882
303.993
304.103
304.214
304.326
304.44
304.556
304.674
304.797
304.923
305.055
305.194
305.339
305.491
305.653
305.825
306.007
306.202
306.41
306.632
306.87
307.124
307.397
307.688
308
308.334
308.69
309.069
309.474
309.904
310.361
310.845
311.356
311.896
312.465
313.061
313.687
314.34
315.021
315.728
316.461
317.219
318
318.802
319.624
320.463
321.317
322.185
323.063
323.949
324.841
325.737
326.633
327.527
300.076
300.231
300.391
300.555
300.721
300.889
301.058
301.228
301.396
301.564
301.729
301.892
302.051
302.208
302.361
302.51
302.655
302.797
302.934
303.068
303.198
303.325
303.448
303.569
303.686
303.802
303.916
304.028
304.14
304.25
304.361
304.473
304.586
304.7
304.818
304.938
305.062
305.191
305.326
305.467
305.615
305.771
305.937
306.112
306.299
306.497
306.709
306.935
307.177
307.434
307.709
308.003
308.316
308.649
309.003
309.379
309.778
310.201
310.647
311.117
311.612
312.131
312.675
313.243
313.835
314.45
315.087
315.746
316.425
317.123
317.839
318.57
319.317
320.075
320.844
321.622
322.407
323.196
323.988
324.781
325.572
300.08
300.243
300.411
300.583
300.758
300.935
301.113
301.291
301.468
301.644
301.818
301.989
302.156
302.32
302.48
302.636
302.788
302.935
303.078
303.217
303.351
303.482
303.609
303.732
303.853
303.971
304.086
304.2
304.312
304.424
304.535
304.646
304.758
304.872
304.987
305.105
305.227
305.353
305.484
305.62
305.763
305.914
306.072
306.24
306.418
306.607
306.808
307.022
307.25
307.492
307.75
308.025
308.316
308.626
308.955
309.302
309.67
310.058
310.467
310.897
311.348
311.82
312.312
312.826
313.359
313.912
314.483
315.073
315.679
316.301
316.938
317.588
318.249
318.921
319.602
320.29
320.983
321.681
322.381
323.081
323.781
300.085
300.257
300.434
300.616
300.801
300.988
301.177
301.365
301.553
301.739
301.922
302.103
302.28
302.453
302.621
302.785
302.944
303.098
303.247
303.392
303.531
303.667
303.798
303.925
304.048
304.169
304.287
304.402
304.515
304.627
304.739
304.85
304.961
305.073
305.187
305.303
305.422
305.545
305.671
305.803
305.941
306.085
306.237
306.397
306.566
306.745
306.935
307.136
307.349
307.576
307.817
308.072
308.342
308.629
308.931
309.251
309.588
309.943
310.316
310.706
311.115
311.541
311.985
312.447
312.925
313.42
313.931
314.456
314.996
315.548
316.113
316.689
317.274
317.868
318.47
319.077
319.69
320.305
320.923
321.542
322.161
300.09
300.273
300.462
300.655
300.852
301.051
301.252
301.452
301.652
301.85
302.045
302.237
302.425
302.608
302.786
302.959
303.127
303.289
303.445
303.596
303.742
303.883
304.019
304.15
304.277
304.401
304.521
304.638
304.753
304.866
304.978
305.089
305.2
305.311
305.423
305.536
305.652
305.771
305.894
306.021
306.153
306.291
306.436
306.587
306.747
306.916
307.094
307.283
307.482
307.693
307.916
308.152
308.401
308.665
308.942
309.235
309.542
309.864
310.202
310.555
310.924
311.308
311.706
312.12
312.548
312.989
313.444
313.911
314.389
314.879
315.379
315.888
316.405
316.929
317.46
317.996
318.536
319.079
319.624
320.17
320.716
300.096
300.292
300.494
300.701
300.912
301.125
301.34
301.555
301.769
301.981
302.19
302.395
302.595
302.79
302.98
303.163
303.341
303.512
303.677
303.836
303.988
304.135
304.277
304.413
304.545
304.672
304.795
304.915
305.031
305.146
305.258
305.369
305.479
305.589
305.699
305.811
305.924
306.039
306.158
306.28
306.406
306.538
306.675
306.819
306.969
307.127
307.294
307.47
307.655
307.85
308.056
308.273
308.502
308.743
308.997
309.263
309.541
309.833
310.138
310.456
310.788
311.132
311.488
311.857
312.238
312.631
313.035
313.449
313.873
314.306
314.747
315.196
315.653
316.115
316.582
317.054
317.53
318.008
318.489
318.971
319.453
300.104
300.315
300.532
300.755
300.983
301.213
301.444
301.676
301.906
302.135
302.359
302.579
302.794
303.003
303.206
303.402
303.591
303.773
303.947
304.115
304.276
304.43
304.578
304.72
304.857
304.988
305.115
305.237
305.356
305.471
305.584
305.696
305.805
305.914
306.023
306.132
306.243
306.355
306.469
306.586
306.707
306.832
306.962
307.097
307.239
307.387
307.542
307.705
307.876
308.057
308.246
308.445
308.655
308.874
309.104
309.346
309.598
309.861
310.136
310.421
310.718
311.025
311.343
311.672
312.011
312.359
312.717
313.083
313.458
313.84
314.23
314.626
315.028
315.435
315.847
316.262
316.681
317.103
317.526
317.95
318.376
300.112
300.341
300.577
300.819
301.066
301.315
301.567
301.818
302.068
302.315
302.558
302.796
303.028
303.253
303.471
303.681
303.883
304.077
304.263
304.441
304.611
304.774
304.929
305.077
305.219
305.356
305.486
305.612
305.733
305.851
305.965
306.076
306.186
306.294
306.402
306.509
306.616
306.725
306.835
306.947
307.063
307.181
307.304
307.431
307.564
307.702
307.846
307.997
308.156
308.321
308.495
308.677
308.868
309.068
309.276
309.495
309.722
309.959
310.205
310.461
310.726
311.001
311.284
311.576
311.877
312.185
312.502
312.826
313.157
313.494
313.837
314.186
314.54
314.899
315.261
315.627
315.996
316.367
316.739
317.113
317.488
300.123
300.372
300.63
300.894
301.163
301.436
301.71
301.985
302.257
302.526
302.791
303.049
303.301
303.544
303.78
304.006
304.223
304.431
304.63
304.82
305.001
305.173
305.336
305.492
305.641
305.782
305.917
306.047
306.171
306.291
306.406
306.519
306.628
306.736
306.842
306.947
307.052
307.157
307.264
307.372
307.482
307.594
307.71
307.83
307.954
308.082
308.217
308.356
308.502
308.654
308.813
308.98
309.153
309.334
309.524
309.72
309.925
310.138
310.359
310.588
310.825
311.069
311.322
311.581
311.848
312.121
312.401
312.687
312.98
313.277
313.58
313.888
314.199
314.515
314.834
315.156
315.48
315.807
316.135
316.465
316.795
300.135
300.409
300.692
300.982
301.278
301.578
301.879
302.18
302.479
302.774
303.063
303.345
303.619
303.884
304.14
304.385
304.62
304.844
305.057
305.26
305.453
305.635
305.808
305.972
306.128
306.276
306.416
306.55
306.678
306.8
306.917
307.031
307.141
307.248
307.353
307.457
307.559
307.661
307.764
307.868
307.973
308.08
308.189
308.302
308.418
308.538
308.662
308.791
308.926
309.065
309.211
309.363
309.521
309.686
309.857
310.035
310.219
310.411
310.609
310.814
311.025
311.243
311.468
311.698
311.935
312.177
312.425
312.679
312.937
313.2
313.467
313.738
314.013
314.291
314.572
314.855
315.141
315.429
315.718
316.008
316.3
300.149
300.452
300.765
301.086
301.413
301.745
302.078
302.41
302.74
303.064
303.382
303.691
303.992
304.281
304.559
304.826
305.08
305.322
305.552
305.77
305.976
306.17
306.354
306.527
306.691
306.846
306.992
307.13
307.262
307.387
307.507
307.622
307.732
307.839
307.944
308.046
308.146
308.246
308.345
308.445
308.545
308.647
308.751
308.857
308.965
309.077
309.193
309.313
309.437
309.565
309.699
309.838
309.982
310.132
310.287
310.448
310.615
310.787
310.965
311.149
311.338
311.533
311.733
311.939
312.149
312.364
312.584
312.809
313.037
313.27
313.506
313.745
313.988
314.233
314.481
314.732
314.984
315.237
315.492
315.748
316.005
300.166
300.503
300.851
301.209
301.573
301.941
302.311
302.68
303.045
303.404
303.755
304.096
304.426
304.743
305.047
305.338
305.614
305.876
306.124
306.359
306.579
306.787
306.982
307.166
307.338
307.501
307.653
307.797
307.933
308.062
308.184
308.3
308.412
308.519
308.623
308.724
308.823
308.92
309.016
309.113
309.209
309.306
309.405
309.505
309.607
309.712
309.82
309.931
310.046
310.165
310.288
310.416
310.548
310.685
310.826
310.972
311.123
311.279
311.439
311.605
311.775
311.949
312.128
312.312
312.5
312.691
312.887
313.087
313.29
313.496
313.705
313.917
314.132
314.349
314.568
314.789
315.012
315.236
315.462
315.688
315.915
300.185
300.563
300.953
301.353
301.76
302.172
302.585
302.997
303.403
303.801
304.19
304.567
304.931
305.28
305.614
305.931
306.232
306.517
306.785
307.037
307.274
307.496
307.704
307.898
308.08
308.251
308.41
308.56
308.7
308.832
308.957
309.076
309.188
309.296
309.4
309.5
309.598
309.693
309.787
309.881
309.974
310.067
310.161
310.256
310.353
310.452
310.553
310.658
310.765
310.875
310.99
311.108
311.229
311.355
311.484
311.617
311.755
311.896
312.042
312.191
312.345
312.502
312.663
312.828
312.996
313.168
313.343
313.521
313.702
313.885
314.072
314.26
314.451
314.644
314.838
315.034
315.231
315.43
315.629
315.829
316.03
300.209
300.634
301.073
301.523
301.982
302.444
302.908
303.368
303.822
304.266
304.699
305.117
305.519
305.903
306.269
306.617
306.945
307.254
307.544
307.816
308.07
308.307
308.528
308.734
308.926
309.105
309.272
309.427
309.572
309.708
309.836
309.957
310.071
310.18
310.284
310.384
310.481
310.575
310.667
310.758
310.848
310.939
311.029
311.12
311.213
311.307
311.403
311.501
311.602
311.706
311.813
311.923
312.036
312.152
312.271
312.394
312.52
312.649
312.782
312.918
313.058
313.2
313.346
313.495
313.647
313.801
313.958
314.118
314.28
314.445
314.611
314.78
314.95
315.121
315.294
315.469
315.644
315.82
315.997
316.175
316.353
300.236
300.718
301.215
301.724
302.242
302.764
303.286
303.804
304.313
304.809
305.291
305.755
306.2
306.624
307.026
307.406
307.763
308.099
308.412
308.704
308.977
309.23
309.464
309.682
309.884
310.071
310.245
310.407
310.557
310.697
310.828
310.951
311.067
311.177
311.282
311.382
311.478
311.572
311.663
311.753
311.841
311.929
312.017
312.106
312.195
312.285
312.378
312.472
312.568
312.666
312.767
312.87
312.976
313.084
313.196
313.31
313.426
313.546
313.668
313.793
313.921
314.051
314.184
314.32
314.458
314.598
314.74
314.885
315.031
315.179
315.328
315.479
315.632
315.786
315.94
316.096
316.252
316.409
316.567
316.724
316.882
300.269
300.817
301.382
301.961
302.549
303.141
303.731
304.314
304.886
305.442
305.98
306.495
306.987
307.454
307.895
308.31
308.698
309.061
309.398
309.711
310.002
310.27
310.519
310.748
310.96
311.155
311.336
311.503
311.658
311.802
311.937
312.063
312.181
312.292
312.398
312.499
312.596
312.69
312.781
312.87
312.958
313.045
313.131
313.218
313.306
313.394
313.484
313.575
313.667
313.762
313.858
313.956
314.057
314.159
314.264
314.371
314.48
314.592
314.706
314.822
314.94
315.06
315.183
315.307
315.433
315.561
315.691
315.822
315.955
316.089
316.224
316.36
316.497
316.635
316.774
316.914
317.054
317.194
317.334
317.475
317.615
300.308
300.934
301.58
302.241
302.91
303.583
304.251
304.91
305.553
306.177
306.776
307.348
307.892
308.405
308.886
309.337
309.757
310.146
310.507
310.841
311.149
311.432
311.693
311.933
312.153
312.356
312.544
312.716
312.876
313.024
313.162
313.29
313.411
313.525
313.632
313.735
313.833
313.928
314.02
314.11
314.199
314.286
314.373
314.459
314.546
314.634
314.723
314.812
314.903
314.995
315.088
315.183
315.279
315.378
315.477
315.579
315.683
315.788
315.895
316.004
316.114
316.226
316.34
316.455
316.571
316.689
316.808
316.928
317.049
317.171
317.293
317.417
317.541
317.665
317.79
317.915
318.041
318.166
318.291
318.417
318.542
300.353
301.072
301.813
302.569
303.335
304.101
304.859
305.604
306.327
307.024
307.691
308.324
308.921
309.482
310.004
310.49
310.94
311.356
311.738
312.09
312.413
312.709
312.98
313.229
313.457
313.667
313.859
314.037
314.201
314.353
314.494
314.626
314.75
314.866
314.977
315.082
315.183
315.281
315.375
315.467
315.558
315.647
315.735
315.823
315.911
316
316.089
316.178
316.268
316.359
316.45
316.543
316.637
316.732
316.829
316.927
317.026
317.126
317.228
317.33
317.434
317.539
317.646
317.753
317.861
317.969
318.079
318.189
318.3
318.411
318.523
318.635
318.747
318.859
318.972
319.084
319.196
319.308
319.42
319.531
319.643
300.407
301.234
302.086
302.955
303.831
304.704
305.565
306.406
307.217
307.994
308.732
309.427
310.079
310.685
311.246
311.764
312.241
312.677
313.077
313.443
313.777
314.083
314.362
314.618
314.852
315.066
315.263
315.445
315.613
315.769
315.914
316.05
316.177
316.298
316.413
316.522
316.627
316.728
316.827
316.923
317.017
317.109
317.201
317.292
317.382
317.473
317.563
317.653
317.744
317.834
317.926
318.018
318.11
318.203
318.298
318.392
318.488
318.584
318.681
318.779
318.877
318.976
319.076
319.175
319.276
319.377
319.478
319.579
319.68
319.782
319.883
319.984
320.086
320.187
320.287
320.388
320.488
320.588
320.687
320.786
320.884
300.469
301.424
302.405
303.404
304.407
305.402
306.378
307.323
308.229
309.089
309.897
310.652
311.353
312
312.594
313.137
313.632
314.082
314.493
314.867
315.207
315.517
315.801
316.06
316.297
316.515
316.715
316.901
317.073
317.233
317.383
317.524
317.657
317.783
317.903
318.018
318.129
318.236
318.34
318.441
318.54
318.637
318.733
318.828
318.922
319.015
319.107
319.199
319.291
319.382
319.474
319.565
319.657
319.749
319.841
319.933
320.026
320.119
320.211
320.304
320.398
320.491
320.584
320.677
320.77
320.863
320.956
321.049
321.141
321.233
321.325
321.416
321.507
321.597
321.687
321.776
321.865
321.953
322.04
322.127
322.213
300.542
301.643
302.774
303.921
305.068
306.199
307.298
308.354
309.356
310.297
311.169
311.971
312.706
313.377
313.989
314.544
315.048
315.505
315.92
316.296
316.639
316.951
317.236
317.497
317.736
317.957
318.161
318.35
318.526
318.692
318.847
318.993
319.132
319.265
319.391
319.513
319.63
319.743
319.853
319.96
320.065
320.167
320.268
320.366
320.464
320.56
320.655
320.749
320.842
320.934
321.026
321.118
321.209
321.299
321.389
321.479
321.569
321.658
321.746
321.835
321.922
322.01
322.097
322.183
322.269
322.355
322.44
322.524
322.607
322.69
322.773
322.854
322.935
323.015
323.094
323.173
323.25
323.327
323.403
323.478
323.552
300.623
301.891
303.192
304.506
305.812
307.09
308.318
309.474
310.551
311.545
312.457
313.289
314.044
314.728
315.346
315.905
316.409
316.865
317.278
317.652
317.992
318.302
318.586
318.847
319.087
319.309
319.515
319.707
319.887
320.057
320.217
320.369
320.514
320.652
320.785
320.912
321.036
321.155
321.27
321.383
321.493
321.6
321.704
321.807
321.907
322.006
322.103
322.199
322.293
322.386
322.478
322.569
322.659
322.748
322.836
322.923
323.009
323.094
323.178
323.262
323.344
323.426
323.507
323.587
323.665
323.743
323.82
323.897
323.972
324.046
324.119
324.191
324.263
324.333
324.402
324.47
324.538
324.604
324.669
324.733
324.796
300.709
302.155
303.641
305.139
306.606
308.009
309.329
310.556
311.684
312.713
313.646
314.489
315.248
315.931
316.544
317.095
317.59
318.037
318.441
318.808
319.141
319.446
319.725
319.983
320.221
320.442
320.649
320.842
321.025
321.197
321.361
321.516
321.665
321.807
321.945
322.077
322.204
322.328
322.447
322.564
322.677
322.787
322.895
323
323.103
323.203
323.301
323.398
323.493
323.586
323.677
323.767
323.855
323.942
324.028
324.112
324.195
324.276
324.356
324.435
324.513
324.589
324.664
324.738
324.811
324.882
324.952
325.021
325.089
325.156
325.221
325.285
325.348
325.41
325.471
325.531
325.589
325.647
325.703
325.758
325.812
300.782
302.383
304.044
305.687
307.265
308.75
310.129
311.392
312.541
313.578
314.511
315.346
316.094
316.763
317.361
317.897
318.379
318.813
319.205
319.561
319.886
320.183
320.456
320.708
320.943
321.161
321.366
321.559
321.741
321.913
322.077
322.234
322.384
322.528
322.667
322.801
322.93
323.055
323.177
323.295
323.41
323.521
323.63
323.736
323.84
323.941
324.04
324.137
324.231
324.324
324.415
324.504
324.591
324.677
324.76
324.843
324.923
325.002
325.08
325.155
325.23
325.303
325.374
325.444
325.513
325.58
325.645
325.71
325.773
325.835
325.895
325.954
326.012
326.069
326.124
326.178
326.231
326.283
326.334
326.384
326.432
384.19
392.143
398.822
404.636
409.788
414.387
418.497
422.152
425.369
428.15
430.485
432.353
433.721
434.541
434.748
434.253
432.927
430.573
426.863
421.136
411.746
405.375
400.486
396.476
393.057
390.069
387.408
385.007
382.816
380.8
378.93
377.184
375.544
373.997
372.528
371.13
369.792
368.508
367.27
366.075
364.915
363.789
362.69
361.617
360.566
359.535
358.521
357.522
356.536
355.562
354.599
353.644
352.697
351.757
350.823
349.894
348.97
348.05
347.135
346.223
345.315
344.41
343.508
342.61
341.716
340.825
339.938
339.054
338.175
337.301
336.431
335.566
334.706
333.852
333.005
332.164
331.331
330.505
329.689
328.881
328.083
327.296
326.52
325.756
325.005
324.267
323.543
322.833
322.139
321.46
320.798
320.153
319.525
318.914
318.322
317.747
317.191
316.654
316.136
315.636
315.155
314.692
314.249
313.823
313.416
313.026
312.655
312.3
311.962
311.641
311.335
311.045
310.77
310.509
310.261
310.027
309.806
309.597
309.398
309.211
309.034
308.866
308.707
308.557
308.414
308.278
308.149
308.026
307.908
307.795
307.687
307.583
307.482
307.384
307.289
307.196
307.105
307.016
306.928
306.84
306.754
306.668
306.582
306.496
306.409
306.322
306.235
306.147
306.057
305.967
305.876
305.783
305.688
305.593
305.495
305.397
305.296
305.194
305.091
304.987
304.882
379.439
386.352
392.564
398.136
403.147
407.659
411.714
415.334
418.531
421.302
423.637
425.513
426.899
427.748
428
427.572
426.353
424.187
420.857
416.095
409.855
404.454
399.941
396.112
392.796
389.87
387.253
384.882
382.715
380.716
378.859
377.124
375.493
373.953
372.49
371.097
369.763
368.483
367.248
366.055
364.898
363.774
362.677
361.605
360.556
359.526
358.513
357.514
356.53
355.556
354.593
353.639
352.692
351.753
350.819
349.891
348.967
348.047
347.132
346.22
345.312
344.407
343.506
342.608
341.713
340.823
339.935
339.052
338.173
337.299
336.429
335.564
334.704
333.85
333.003
332.162
331.329
330.503
329.686
328.879
328.081
327.294
326.518
325.754
325.003
324.264
323.54
322.831
322.137
321.458
320.796
320.151
319.522
318.912
318.319
317.745
317.189
316.652
316.134
315.634
315.153
314.691
314.247
313.822
313.414
313.025
312.653
312.299
311.961
311.64
311.334
311.044
310.769
310.508
310.261
310.027
309.806
309.596
309.398
309.211
309.034
308.866
308.707
308.557
308.414
308.278
308.149
308.026
307.908
307.796
307.687
307.583
307.482
307.384
307.289
307.196
307.106
307.016
306.928
306.841
306.754
306.668
306.582
306.496
306.41
306.323
306.236
306.147
306.058
305.968
305.876
305.783
305.689
305.593
305.496
305.397
305.297
305.195
305.092
304.987
304.882
375.332
381.25
386.833
392.003
396.752
401.086
405.019
408.557
411.701
414.442
416.767
418.653
420.068
420.971
421.307
421.009
419.99
418.149
415.382
411.641
407.143
402.779
398.837
395.336
392.222
389.43
386.905
384.602
382.485
380.525
378.699
376.988
375.378
373.853
372.405
371.023
369.699
368.427
367.2
366.013
364.861
363.741
362.648
361.58
360.534
359.506
358.495
357.499
356.516
355.544
354.582
353.629
352.684
351.745
350.812
349.884
348.961
348.042
347.127
346.215
345.307
344.403
343.502
342.604
341.71
340.819
339.932
339.049
338.17
337.295
336.425