/*--------------------------------*- C++ -*----------------------------------*\
  =========                 |
  \\      /  F ield         | OpenFOAM: The Open Source CFD Toolbox
   \\    /   O peration     | Website:  https://openfoam.org
    \\  /    A nd           | Version:  7
     \\/     M anipulation  |
\*---------------------------------------------------------------------------*/
FoamFile
{
    version     2.0;
    format      ascii;
    class       surfaceScalarField;
    location    "9.51";
    object      phi;
}
// * * * * * * * * * * * * * * * * * * * * * * * * * * * * * * * * * * * * * //

dimensions      [1 0 -1 0 0 0 0];

internalField   nonuniform List<scalar> 
23692
(
1.19566e-05
-3.22262e-07
1.24997e-05
-5.42959e-07
1.32236e-05
-7.23712e-07
1.40978e-05
-8.74003e-07
1.51013e-05
-1.00325e-06
1.62203e-05
-1.11858e-06
1.74462e-05
-1.22554e-06
1.8775e-05
-1.32833e-06
2.02051e-05
-1.42961e-06
2.1736e-05
-1.53042e-06
2.33668e-05
-1.63023e-06
2.50946e-05
-1.7272e-06
2.69138e-05
-1.81858e-06
2.88157e-05
-1.90124e-06
3.07885e-05
-1.97212e-06
3.28179e-05
-2.02869e-06
3.48877e-05
-2.06913e-06
3.69809e-05
-2.09249e-06
3.90803e-05
-2.09866e-06
4.11693e-05
-2.08822e-06
4.32323e-05
-2.06234e-06
4.52557e-05
-2.02258e-06
4.72272e-05
-1.97073e-06
4.91366e-05
-1.90868e-06
5.09756e-05
-1.8383e-06
5.27378e-05
-1.76136e-06
5.4418e-05
-1.67951e-06
5.6013e-05
-1.59422e-06
5.75205e-05
-1.50678e-06
5.89396e-05
-1.41831e-06
6.027e-05
-1.32973e-06
6.15126e-05
-1.24184e-06
6.26686e-05
-1.15527e-06
6.37398e-05
-1.07053e-06
6.47285e-05
-9.88023e-07
6.56373e-05
-9.0806e-07
6.64688e-05
-8.3087e-07
6.72261e-05
-7.56615e-07
6.79121e-05
-6.85403e-07
6.85301e-05
-6.17294e-07
6.9083e-05
-5.52311e-07
6.9574e-05
-4.90446e-07
7.00063e-05
-4.31665e-07
7.03828e-05
-3.75915e-07
7.07064e-05
-3.23123e-07
7.09801e-05
-2.73202e-07
7.12067e-05
-2.26054e-07
7.13887e-05
-1.81566e-07
7.15288e-05
-1.39618e-07
7.16293e-05
-1.00076e-07
7.16925e-05
-6.27936e-08
7.17205e-05
-2.76114e-08
7.17152e-05
5.62722e-09
7.16784e-05
3.70526e-08
7.16119e-05
6.679e-08
7.15171e-05
9.50024e-08
7.13954e-05
1.21879e-07
7.1248e-05
1.47626e-07
7.10757e-05
1.72468e-07
7.08791e-05
1.96654e-07
7.06587e-05
2.20458e-07
7.04145e-05
2.44192e-07
7.01463e-05
2.6821e-07
6.98533e-05
2.92921e-07
6.95344e-05
3.18808e-07
6.91879e-05
3.46448e-07
6.88111e-05
3.76548e-07
6.8401e-05
4.09992e-07
6.79528e-05
4.47912e-07
6.74608e-05
4.91805e-07
6.69168e-05
5.43709e-07
6.631e-05
6.06499e-07
6.56253e-05
6.84393e-07
6.48411e-05
7.83847e-07
6.39255e-05
9.152e-07
6.28293e-05
1.09584e-06
6.14724e-05
1.35654e-06
5.97169e-05
1.75503e-06
5.73052e-05
2.4113e-06
5.36779e-05
3.62698e-06
6.73903e-06
4.69385e-05
1.27821e-05
-6.56274e-07
1.33588e-05
-1.11958e-06
1.41299e-05
-1.49461e-06
1.5062e-05
-1.80587e-06
1.61328e-05
-2.07374e-06
1.73273e-05
-2.31274e-06
1.86366e-05
-2.53441e-06
2.00563e-05
-2.74752e-06
2.15848e-05
-2.95763e-06
2.32219e-05
-3.16692e-06
2.49665e-05
-3.3743e-06
2.68159e-05
-3.57596e-06
2.87642e-05
-3.76615e-06
3.08019e-05
-3.93832e-06
3.29166e-05
-4.0861e-06
3.50928e-05
-4.20415e-06
3.73131e-05
-4.28868e-06
3.95591e-05
-4.33768e-06
4.18121e-05
-4.35088e-06
4.40542e-05
-4.32953e-06
4.62687e-05
-4.27604e-06
4.84406e-05
-4.19368e-06
5.05568e-05
-4.08616e-06
5.26064e-05
-3.95743e-06
5.45803e-05
-3.81137e-06
5.64714e-05
-3.6517e-06
5.82746e-05
-3.48184e-06
5.9986e-05
-3.30484e-06
6.16034e-05
-3.1234e-06
6.31257e-05
-2.93982e-06
6.45528e-05
-2.75604e-06
6.58854e-05
-2.5737e-06
6.7125e-05
-2.3941e-06
6.82736e-05
-2.21832e-06
6.93335e-05
-2.04719e-06
7.03075e-05
-1.88135e-06
7.11986e-05
-1.72126e-06
7.201e-05
-1.56727e-06
7.27449e-05
-1.4196e-06
7.34066e-05
-1.27836e-06
7.39985e-05
-1.1436e-06
7.4524e-05
-1.01531e-06
7.49864e-05
-8.93413e-07
7.53889e-05
-7.77793e-07
7.57347e-05
-6.683e-07
7.60268e-05
-5.64753e-07
7.62682e-05
-4.66943e-07
7.64618e-05
-3.7464e-07
7.66102e-05
-2.87589e-07
7.67161e-05
-2.05513e-07
7.67818e-05
-1.28111e-07
7.68097e-05
-5.50506e-08
7.68017e-05
1.39854e-08
7.67598e-05
7.92695e-08
7.66858e-05
1.41076e-07
7.65813e-05
1.99742e-07
7.64477e-05
2.55658e-07
7.62863e-05
3.0925e-07
7.60979e-05
3.60978e-07
7.58833e-05
4.1135e-07
7.56429e-05
4.60929e-07
7.53768e-05
5.10346e-07
7.50846e-05
5.60319e-07
7.47658e-05
6.11675e-07
7.44192e-05
6.65381e-07
7.40429e-05
7.22588e-07
7.36346e-05
7.84694e-07
7.31909e-05
8.53429e-07
7.27076e-05
9.30989e-07
7.21789e-05
1.02023e-06
7.15974e-05
1.12497e-06
7.09531e-05
1.25047e-06
7.02329e-05
1.40421e-06
6.94192e-05
1.59716e-06
6.8488e-05
1.846e-06
6.74067e-05
2.17678e-06
6.61313e-05
2.63147e-06
6.46069e-05
3.2791e-06
6.27796e-05
4.2381e-06
6.06892e-05
5.71701e-06
8.00709e-06
5.94207e-05
1.36601e-05
-9.98075e-07
1.42676e-05
-1.72695e-06
1.50838e-05
-2.31062e-06
1.60735e-05
-2.7953e-06
1.72124e-05
-3.21231e-06
1.84844e-05
-3.58432e-06
1.98798e-05
-3.92944e-06
2.13943e-05
-4.26145e-06
2.30263e-05
-4.58912e-06
2.4776e-05
-4.91594e-06
2.66426e-05
-5.24026e-06
2.86234e-05
-5.55606e-06
3.07123e-05
-5.85433e-06
3.28994e-05
-6.1247e-06
3.51711e-05
-6.35708e-06
3.75108e-05
-6.54299e-06
3.98993e-05
-6.67642e-06
4.23166e-05
-6.75416e-06
4.47423e-05
-6.77576e-06
4.71568e-05
-6.74317e-06
4.95419e-05
-6.66021e-06
5.1881e-05
-6.532e-06
5.41601e-05
-6.3644e-06
5.63672e-05
-6.16359e-06
5.84924e-05
-5.93572e-06
6.05281e-05
-5.68659e-06
6.24687e-05
-5.42157e-06
6.43102e-05
-5.14544e-06
6.605e-05
-4.86242e-06
6.76872e-05
-4.5761e-06
6.92215e-05
-4.28954e-06
7.06539e-05
-4.00525e-06
7.19859e-05
-3.7253e-06
7.32197e-05
-3.45134e-06
7.4358e-05
-3.18465e-06
7.54037e-05
-2.92624e-06
7.636e-05
-2.67682e-06
7.72304e-05
-2.43693e-06
7.80184e-05
-2.20688e-06
7.87277e-05
-1.98688e-06
7.93618e-05
-1.77698e-06
7.99243e-05
-1.57715e-06
8.04188e-05
-1.38728e-06
8.08489e-05
-1.20717e-06
8.12178e-05
-1.03659e-06
8.15289e-05
-8.7526e-07
8.17853e-05
-7.22841e-07
8.19902e-05
-5.78975e-07
8.21464e-05
-4.43264e-07
8.22566e-05
-3.15275e-07
8.23235e-05
-1.94537e-07
8.23494e-05
-8.05385e-08
8.23366e-05
2.72049e-08
8.22871e-05
1.29119e-07
8.22028e-05
2.25651e-07
8.20855e-05
3.17334e-07
8.19366e-05
4.0477e-07
8.17575e-05
4.88612e-07
8.1549e-05
5.69568e-07
8.13121e-05
6.4841e-07
8.10471e-05
7.25991e-07
8.07542e-05
8.03263e-07
8.04332e-05
8.813e-07
8.00835e-05
9.61328e-07
7.9704e-05
1.04477e-06
7.92931e-05
1.13331e-06
7.88487e-05
1.22894e-06
7.83678e-05
1.33413e-06
7.78466e-05
1.4519e-06
7.72804e-05
1.58614e-06
7.66632e-05
1.74186e-06
7.59876e-05
1.92571e-06
7.52447e-05
2.14672e-06
7.44242e-05
2.41729e-06
7.3515e-05
2.75482e-06
7.25076e-05
3.18377e-06
7.14002e-05
3.73843e-06
7.02132e-05
4.4656e-06
6.90256e-05
5.42531e-06
6.80644e-05
6.67776e-06
8.21117e-06
6.78599e-05
1.45964e-05
-1.34524e-06
1.52314e-05
-2.36182e-06
1.60907e-05
-3.16977e-06
1.71372e-05
-3.84153e-06
1.83447e-05
-4.4194e-06
1.96956e-05
-4.93487e-06
2.118e-05
-5.41332e-06
2.27932e-05
-5.8741e-06
2.45343e-05
-6.32961e-06
2.64038e-05
-6.78485e-06
2.84019e-05
-7.23759e-06
3.05259e-05
-7.67938e-06
3.27698e-05
-8.09747e-06
3.51231e-05
-8.47714e-06
3.75708e-05
-8.80403e-06
4.00948e-05
-9.06605e-06
4.26738e-05
-9.2546e-06
4.52856e-05
-9.3651e-06
4.79076e-05
-9.39689e-06
5.05181e-05
-9.35273e-06
5.30968e-05
-9.23802e-06
5.56257e-05
-9.06e-06
5.80892e-05
-8.82696e-06
6.04742e-05
-8.5476e-06
6.27699e-05
-8.23054e-06
6.49682e-05
-7.88394e-06
6.70628e-05
-7.51532e-06
6.90497e-05
-7.13135e-06
7.09261e-05
-6.73792e-06
7.26909e-05
-6.34003e-06
7.43442e-05
-5.94192e-06
7.58869e-05
-5.54709e-06
7.73209e-05
-5.15839e-06
7.86485e-05
-4.7781e-06
7.98727e-05
-4.408e-06
8.09968e-05
-4.04945e-06
8.20243e-05
-3.70346e-06
8.29589e-05
-3.37073e-06
8.38045e-05
-3.0517e-06
8.4565e-05
-2.74662e-06
8.52443e-05
-2.45558e-06
8.58464e-05
-2.17851e-06
8.63751e-05
-1.91523e-06
8.68341e-05
-1.6655e-06
8.72271e-05
-1.42896e-06
8.75577e-05
-1.20521e-06
8.78293e-05
-9.93787e-07
8.80451e-05
-7.94189e-07
8.82082e-05
-6.0586e-07
8.83217e-05
-4.28197e-07
8.83882e-05
-2.6055e-07
8.84103e-05
-1.02216e-07
8.83904e-05
4.74621e-08
8.83309e-05
1.89075e-07
8.82336e-05
3.23267e-07
8.81004e-05
4.50788e-07
8.7933e-05
5.72463e-07
8.77326e-05
6.8918e-07
8.75005e-05
8.01892e-07
8.72373e-05
9.11637e-07
8.69439e-05
1.01955e-06
8.66203e-05
1.12688e-06
8.62665e-05
1.23504e-06
8.58822e-05
1.3456e-06
8.54665e-05
1.46039e-06
8.50181e-05
1.5815e-06
8.45355e-05
1.7114e-06
8.40163e-05
1.85303e-06
8.3458e-05
2.00995e-06
8.28573e-05
2.18654e-06
8.22106e-05
2.38822e-06
8.15141e-05
2.62183e-06
8.07644e-05
2.89605e-06
7.99594e-05
3.22188e-06
7.91006e-05
3.61318e-06
7.8197e-05
4.08696e-06
7.72719e-05
4.66299e-06
7.63754e-05
5.36165e-06
7.56021e-05
6.1981e-06
7.51109e-05
7.16847e-06
8.21792e-06
7.51037e-05
1.55961e-05
-1.69652e-06
1.6256e-05
-3.02161e-06
1.71567e-05
-4.07023e-06
1.82592e-05
-4.94369e-06
1.95354e-05
-5.6953e-06
2.09669e-05
-6.36588e-06
2.2543e-05
-6.98888e-06
2.42594e-05
-7.58992e-06
2.6116e-05
-8.18557e-06
2.81145e-05
-8.78263e-06
3.02558e-05
-9.37823e-06
3.25384e-05
-9.96113e-06
3.49559e-05
-1.05142e-05
3.74971e-05
-1.10175e-05
4.01456e-05
-1.14516e-05
4.28807e-05
-1.18002e-05
4.56787e-05
-1.20517e-05
4.85143e-05
-1.21998e-05
5.1362e-05
-1.22437e-05
5.41974e-05
-1.21872e-05
5.69979e-05
-1.20375e-05
5.97434e-05
-1.18045e-05
6.24165e-05
-1.14991e-05
6.5003e-05
-1.11331e-05
6.74912e-05
-1.07177e-05
6.98721e-05
-1.02639e-05
7.21393e-05
-9.78152e-06
7.42883e-05
-9.27936e-06
7.63165e-05
-8.76509e-06
7.82227e-05
-8.2453e-06
8.00072e-05
-7.72548e-06
8.16713e-05
-7.2102e-06
8.3217e-05
-6.70315e-06
8.46471e-05
-6.20727e-06
8.59649e-05
-5.72486e-06
8.7174e-05
-5.25766e-06
8.82784e-05
-4.80695e-06
8.92822e-05
-4.37361e-06
9.01895e-05
-3.9582e-06
9.10048e-05
-3.56104e-06
9.17322e-05
-3.18218e-06
9.2376e-05
-2.82155e-06
9.29404e-05
-2.47889e-06
9.34295e-05
-2.15384e-06
9.38472e-05
-1.84595e-06
9.41974e-05
-1.55468e-06
9.44837e-05
-1.27942e-06
9.47096e-05
-1.01951e-06
9.48786e-05
-7.74209e-07
9.49937e-05
-5.42747e-07
9.50579e-05
-3.2428e-07
9.50741e-05
-1.17902e-07
9.50448e-05
7.72197e-08
9.49724e-05
2.61858e-07
9.48591e-05
4.36881e-07
9.4707e-05
6.03269e-07
9.45176e-05
7.6208e-07
9.42926e-05
9.14434e-07
9.40331e-05
1.06153e-06
9.37403e-05
1.20465e-06
9.34147e-05
1.34519e-06
9.30569e-05
1.48468e-06
9.26672e-05
1.62479e-06
9.22453e-05
1.7674e-06
9.1791e-05
1.91461e-06
9.13035e-05
2.06878e-06
9.07821e-05
2.23266e-06
9.02255e-05
2.40939e-06
8.96325e-05
2.60264e-06
8.9002e-05
2.81671e-06
8.83332e-05
3.05668e-06
8.76262e-05
3.3285e-06
8.68827e-05
3.63912e-06
8.61077e-05
3.99645e-06
8.53112e-05
4.40912e-06
8.45119e-05
4.88581e-06
8.37407e-05
5.4337e-06
8.30462e-05
6.05569e-06
8.2498e-05
6.74575e-06
8.21842e-05
7.48175e-06
8.21443e-06
8.21872e-05
1.66649e-05
-2.0517e-06
1.7348e-05
-3.7046e-06
1.82887e-05
-5.01067e-06
1.94464e-05
-6.10114e-06
2.0792e-05
-7.04044e-06
2.23057e-05
-7.8791e-06
2.39769e-05
-8.65949e-06
2.58019e-05
-9.41437e-06
2.77823e-05
-1.01652e-05
2.99213e-05
-1.0921e-05
3.22219e-05
-1.1678e-05
3.46833e-05
-1.24217e-05
3.72994e-05
-1.31294e-05
4.00577e-05
-1.37748e-05
4.29394e-05
-1.43324e-05
4.59208e-05
-1.47806e-05
4.89742e-05
-1.51041e-05
5.20705e-05
-1.5295e-05
5.51803e-05
-1.53524e-05
5.82757e-05
-1.52816e-05
6.13313e-05
-1.5092e-05
6.43246e-05
-1.47967e-05
6.72363e-05
-1.44098e-05
7.00508e-05
-1.39465e-05
7.27556e-05
-1.34214e-05
7.53411e-05
-1.28483e-05
7.78004e-05
-1.22398e-05
8.01292e-05
-1.1607e-05
8.23248e-05
-1.09596e-05
8.43863e-05
-1.03058e-05
8.63144e-05
-9.65254e-06
8.81107e-05
-9.00543e-06
8.97776e-05
-8.36907e-06
9.13184e-05
-7.74711e-06
9.27369e-05
-7.14237e-06
9.40372e-05
-6.55697e-06
9.52237e-05
-5.99246e-06
9.63009e-05
-5.4499e-06
9.72736e-05
-4.92995e-06
9.81464e-05
-4.43295e-06
9.8924e-05
-3.95896e-06
9.96111e-05
-3.50782e-06
0.000100212
-3.07921e-06
0.000100732
-2.67264e-06
0.000101174
-2.28753e-06
0.000101543
-1.92318e-06
0.000101844
-1.57881e-06
0.000102078
-1.2536e-06
0.000102251
-9.46612e-07
0.000102366
-6.56886e-07
0.000102426
-3.83376e-07
0.000102433
-1.24975e-07
0.000102392
1.19347e-07
0.000102303
3.50555e-07
0.000102171
5.69768e-07
0.000101996
7.78211e-07
0.000101782
9.77171e-07
0.000101528
1.168e-06
0.000101238
1.35212e-06
0.000100912
1.53104e-06
0.000100551
1.70638e-06
0.000100155
1.87989e-06
9.97267e-05
2.05345e-06
9.92649e-05
2.22912e-06
9.87703e-05
2.40915e-06
9.82428e-05
2.59604e-06
9.76828e-05
2.79254e-06
9.70902e-05
3.0017e-06
9.64656e-05
3.22694e-06
9.581e-05
3.472e-06
9.51253e-05
3.74101e-06
9.4415e-05
4.0384e-06
9.36849e-05
4.36874e-06
9.29444e-05
4.73647e-06
9.22077e-05
5.14535e-06
9.14955e-05
5.59753e-06
9.08364e-05
6.09224e-06
9.02677e-05
6.62386e-06
8.98334e-05
7.17954e-06
8.9578e-05
7.73663e-06
8.2607e-06
8.95312e-05
1.78082e-05
-2.41144e-06
1.85138e-05
-4.40998e-06
1.94939e-05
-5.99053e-06
2.07069e-05
-7.31385e-06
2.21228e-05
-8.45581e-06
2.37211e-05
-9.47695e-06
2.54918e-05
-1.04295e-05
2.74327e-05
-1.13546e-05
2.95478e-05
-1.22796e-05
3.18435e-05
-1.32159e-05
3.43251e-05
-1.41587e-05
3.69933e-05
-1.5089e-05
3.98419e-05
-1.5977e-05
4.28564e-05
-1.67883e-05
4.60144e-05
-1.74894e-05
4.92872e-05
-1.80524e-05
5.26421e-05
-1.84579e-05
5.60444e-05
-1.86962e-05
5.946e-05
-1.87669e-05
6.28566e-05
-1.86771e-05
6.62055e-05
-1.84398e-05
6.94815e-05
-1.80715e-05
7.26635e-05
-1.75907e-05
7.57344e-05
-1.70163e-05
7.86811e-05
-1.63669e-05
8.14935e-05
-1.56596e-05
8.41648e-05
-1.491e-05
8.66907e-05
-1.41317e-05
8.90689e-05
-1.33367e-05
9.1299e-05
-1.25348e-05
9.33821e-05
-1.17345e-05
9.53204e-05
-1.09426e-05
9.71171e-05
-1.01646e-05
9.87759e-05
-9.40484e-06
0.000100301
-8.66662e-06
0.000101698
-7.95246e-06
0.00010297
-7.26416e-06
0.000104124
-6.60294e-06
0.000105165
-5.96954e-06
0.000106097
-5.36429e-06
0.000106927
-4.78721e-06
0.000107658
-4.23806e-06
0.000108296
-3.71641e-06
0.000108846
-3.22162e-06
0.000109312
-2.75296e-06
0.000109699
-2.30955e-06
0.000110011
-1.89043e-06
0.000110253
-1.49457e-06
0.000110428
-1.12085e-06
0.00011054
-7.68093e-07
0.000110592
-4.35052e-07
0.000110588
-1.20415e-07
0.000110531
1.77057e-07
0.000110423
4.58554e-07
0.000110268
7.25461e-07
0.000110068
9.7925e-07
0.000109824
1.22143e-06
0.000109538
1.45358e-06
0.000109213
1.6773e-06
0.00010885
1.89432e-06
0.00010845
2.10642e-06
0.000108015
2.31549e-06
0.000107545
2.52356e-06
0.000107041
2.73275e-06
0.000106505
2.94534e-06
0.000105937
3.16376e-06
0.000105338
3.39057e-06
0.000104711
3.6285e-06
0.000104058
3.88039e-06
0.00010338
4.14914e-06
0.000102683
4.43765e-06
0.000101973
4.74862e-06
0.000101256
5.08432e-06
0.000100546
5.44625e-06
9.98565e-05
5.83458e-06
9.92059e-05
6.24752e-06
9.86172e-05
6.68047e-06
9.81153e-05
7.12513e-06
9.77256e-05
7.56873e-06
9.74679e-05
7.99369e-06
8.37867e-06
9.73494e-05
1.9032e-05
-2.77702e-06
1.976e-05
-5.1379e-06
2.078e-05
-7.01019e-06
2.20491e-05
-8.58265e-06
2.3537e-05
-9.94325e-06
2.52236e-05
-1.11629e-05
2.70998e-05
-1.23051e-05
2.91667e-05
-1.34208e-05
3.14322e-05
-1.45443e-05
3.39071e-05
-1.56898e-05
3.66002e-05
-1.68509e-05
3.9514e-05
-1.80019e-05
4.26414e-05
-1.91033e-05
4.5964e-05
-2.01099e-05
4.94538e-05
-2.09782e-05
5.30751e-05
-2.16725e-05
5.67875e-05
-2.21692e-05
6.05496e-05
-2.24571e-05
6.43211e-05
-2.25372e-05
6.8065e-05
-2.24198e-05
7.17487e-05
-2.21222e-05
7.53442e-05
-2.16658e-05
7.88289e-05
-2.10741e-05
8.21848e-05
-2.03709e-05
8.5398e-05
-1.95789e-05
8.84587e-05
-1.87191e-05
9.13603e-05
-1.78104e-05
9.4099e-05
-1.68692e-05
9.66732e-05
-1.59097e-05
9.90833e-05
-1.49437e-05
0.000101331
-1.39811e-05
0.00010342
-1.30299e-05
0.000105353
-1.20966e-05
0.000107135
-1.1186e-05
0.000108772
-1.03021e-05
0.000110268
-9.44774e-06
0.00011163
-8.62486e-06
0.000112863
-7.83483e-06
0.000113973
-7.0784e-06
0.000114965
-6.3559e-06
0.000115846
-5.66726e-06
0.000116621
-5.01213e-06
0.000117296
-4.38991e-06
0.000117875
-3.79981e-06
0.000118364
-3.2409e-06
0.000118767
-2.71211e-06
0.00011909
-2.21228e-06
0.000119336
-1.74014e-06
0.000119511
-1.29438e-06
0.000119617
-8.73592e-07
0.000119659
-4.76322e-07
0.00011964
-1.01065e-07
0.000119564
2.53651e-07
0.000119434
5.89273e-07
0.000119252
9.0747e-07
0.000119022
1.20995e-06
0.000118745
1.49844e-06
0.000118424
1.77468e-06
0.000118062
2.04048e-06
0.000117658
2.29769e-06
0.000117217
2.54823e-06
0.000116738
2.79406e-06
0.000116224
3.03724e-06
0.000115677
3.27987e-06
0.000115098
3.52413e-06
0.00011449
3.77222e-06
0.000113854
4.02638e-06
0.000113193
4.28883e-06
0.000112512
4.56171e-06
0.000111813
4.84696e-06
0.000111104
5.14625e-06
0.000110392
5.46076e-06
0.000109685
5.79095e-06
0.000108994
6.13628e-06
0.000108333
6.49487e-06
0.000107717
6.86312e-06
0.000107162
7.23539e-06
0.000106682
7.60375e-06
0.000106293
7.95801e-06
0.000106
8.28613e-06
8.5757e-06
0.000105802
2.03419e-05
-3.15024e-06
2.10936e-05
-5.88943e-06
2.21547e-05
-8.07096e-06
2.34819e-05
-9.90943e-06
2.50449e-05
-1.15058e-05
2.68248e-05
-1.29422e-05
2.88156e-05
-1.42952e-05
3.10229e-05
-1.56274e-05
3.34612e-05
-1.69817e-05
3.61475e-05
-1.83752e-05
3.90954e-05
-1.97978e-05
4.23083e-05
-2.12138e-05
4.57763e-05
-2.25701e-05
4.94745e-05
-2.3807e-05
5.33657e-05
-2.48682e-05
5.7404e-05
-2.57096e-05
6.15394e-05
-2.63033e-05
6.57216e-05
-2.6638e-05
6.99033e-05
-2.67177e-05
7.40425e-05
-2.65576e-05
7.81026e-05
-2.6181e-05
8.20538e-05
-2.56156e-05
8.58719e-05
-2.48909e-05
8.95385e-05
-2.40362e-05
9.30401e-05
-2.30792e-05
9.63673e-05
-2.2045e-05
9.95144e-05
-2.09561e-05
0.000102478
-1.98319e-05
0.000105259
-1.86888e-05
0.000107857
-1.75407e-05
0.000110276
-1.6399e-05
0.00011252
-1.52727e-05
0.000114594
-1.41691e-05
0.000116503
-1.30939e-05
0.000118254
-1.20513e-05
0.000119852
-1.10445e-05
0.000121304
-1.00757e-05
0.000122616
-9.14612e-06
0.000123796
-8.25665e-06
0.000124848
-7.4075e-06
0.000125781
-6.59846e-06
0.000126599
-5.82904e-06
0.000127308
-5.09844e-06
0.000127915
-4.40568e-06
0.000128425
-3.74959e-06
0.000128842
-3.12889e-06
0.000129173
-2.54217e-06
0.000129422
-1.98795e-06
0.000129593
-1.46467e-06
0.000129691
-9.70703e-07
0.00012972
-5.04373e-07
0.000129683
-6.40165e-08
0.000129585
3.52094e-07
0.000129429
7.45734e-07
0.000129219
1.11885e-06
0.000128956
1.47336e-06
0.000128643
1.81116e-06
0.000128284
2.13418e-06
0.000127881
2.44435e-06
0.000127435
2.74362e-06
0.000126949
3.03397e-06
0.000126426
3.31739e-06
0.000125867
3.59587e-06
0.000125276
3.87142e-06
0.000124654
4.14599e-06
0.000124004
4.4215e-06
0.000123331
4.69976e-06
0.000122637
4.98243e-06
0.000121927
5.27093e-06
0.000121208
5.56637e-06
0.000120484
5.86937e-06
0.000119764
6.18e-06
0.000119057
6.49755e-06
0.000118373
6.82039e-06
0.000117721
7.14581e-06
0.000117114
7.46987e-06
0.000116561
7.78739e-06
0.000116072
8.09202e-06
0.000115653
8.37651e-06
0.000115306
8.63323e-06
8.8554e-06
0.000115025
2.17442e-05
-3.53321e-06
2.25215e-05
-6.66648e-06
2.3626e-05
-9.1752e-06
2.50143e-05
-1.12973e-05
2.66571e-05
-1.31481e-05
2.85381e-05
-1.48226e-05
3.06564e-05
-1.64127e-05
3.30257e-05
-1.79958e-05
3.56696e-05
-1.96246e-05
3.86138e-05
-2.13185e-05
4.18767e-05
-2.30596e-05
4.54611e-05
-2.4797e-05
4.93503e-05
-2.64581e-05
5.35082e-05
-2.79636e-05
5.78839e-05
-2.92426e-05
6.24177e-05
-3.02421e-05
6.70473e-05
-3.09315e-05
7.17126e-05
-3.13019e-05
7.6359e-05
-3.13627e-05
8.09394e-05
-3.11366e-05
8.54145e-05
-3.06547e-05
8.97528e-05
-2.99525e-05
9.39301e-05
-2.90667e-05
9.79283e-05
-2.80329e-05
0.000101735
-2.68842e-05
0.000105341
-2.56503e-05
0.000108744
-2.43572e-05
0.000111941
-2.30275e-05
0.000114934
-2.16799e-05
0.000117725
-2.03302e-05
0.000120318
-1.89911e-05
0.00012272
-1.76728e-05
0.000124935
-1.63833e-05
0.000126971
-1.51289e-05
0.000128836
-1.39141e-05
0.000130535
-1.27422e-05
0.000132076
-1.16156e-05
0.000133467
-1.05356e-05
0.000134714
-9.5029e-06
0.000135825
-8.51751e-06
0.000136807
-7.57912e-06
0.000137666
-6.68699e-06
0.000138409
-5.84011e-06
0.000139042
-5.03724e-06
0.00013957
-4.27698e-06
0.00014
-3.55777e-06
0.000140337
-2.87796e-06
0.000140586
-2.23582e-06
0.000140751
-1.62953e-06
0.000140839
-1.05722e-06
0.000140852
-5.16958e-07
0.000140796
-7.04528e-09
0.000140674
4.74536e-07
0.00014049
9.30076e-07
0.000140248
1.36169e-06
0.00013995
1.77148e-06
0.0001396
2.16149e-06
0.000139201
2.53379e-06
0.000138755
2.8904e-06
0.000138266
3.23334e-06
0.000137736
3.56458e-06
0.000137167
3.88608e-06
0.000136563
4.19973e-06
0.000135927
4.50735e-06
0.000135263
4.81065e-06
0.000134573
5.11122e-06
0.000133862
5.41044e-06
0.000133135
5.70945e-06
0.000132396
6.00908e-06
0.000131652
6.30976e-06
0.00013091
6.61145e-06
0.000130176
6.91353e-06
0.000129458
7.21473e-06
0.000128765
7.51308e-06
0.000128104
7.80585e-06
0.000127484
8.08958e-06
0.000126911
8.36018e-06
0.000126389
8.61309e-06
0.000125921
8.84358e-06
0.000125507
9.04716e-06
9.22043e-06
0.000125141
2.32452e-05
-3.92834e-06
2.40508e-05
-7.47181e-06
2.52022e-05
-1.03263e-05
2.66562e-05
-1.27508e-05
2.83857e-05
-1.4877e-05
3.03793e-05
-1.68154e-05
3.26446e-05
-1.86772e-05
3.52076e-05
-2.05579e-05
3.81053e-05
-2.25213e-05
4.13735e-05
-2.45856e-05
4.50342e-05
-2.67191e-05
4.9085e-05
-2.88466e-05
5.3496e-05
-3.08677e-05
5.82132e-05
-3.26795e-05
6.31667e-05
-3.41948e-05
6.82795e-05
-3.53535e-05
7.34754e-05
-3.61259e-05
7.86842e-05
-3.65091e-05
8.38445e-05
-3.65216e-05
8.89056e-05
-3.61962e-05
9.38266e-05
-3.55741e-05
9.85759e-05
-3.47002e-05
0.00010313
-3.36194e-05
0.000107473
-3.23741e-05
0.000111593
-3.10031e-05
0.000115485
-2.95409e-05
0.000119147
-2.80174e-05
0.000122579
-2.64577e-05
0.000125784
-2.48832e-05
0.000128766
-2.33112e-05
0.000131533
-2.17557e-05
0.000134089
-2.02279e-05
0.000136444
-1.87365e-05
0.000138604
-1.72879e-05
0.000140579
-1.58872e-05
0.000142376
-1.45377e-05
0.000144003
-1.32416e-05
0.000145469
-1.20002e-05
0.000146782
-1.08141e-05
0.000147948
-9.683e-06
0.000148977
-8.60639e-06
0.000149875
-7.58328e-06
0.000150648
-6.61236e-06
0.000151304
-5.6921e-06
0.000151849
-4.82081e-06
0.000152289
-3.99666e-06
0.00015263
-3.21771e-06
0.000152877
-2.48195e-06
0.000153036
-1.78733e-06
0.000153111
-1.13173e-06
0.000153108
-5.13033e-07
0.000153031
7.08263e-08
0.000152884
6.22118e-07
0.000152672
1.14333e-06
0.000152397
1.63685e-06
0.000152064
2.10495e-06
0.000151676
2.54984e-06
0.000151237
2.97366e-06
0.000150749
3.37851e-06
0.000150216
3.76643e-06
0.000149642
4.13935e-06
0.000149029
4.49917e-06
0.000148381
4.84762e-06
0.000147702
5.18634e-06
0.000146996
5.5168e-06
0.000146267
5.84027e-06
0.000145519
6.15776e-06
0.000144758
6.47002e-06
0.00014399
6.77745e-06
0.000143219
7.08009e-06
0.000142452
7.37751e-06
0.000141697
7.66886e-06
0.000140958
7.95276e-06
0.000140243
8.2274e-06
0.000139558
8.49048e-06
0.000138908
8.73937e-06
0.000138296
8.97118e-06
0.000137726
9.18295e-06
0.000137197
9.37187e-06
0.000136708
9.53553e-06
9.67259e-06
0.000136255
2.48517e-05
-4.33823e-06
2.56892e-05
-8.30905e-06
2.68921e-05
-1.15289e-05
2.84183e-05
-1.42764e-05
3.02445e-05
-1.67026e-05
3.23679e-05
-1.8938e-05
3.48099e-05
-2.11183e-05
3.76144e-05
-2.33614e-05
4.08356e-05
-2.57414e-05
4.452e-05
-2.82689e-05
4.86882e-05
-3.0886e-05
5.33241e-05
-3.34812e-05
5.83754e-05
-3.59176e-05
6.37623e-05
-3.8065e-05
6.93908e-05
-3.98217e-05
7.51643e-05
-4.11255e-05
8.09925e-05
-4.19525e-05
8.67961e-05
-4.23112e-05
9.25094e-05
-4.22332e-05
9.80796e-05
-4.17647e-05
0.000103466
-4.0959e-05
0.000108639
-3.98717e-05
0.000113578
-3.85564e-05
0.000118269
-3.70629e-05
0.000122703
-3.5436e-05
0.000126879
-3.37147e-05
0.000130796
-3.19325e-05
0.000134457
-3.01173e-05
0.000137868
-2.82926e-05
0.000141035
-2.64771e-05
0.000143967
-2.46859e-05
0.000146672
-2.29311e-05
0.000149159
-2.12216e-05
0.000151437
-1.95644e-05
0.000153515
-1.79643e-05
0.000155404
-1.64247e-05
0.000157112
-1.49478e-05
0.000158647
-1.35345e-05
0.00016002
-1.21852e-05
0.000161238
-1.08994e-05
0.000162309
-9.67616e-06
0.000163241
-8.51421e-06
0.000164042
-7.41189e-06
0.000164719
-6.36737e-06
0.000165278
-5.3786e-06
0.000165726
-4.44344e-06
0.000166069
-3.55966e-06
0.000166313
-2.72496e-06
0.000166464
-1.93701e-06
0.000166526
-1.19346e-06
0.000166506
-4.91987e-07
0.000166408
1.69846e-07
0.000166236
7.94595e-07
0.000165996
1.38495e-06
0.00016569
1.94348e-06
0.000165323
2.47265e-06
0.000164898
2.97475e-06
0.00016442
3.45203e-06
0.000163893
3.90661e-06
0.000163319
4.34052e-06
0.000162703
4.75567e-06
0.000162048
5.15383e-06
0.000161359
5.53664e-06
0.00016064
5.90554e-06
0.000159895
6.26178e-06
0.000159129
6.60641e-06
0.000158346
6.94018e-06
0.000157553
7.26359e-06
0.000156753
7.57683e-06
0.000155953
7.87975e-06
0.000155158
8.17185e-06
0.000154374
8.45233e-06
0.000153607
8.72004e-06
0.00015286
8.97355e-06
0.000152139
9.21124e-06
0.000151446
9.43132e-06
0.000150785
9.63202e-06
0.000150155
9.81164e-06
0.000149558
9.96875e-06
0.00014899
1.01023e-05
1.02122e-05
0.00014845
2.65708e-05
-4.76578e-06
2.74447e-05
-9.18274e-06
2.87053e-05
-1.27891e-05
3.03127e-05
-1.58833e-05
3.22508e-05
-1.86399e-05
3.45302e-05
-2.12166e-05
3.71939e-05
-2.3781e-05
4.03104e-05
-2.64768e-05
4.39544e-05
-2.93841e-05
4.8179e-05
-3.24922e-05
5.29934e-05
-3.5699e-05
5.83547e-05
-3.88411e-05
6.41767e-05
-4.1738e-05
7.03461e-05
-4.42328e-05
7.67415e-05
-4.62155e-05
8.3247e-05
-4.76292e-05
8.97601e-05
-4.84638e-05
9.61956e-05
-4.87449e-05
0.000102486
-4.85216e-05
0.000108579
-4.78561e-05
0.000114437
-4.68155e-05
0.000120034
-4.54669e-05
0.000125353
-4.38733e-05
0.000130384
-4.20918e-05
0.000135123
-4.0173e-05
0.00013957
-3.81601e-05
0.00014373
-3.60901e-05
0.000147607
-3.39933e-05
0.000151212
-3.18949e-05
0.000154551
-2.98148e-05
0.000157636
-2.77691e-05
0.000160477
-2.57702e-05
0.000163084
-2.38272e-05
0.000165469
-2.19473e-05
0.000167641
-2.01351e-05
0.000169612
-1.83939e-05
0.000171392
-1.67255e-05
0.000172989
-1.51306e-05
0.000174415
-1.36092e-05
0.000175677
-1.21603e-05
0.000176786
-1.07828e-05
0.000177748
-9.47485e-06
0.000178572
-8.2345e-06
0.000179265
-7.05949e-06
0.000179835
-5.94744e-06
0.000180289
-4.89584e-06
0.000180633
-3.90214e-06
0.000180873
-2.96373e-06
0.000181015
-2.07801e-06
0.000181065
-1.24237e-06
0.000181028
-4.54254e-07
0.00018091
2.89112e-07
0.000180715
9.90583e-07
0.000180448
1.65305e-06
0.000180113
2.27926e-06
0.000179714
2.87177e-06
0.000179257
3.43301e-06
0.000178744
3.96527e-06
0.00017818
4.4707e-06
0.00017757
4.95133e-06
0.000176917
5.40901e-06
0.000176225
5.84545e-06
0.0001755
6.26216e-06
0.000174745
6.66046e-06
0.000173966
7.04148e-06
0.000173166
7.4061e-06
0.000172351
7.75497e-06
0.000171526
8.08848e-06
0.000170696
8.40678e-06
0.000169865
8.70974e-06
0.00016904
8.99701e-06
0.000168224
9.26801e-06
0.000167421
9.52199e-06
0.000166636
9.75803e-06
0.000165872
9.97518e-06
0.00016513
1.01725e-05
0.000164413
1.0349e-05
0.00016372
1.0504e-05
0.000163051
1.06371e-05
0.000162404
1.0748e-05
1.08374e-05
0.000161778
2.841e-05
-5.21422e-06
2.93262e-05
-1.00987e-05
3.06528e-05
-1.41152e-05
3.23546e-05
-1.75845e-05
3.4427e-05
-2.07116e-05
3.69029e-05
-2.36916e-05
3.98561e-05
-2.67332e-05
4.33873e-05
-3.00068e-05
4.75904e-05
-3.3586e-05
5.25143e-05
-3.74147e-05
5.81396e-05
-4.13228e-05
6.43802e-05
-4.508e-05
7.1104e-05
-4.84602e-05
7.81599e-05
-5.12869e-05
8.53992e-05
-5.3453e-05
9.26896e-05
-5.49178e-05
9.99209e-05
-5.56932e-05
0.000107006
-5.58281e-05
0.000113879
-5.53926e-05
0.000120492
-5.44672e-05
0.000126812
-5.31339e-05
0.000132819
-5.14716e-05
0.000138501
-4.95527e-05
0.000143852
-4.74413e-05
0.000148874
-4.51933e-05
0.000153572
-4.2856e-05
0.000157953
-4.04689e-05
0.000162027
-3.80647e-05
0.000165803
-3.56697e-05
0.000169296
-3.33049e-05
0.000172515
-3.09866e-05
0.000175474
-2.87275e-05
0.000178186
-2.65368e-05
0.000180662
-2.44213e-05
0.000182914
-2.23855e-05
0.000184954
-2.04323e-05
0.000186793
-1.8563e-05
0.000188442
-1.67779e-05
0.000189911
-1.50764e-05
0.00019121
-1.34574e-05
0.000192348
-1.19189e-05
0.000193334
-1.04589e-05
0.000194176
-9.07486e-06
0.000194882
-7.76412e-06
0.00019546
-6.52389e-06
0.000195917
-5.3513e-06
0.000196259
-4.24344e-06
0.000196494
-3.19737e-06
0.000196628
-2.21019e-06
0.000196666
-1.27904e-06
0.000196614
-4.01106e-07
0.000196477
4.26706e-07
0.000196261
1.20754e-06
0.000195971
1.94448e-06
0.00019561
2.64041e-06
0.000195185
3.298e-06
0.000194699
3.91979e-06
0.000194157
4.5081e-06
0.000193563
5.06513e-06
0.000192922
5.59288e-06
0.000192238
6.09321e-06
0.000191516
6.56775e-06
0.00019076
7.01798e-06
0.000189976
7.44517e-06
0.000189167
7.85037e-06
0.000188339
8.23443e-06
0.000187496
8.59799e-06
0.000186642
8.9415e-06
0.000185784
9.26518e-06
0.000184924
9.56909e-06
0.000184068
9.85314e-06
0.000183218
1.01171e-05
0.000182379
1.03606e-05
0.000181554
1.05833e-05
0.000180743
1.07849e-05
0.00017995
1.09651e-05
0.000179175
1.11236e-05
0.000178418
1.12604e-05
0.000177679
1.13757e-05
0.000176956
1.14699e-05
1.15441e-05
0.000176249
3.03778e-05
-5.68737e-06
3.13435e-05
-1.10641e-05
3.27475e-05
-1.55187e-05
3.45628e-05
-1.93992e-05
3.68043e-05
-2.29521e-05
3.95383e-05
-2.64246e-05
4.28818e-05
-3.00756e-05
4.6972e-05
-3.40957e-05
5.19129e-05
-3.85254e-05
5.77281e-05
-4.32283e-05
6.43459e-05
-4.79388e-05
7.16193e-05
-5.23518e-05
7.93635e-05
-5.62025e-05
8.73892e-05
-5.93106e-05
9.55251e-05
-6.1587e-05
0.000103629
-6.30193e-05
0.000111588
-6.365e-05
0.000119318
-6.3556e-05
0.000126759
-6.28315e-05
0.00013387
-6.15763e-05
0.000140626
-5.98877e-05
0.000147013
-5.78564e-05
0.000153026
-5.55633e-05
0.000158666
-5.30793e-05
0.00016394
-5.04648e-05
0.000168857
-4.77704e-05
0.000173428
-4.50381e-05
0.000177667
-4.23019e-05
0.000181589
-3.95888e-05
0.000185206
-3.69205e-05
0.000188535
-3.43132e-05
0.000191589
-3.17796e-05
0.000194383
-2.93285e-05
0.00019693
-2.69663e-05
0.000199244
-2.46971e-05
0.000201337
-2.2523e-05
0.000203221
-2.0445e-05
0.000204907
-1.84627e-05
0.000206408
-1.6575e-05
0.000207732
-1.478e-05
0.000208891
-1.30754e-05
0.000209892
-1.14586e-05
0.000210745
-9.92645e-06
0.000211459
-8.47596e-06
0.000212041
-7.10386e-06
0.000212498
-5.80686e-06
0.000212837
-4.58167e-06
0.000213067
-3.42502e-06
0.000213191
-2.33369e-06
0.000213218
-1.30454e-06
0.000213153
-3.34488e-07
0.000213001
5.79854e-07
0.000212768
1.4419e-06
0.000212458
2.25491e-06
0.000212078
3.02191e-06
0.000211631
3.74569e-06
0.000211123
4.42883e-06
0.000210558
5.07377e-06
0.000209941
5.68271e-06
0.000209277
6.25771e-06
0.00020857
6.80061e-06
0.000207825
7.31306e-06
0.000207047
7.79655e-06
0.00020624
8.25234e-06
0.000205409
8.68153e-06
0.000204558
9.08503e-06
0.000203693
9.46357e-06