/*--------------------------------*- C++ -*----------------------------------*\
  =========                 |
  \\      /  F ield         | OpenFOAM: The Open Source CFD Toolbox
   \\    /   O peration     | Website:  https://openfoam.org
    \\  /    A nd           | Version:  7
     \\/     M anipulation  |
\*---------------------------------------------------------------------------*/
FoamFile
{
    version     2.0;
    format      ascii;
    class       surfaceScalarField;
    location    "3.09";
    object      phi;
}
// * * * * * * * * * * * * * * * * * * * * * * * * * * * * * * * * * * * * * //

dimensions      [1 0 -1 0 0 0 0];

internalField   nonuniform List<scalar> 
23692
(
1.17621e-05
-1.27243e-07
1.19923e-05
-2.30148e-07
1.23114e-05
-3.18996e-07
1.27057e-05
-3.94262e-07
1.31649e-05
-4.59063e-07
1.36806e-05
-5.15501e-07
1.42458e-05
-5.65072e-07
1.4855e-05
-6.08964e-07
1.55033e-05
-6.4808e-07
1.61866e-05
-6.83098e-07
1.69014e-05
-7.1452e-07
1.76443e-05
-7.42713e-07
1.84125e-05
-7.67944e-07
1.92031e-05
-7.90404e-07
2.00135e-05
-8.10236e-07
2.08412e-05
-8.27549e-07
2.16838e-05
-8.42435e-07
2.2539e-05
-8.54975e-07
2.34043e-05
-8.65251e-07
2.42777e-05
-8.7335e-07
2.51571e-05
-8.7936e-07
2.60405e-05
-8.83379e-07
2.69259e-05
-8.85511e-07
2.78117e-05
-8.85865e-07
2.8696e-05
-8.84555e-07
2.95775e-05
-8.81696e-07
3.04546e-05
-8.77407e-07
3.1326e-05
-8.71803e-07
3.21906e-05
-8.64999e-07
3.30471e-05
-8.57108e-07
3.38948e-05
-8.48235e-07
3.47326e-05
-8.38484e-07
3.55597e-05
-8.2795e-07
3.63756e-05
-8.1672e-07
3.71795e-05
-8.04879e-07
3.7971e-05
-7.92501e-07
3.87495e-05
-7.79652e-07
3.95146e-05
-7.66393e-07
4.0266e-05
-7.52775e-07
4.10034e-05
-7.38843e-07
4.17265e-05
-7.24633e-07
4.24351e-05
-7.10175e-07
4.31288e-05
-6.9549e-07
4.38075e-05
-6.80592e-07
4.44711e-05
-6.65488e-07
4.51192e-05
-6.50179e-07
4.57517e-05
-6.34655e-07
4.63683e-05
-6.18901e-07
4.69688e-05
-6.02895e-07
4.7553e-05
-5.86607e-07
4.81204e-05
-5.69997e-07
4.86708e-05
-5.53018e-07
4.92036e-05
-5.35614e-07
4.97185e-05
-5.1772e-07
5.02148e-05
-4.99259e-07
5.0692e-05
-4.80142e-07
5.11491e-05
-4.60269e-07
5.15855e-05
-4.39523e-07
5.2e-05
-4.17768e-07
5.23915e-05
-3.94849e-07
5.27587e-05
-3.70583e-07
5.31e-05
-3.44758e-07
5.34136e-05
-3.1712e-07
5.36974e-05
-2.87363e-07
5.39489e-05
-2.55116e-07
5.41652e-05
-2.19921e-07
5.43428e-05
-1.812e-07
5.44773e-05
-1.38214e-07
5.45636e-05
-8.99994e-08
5.45952e-05
-3.52755e-08
5.45637e-05
2.77452e-08
5.44583e-05
1.01735e-07
5.4264e-05
1.90656e-07
5.39597e-05
3.00595e-07
5.35147e-05
4.41357e-07
5.28817e-05
6.29481e-07
5.1984e-05
8.94233e-07
5.06902e-05
1.29041e-06
4.87554e-05
1.93144e-06
4.56534e-05
3.09877e-06
5.972e-06
3.96783e-05
1.25828e-05
-2.60481e-07
1.28281e-05
-4.75384e-07
1.31688e-05
-6.59635e-07
1.35901e-05
-8.15413e-07
1.40808e-05
-9.49584e-07
1.46319e-05
-1.06643e-06
1.5236e-05
-1.16905e-06
1.58872e-05
-1.25991e-06
1.65802e-05
-1.34088e-06
1.73107e-05
-1.41336e-06
1.80748e-05
-1.4784e-06
1.88691e-05
-1.53675e-06
1.96904e-05
-1.58897e-06
2.05356e-05
-1.63545e-06
2.14021e-05
-1.67649e-06
2.22871e-05
-1.71232e-06
2.31879e-05
-1.74311e-06
2.41021e-05
-1.76905e-06
2.50273e-05
-1.7903e-06
2.59611e-05
-1.80703e-06
2.69012e-05
-1.81945e-06
2.78455e-05
-1.82773e-06
2.8792e-05
-1.83211e-06
2.97388e-05
-1.8328e-06
3.06841e-05
-1.83005e-06
3.16263e-05
-1.82408e-06
3.25637e-05
-1.81515e-06
3.3495e-05
-1.8035e-06
3.44189e-05
-1.78936e-06
3.53341e-05
-1.77296e-06
3.62398e-05
-1.75453e-06
3.71348e-05
-1.73427e-06
3.80184e-05
-1.71239e-06
3.88899e-05
-1.68906e-06
3.97484e-05
-1.66446e-06
4.05935e-05
-1.63875e-06
4.14247e-05
-1.61205e-06
4.22415e-05
-1.5845e-06
4.30435e-05
-1.5562e-06
4.38304e-05
-1.52724e-06
4.46018e-05
-1.4977e-06
4.53575e-05
-1.46764e-06
4.60972e-05
-1.4371e-06
4.68207e-05
-1.40611e-06
4.75279e-05
-1.37469e-06
4.82183e-05
-1.34283e-06
4.88918e-05
-1.31052e-06
4.95482e-05
-1.27772e-06
5.01872e-05
-1.2444e-06
5.08084e-05
-1.21047e-06
5.14116e-05
-1.17588e-06
5.19962e-05
-1.14052e-06
5.25619e-05
-1.10426e-06
5.31082e-05
-1.06699e-06
5.36343e-05
-1.02855e-06
5.41397e-05
-9.88741e-07
5.46235e-05
-9.47373e-07
5.50847e-05
-9.04203e-07
5.55224e-05
-8.58959e-07
5.59354e-05
-8.11325e-07
5.63221e-05
-7.60933e-07
5.6681e-05
-7.07355e-07
5.70102e-05
-6.5008e-07
5.73075e-05
-5.88502e-07
5.75705e-05
-5.21882e-07
5.7796e-05
-4.49316e-07
5.79805e-05
-3.69671e-07
5.81199e-05
-2.81506e-07
5.82089e-05
-1.82958e-07
5.82412e-05
-7.15627e-08
5.82089e-05
5.6031e-08
5.81021e-05
2.04628e-07
5.79076e-05
3.81171e-07
5.76084e-05
5.95941e-07
5.71812e-05
8.64625e-07
5.6595e-05
1.21187e-06
5.58082e-05
1.67737e-06
5.47686e-05
2.32634e-06
5.3426e-05
3.2704e-06
5.18183e-05
4.70304e-06
6.86858e-06
5.09184e-05
1.346e-05
-3.99249e-07
1.37206e-05
-7.35866e-07
1.40832e-05
-1.02214e-06
1.45322e-05
-1.26432e-06
1.50556e-05
-1.47283e-06
1.56437e-05
-1.65437e-06
1.62887e-05
-1.81379e-06
1.69839e-05
-1.95493e-06
1.7724e-05
-2.08069e-06
1.85042e-05
-2.19327e-06
1.93203e-05
-2.29427e-06
2.01687e-05
-2.38489e-06
2.10459e-05
-2.46597e-06
2.19489e-05
-2.53814e-06
2.28745e-05
-2.60184e-06
2.38198e-05
-2.65744e-06
2.47821e-05
-2.70522e-06
2.57587e-05
-2.74545e-06
2.67469e-05
-2.77839e-06
2.77442e-05
-2.80431e-06
2.87483e-05
-2.82351e-06
2.97569e-05
-2.8363e-06
3.07677e-05
-2.843e-06
3.17787e-05
-2.84397e-06
3.27881e-05
-2.83958e-06
3.37939e-05
-2.8302e-06
3.47946e-05
-2.81621e-06
3.57887e-05
-2.79797e-06
3.67747e-05
-2.77586e-06
3.77513e-05
-2.75024e-06
3.87176e-05
-2.72145e-06
3.96723e-05
-2.68982e-06
4.06147e-05
-2.65565e-06
4.15439e-05
-2.61923e-06
4.24591e-05
-2.58082e-06
4.33599e-05
-2.54066e-06
4.42454e-05
-2.49896e-06
4.51154e-05
-2.45592e-06
4.59694e-05
-2.41171e-06
4.6807e-05
-2.36645e-06
4.76278e-05
-2.32028e-06
4.84315e-05
-2.27328e-06
4.92179e-05
-2.22551e-06
4.99867e-05
-2.17704e-06
5.07377e-05
-2.12787e-06
5.14705e-05
-2.078e-06
5.21849e-05
-2.02741e-06
5.28807e-05
-1.97606e-06
5.35574e-05
-1.92386e-06
5.42148e-05
-1.87072e-06
5.48525e-05
-1.81652e-06
5.54701e-05
-1.76111e-06
5.6067e-05
-1.70431e-06
5.66426e-05
-1.64592e-06
5.71964e-05
-1.58571e-06
5.77276e-05
-1.52339e-06
5.82354e-05
-1.45866e-06
5.87187e-05
-1.39116e-06
5.91765e-05
-1.32048e-06
5.96075e-05
-1.24614e-06
6.00103e-05
-1.1676e-06
6.03832e-05
-1.08423e-06
6.07244e-05
-9.95274e-07
6.10316e-05
-8.99846e-07
6.13025e-05
-7.9688e-07
6.15341e-05
-6.85078e-07
6.17231e-05
-5.62833e-07
6.18655e-05
-4.28132e-07
6.19567e-05
-2.78403e-07
6.19912e-05
-1.10313e-07
6.19625e-05
8.05062e-08
6.18628e-05
3.0001e-07
6.16834e-05
5.56436e-07
6.14138e-05
8.61289e-07
6.10435e-05
1.23078e-06
6.05635e-05
1.68786e-06
5.9972e-05
2.2648e-06
5.92887e-05
3.00575e-06
5.85879e-05
3.96736e-06
5.80824e-05
5.20481e-06
6.69294e-06
5.82544e-05
1.43983e-05
-5.43568e-07
1.46739e-05
-1.01145e-06
1.50588e-05
-1.40687e-06
1.55364e-05
-1.74179e-06
1.60937e-05
-2.03002e-06
1.67205e-05
-2.28089e-06
1.74081e-05
-2.50116e-06
1.81495e-05
-2.69614e-06
1.8939e-05
-2.86987e-06
1.97713e-05
-3.02536e-06
2.06422e-05
-3.16486e-06
2.15476e-05
-3.28999e-06
2.24838e-05
-3.40194e-06
2.34475e-05
-3.50157e-06
2.44354e-05
-3.5895e-06
2.54444e-05
-3.66621e-06
2.64715e-05
-3.73211e-06
2.75138e-05
-3.78756e-06
2.85685e-05
-3.83294e-06
2.96329e-05
-3.86861e-06
3.07044e-05
-3.89497e-06
3.17805e-05
-3.91246e-06
3.2859e-05
-3.92154e-06
3.39376e-05
-3.92269e-06
3.50142e-05
-3.91642e-06
3.60869e-05
-3.90324e-06
3.7154e-05
-3.88367e-06
3.82138e-05
-3.85824e-06
3.92649e-05
-3.82744e-06
4.03058e-05
-3.79177e-06
4.13353e-05
-3.7517e-06
4.23523e-05
-3.7077e-06
4.33559e-05
-3.66017e-06
4.43451e-05
-3.60951e-06
4.53192e-05
-3.55609e-06
4.62775e-05
-3.50023e-06
4.72194e-05
-3.44222e-06
4.81443e-05
-3.38234e-06
4.90517e-05
-3.32081e-06
4.99413e-05
-3.25782e-06
5.08127e-05
-3.19353e-06
5.16655e-05
-3.12807e-06
5.24993e-05
-3.06153e-06
5.3314e-05
-2.99397e-06
5.41092e-05
-2.92543e-06
5.48845e-05
-2.8559e-06
5.56398e-05
-2.78535e-06
5.63747e-05
-2.7137e-06
5.70888e-05
-2.64087e-06
5.77818e-05
-2.56672e-06
5.84532e-05
-2.49108e-06
5.91026e-05
-2.41376e-06
5.97294e-05
-2.33452e-06
6.03331e-05
-2.25309e-06
6.0913e-05
-2.16914e-06
6.14682e-05
-2.08232e-06
6.19979e-05
-1.99221e-06
6.25012e-05
-1.89834e-06
6.29769e-05
-1.80017e-06
6.34237e-05
-1.69708e-06
6.38404e-05
-1.58837e-06
6.42251e-05
-1.47323e-06
6.45763e-05
-1.3507e-06
6.48917e-05
-1.21966e-06
6.51692e-05
-1.0788e-06
6.54062e-05
-9.26518e-07
6.55998e-05
-7.60885e-07
6.57466e-05
-5.79526e-07
6.58432e-05
-3.79483e-07
6.58853e-05
-1.57032e-07
6.58688e-05
9.24635e-08
6.57894e-05
3.74942e-07
6.56431e-05
6.98148e-07
6.54278e-05
1.07209e-06
6.51447e-05
1.50948e-06
6.48021e-05
2.02606e-06
6.44224e-05
2.64021e-06
6.4053e-05
3.37095e-06
6.37839e-05
4.23229e-06
6.37656e-05
5.21909e-06
6.27213e-06
6.41825e-05
1.5402e-05
-6.93626e-07
1.56928e-05
-1.30218e-06
1.61003e-05
-1.81427e-06
1.66073e-05
-2.24864e-06
1.71998e-05
-2.62238e-06
1.78667e-05
-2.94758e-06
1.85989e-05
-3.23306e-06
1.93887e-05
-3.48573e-06
2.023e-05
-3.71083e-06
2.11172e-05
-3.91228e-06
2.20456e-05
-4.09299e-06
2.3011e-05
-4.25506e-06
2.40094e-05
-4.40004e-06
2.50371e-05
-4.52902e-06
2.60907e-05
-4.64282e-06
2.71669e-05
-4.74207e-06
2.82623e-05
-4.82729e-06
2.93739e-05
-4.89896e-06
3.04986e-05
-4.95754e-06
3.16336e-05
-5.00352e-06
3.27761e-05
-5.03743e-06
3.39235e-05
-5.05981e-06
3.50732e-05
-5.07128e-06
3.62228e-05
-5.07246e-06
3.73701e-05
-5.06399e-06
3.85131e-05
-5.04656e-06
3.96499e-05
-5.02083e-06
4.07787e-05
-4.98747e-06
4.18978e-05
-4.94714e-06
4.30058e-05
-4.90048e-06
4.41014e-05
-4.84811e-06
4.51834e-05
-4.7906e-06
4.62508e-05
-4.7285e-06
4.73025e-05
-4.66232e-06
4.83377e-05
-4.59254e-06
4.93556e-05
-4.51956e-06
5.03557e-05
-4.44378e-06
5.13373e-05
-4.36553e-06
5.22998e-05
-4.28511e-06
5.32429e-05
-4.20276e-06
5.4166e-05
-4.1187e-06
5.50689e-05
-4.03308e-06
5.59511e-05
-3.94602e-06
5.68123e-05
-3.85762e-06
5.76522e-05
-3.76789e-06
5.84705e-05
-3.67685e-06
5.92668e-05
-3.58445e-06
6.00407e-05
-3.49061e-06
6.07919e-05
-3.3952e-06
6.152e-05
-3.29805e-06
6.22246e-05
-3.19898e-06
6.2905e-05
-3.09772e-06
6.35609e-05
-2.99397e-06
6.41915e-05
-2.88741e-06
6.47961e-05
-2.77764e-06
6.5374e-05
-2.66422e-06
6.59244e-05
-2.54663e-06
6.64462e-05
-2.4243e-06
6.69383e-05
-2.2966e-06
6.73997e-05
-2.16278e-06
6.78288e-05
-2.022e-06
6.82244e-05
-1.87333e-06
6.85848e-05
-1.71565e-06
6.89081e-05
-1.54771e-06
6.91926e-05
-1.36801e-06
6.94362e-05
-1.17484e-06
6.96366e-05
-9.66117e-07
6.97916e-05
-7.39393e-07
6.98989e-05
-4.91705e-07
6.99565e-05
-2.19477e-07
6.99626e-05
8.14804e-08
6.99166e-05
4.1609e-07
6.98196e-05
7.90261e-07
6.9676e-05
1.21093e-06
6.9495e-05
1.68574e-06
6.92939e-05
2.22238e-06
6.91023e-05
2.82719e-06
6.89663e-05
3.5024e-06
6.89525e-05
4.24166e-06
6.91445e-05
5.02264e-06
5.79507e-06
6.96173e-05
1.64758e-05
-8.49774e-07
1.6782e-05
-1.60831e-06
1.72128e-05
-2.24491e-06
1.77501e-05
-2.78578e-06
1.83791e-05
-3.25119e-06
1.90878e-05
-3.65607e-06
1.98665e-05
-4.01147e-06
2.0707e-05
-4.32598e-06
2.16026e-05
-4.60613e-06
2.25475e-05
-4.85682e-06
2.35365e-05
-5.08166e-06
2.4565e-05
-5.28328e-06
2.56289e-05
-5.4636e-06
2.67242e-05
-5.62397e-06
2.78471e-05
-5.76543e-06
2.89941e-05
-5.88873e-06
3.01616e-05
-5.99455e-06
3.13463e-05
-6.08346e-06
3.25449e-05
-6.15604e-06
3.37544e-05
-6.21292e-06
3.49718e-05
-6.25473e-06
3.61942e-05
-6.28218e-06
3.74188e-05
-6.296e-06
3.86432e-05
-6.29699e-06
3.98649e-05
-6.28594e-06
4.10818e-05
-6.26371e-06
4.22917e-05
-6.23112e-06
4.34927e-05
-6.18902e-06
4.46832e-05
-6.13821e-06
4.58615e-05
-6.07949e-06
4.70262e-05
-6.01363e-06
4.8176e-05
-5.94135e-06
4.93097e-05
-5.86332e-06
5.04264e-05
-5.78019e-06
5.15251e-05
-5.69252e-06
5.26049e-05
-5.60085e-06
5.36652e-05
-5.50565e-06
5.47053e-05
-5.40734e-06
5.57246e-05
-5.30628e-06
5.67226e-05
-5.20278e-06
5.76988e-05
-5.0971e-06
5.86529e-05
-4.98943e-06
5.95844e-05
-4.87994e-06
6.04929e-05
-4.76872e-06
6.13781e-05
-4.65582e-06
6.22396e-05
-4.54124e-06
6.3077e-05
-4.42493e-06
6.389e-05
-4.3068e-06
6.46782e-05
-4.1867e-06
6.54411e-05
-4.06443e-06
6.61783e-05
-3.93975e-06
6.68893e-05
-3.81238e-06
6.75734e-05
-3.68195e-06
6.823e-05
-3.54809e-06
6.88586e-05
-3.41032e-06
6.94583e-05
-3.26814e-06
7.00282e-05
-3.12096e-06
7.05676e-05
-2.96814e-06
7.10754e-05
-2.80894e-06
7.15505e-05
-2.64255e-06
7.19918e-05
-2.46805e-06
7.2398e-05
-2.28441e-06
7.27679e-05
-2.09046e-06
7.31e-05
-1.88488e-06
7.33931e-05
-1.66617e-06
7.36458e-05
-1.43261e-06
7.38567e-05
-1.18223e-06
7.40249e-05
-9.12781e-07
7.41497e-05
-6.21669e-07
7.42309e-05
-3.05943e-07
7.42695e-05
3.76585e-08
7.42679e-05
4.12469e-07
7.42311e-05
8.2187e-07
7.41674e-05
1.26941e-06
7.409e-05
1.75801e-06
7.40183e-05
2.28907e-06
7.39793e-05
2.86123e-06
7.40082e-05
3.46849e-06
7.41472e-05
4.09789e-06
7.44383e-05
4.72682e-06
5.32077e-06
7.4908e-05
1.76248e-05
-1.0125e-06
1.79469e-05
-1.93029e-06
1.84017e-05
-2.69956e-06
1.89704e-05
-3.35427e-06
1.96373e-05
-3.91787e-06
2.03896e-05
-4.40815e-06
2.12169e-05
-4.8385e-06
2.21106e-05
-5.2193e-06
2.30632e-05
-5.55848e-06
2.40687e-05
-5.86195e-06
2.51215e-05
-6.13408e-06
2.62167e-05
-6.37807e-06
2.73496e-05
-6.59621e-06
2.85162e-05
-6.79017e-06
2.97123e-05
-6.96118e-06
3.0934e-05
-7.11016e-06
3.21777e-05
-7.23792e-06
3.34396e-05
-7.34515e-06
3.47163e-05
-7.43258e-06
3.60045e-05
-7.50093e-06
3.73008e-05
-7.551e-06
3.86023e-05
-7.58363e-06
3.9906e-05
-7.59973e-06
4.12091e-05
-7.60024e-06
4.25091e-05
-7.58615e-06
4.38035e-05
-7.55848e-06
4.50902e-05
-7.51823e-06
4.63671e-05
-7.46642e-06
4.76323e-05
-7.40405e-06
4.88841e-05
-7.33206e-06
5.0121e-05
-7.25138e-06
5.13416e-05
-7.1629e-06
5.25445e-05
-7.06742e-06
5.37288e-05
-6.96572e-06
5.48934e-05
-6.85848e-06
5.60373e-05
-6.74636e-06
5.71599e-05
-6.62991e-06
5.82604e-05
-6.50965e-06
5.93381e-05
-6.38602e-06
6.03926e-05
-6.25938e-06
6.14232e-05
-6.13004e-06
6.24296e-05
-5.99827e-06
6.34113e-05
-5.86422e-06
6.43678e-05
-5.72804e-06
6.52989e-05
-5.58979e-06
6.6204e-05
-5.44946e-06
6.70828e-05
-5.30701e-06
6.7935e-05
-5.16234e-06
6.876e-05
-5.01527e-06
6.95575e-05
-4.86559e-06
7.03269e-05
-4.71303e-06
7.10678e-05
-4.55726e-06
7.17796e-05
-4.39788e-06
7.24617e-05
-4.23446e-06
7.31134e-05
-4.0665e-06
7.37342e-05
-3.89342e-06
7.43231e-05
-3.7146e-06
7.48796e-05
-3.52933e-06
7.54026e-05
-3.33685e-06
7.58913e-05
-3.1363e-06
7.63449e-05
-2.92672e-06
7.67623e-05
-2.70709e-06
7.71428e-05
-2.47626e-06
7.74856e-05
-2.23296e-06
7.77898e-05
-1.9758e-06
7.80549e-05
-1.70325e-06
7.82808e-05
-1.41365e-06
7.84676e-05
-1.10517e-06
7.86162e-05
-7.75874e-07
7.87284e-05
-4.23738e-07
7.88072e-05
-4.66978e-08
7.88572e-05
3.56866e-07
7.88855e-05
7.87914e-07
7.89023e-05
1.24709e-06
7.8921e-05
1.73381e-06
7.8959e-05
2.24563e-06
7.90374e-05
2.77746e-06
7.91799e-05
3.32064e-06
7.94104e-05
3.86223e-06
7.97475e-05
4.38459e-06
4.86633e-06
8.01969e-05
1.88544e-05
-1.18242e-06
1.9193e-05
-2.26881e-06
1.96728e-05
-3.17924e-06
2.02741e-05
-3.9554e-06
2.09805e-05
-4.62406e-06
2.17785e-05
-5.20581e-06
2.26568e-05
-5.71648e-06
2.36062e-05
-6.16837e-06
2.46189e-05
-6.57084e-06
2.56883e-05
-6.9309e-06
2.68083e-05
-7.25373e-06
2.79738e-05
-7.54312e-06
2.91797e-05
-7.80178e-06
3.04216e-05
-8.03168e-06
3.16951e-05
-8.23427e-06
3.29959e-05
-8.41066e-06
3.43201e-05
-8.56177e-06
3.56637e-05
-8.68847e-06
3.70229e-05
-8.79159e-06
3.83942e-05
-8.872e-06
3.97739e-05
-8.93065e-06
4.11589e-05
-8.96855e-06
4.25459e-05
-8.98677e-06
4.3932e-05
-8.98644e-06
4.53143e-05
-8.96873e-06
4.66904e-05
-8.93486e-06
4.80577e-05
-8.88601e-06
4.94142e-05
-8.82341e-06
5.07577e-05
-8.74821e-06
5.20864e-05
-8.66158e-06
5.33987e-05
-8.56459e-06
5.4693e-05
-8.45829e-06
5.59681e-05
-8.34365e-06
5.72226e-05
-8.22157e-06
5.84555e-05
-8.09289e-06
5.96659e-05
-7.95836e-06
6.08528e-05
-7.81864e-06
6.20156e-05
-7.67435e-06
6.31534e-05
-7.526e-06
6.42658e-05
-7.37404e-06
6.53522e-05
-7.21882e-06
6.64119e-05
-7.06066e-06
6.74447e-05
-6.89976e-06
6.845e-05
-6.73628e-06
6.94274e-05
-6.5703e-06
7.03765e-05
-6.40185e-06
7.12968e-05
-6.23086e-06
7.21881e-05
-6.05723e-06
7.30498e-05
-5.88079e-06
7.38816e-05
-5.70129e-06
7.46829e-05
-5.51845e-06
7.54533e-05
-5.33191e-06
7.61922e-05
-5.14126e-06
7.68992e-05
-4.94602e-06
7.75736e-05
-4.74566e-06
7.8215e-05
-4.5396e-06
7.88225e-05
-4.32719e-06
7.93958e-05
-4.1077e-06
7.9934e-05
-3.88036e-06
8.04367e-05
-3.64434e-06
8.09032e-05
-3.39872e-06
8.13331e-05
-3.14254e-06
8.17259e-05
-2.87476e-06
8.20815e-05
-2.59427e-06
8.23998e-05
-2.29993e-06
8.26812e-05
-1.99053e-06
8.29265e-05
-1.66484e-06
8.3137e-05
-1.32166e-06
8.33149e-05
-9.59817e-07
8.34635e-05
-5.78308e-07
8.35871e-05
-1.7637e-07
8.36918e-05
2.46222e-07
8.37851e-05
6.88586e-07
8.3877e-05
1.14925e-06
8.39793e-05
1.62553e-06
8.41059e-05
2.1132e-06
8.42714e-05
2.60607e-06
8.44906e-05
3.09579e-06
8.47754e-05
3.57179e-06
8.51326e-05
4.02178e-06
4.43314e-06
8.55604e-05
2.01701e-05
-1.36025e-06
2.05261e-05
-2.62475e-06
2.10322e-05
-3.6852e-06
2.16677e-05
-4.59074e-06
2.24156e-05
-5.37165e-06
2.32614e-05
-6.0513e-06
2.41933e-05
-6.64803e-06
2.52014e-05
-7.17612e-06
2.62774e-05
-7.64646e-06
2.74142e-05
-8.06721e-06
2.86053e-05
-8.44442e-06
2.98451e-05
-8.78247e-06
3.11283e-05
-9.08454e-06
3.245e-05
-9.3529e-06
3.38054e-05
-9.58925e-06
3.519e-05
-9.79486e-06
3.65994e-05
-9.97084e-06
3.80294e-05
-1.01182e-05
3.9476e-05
-1.02379e-05
4.09351e-05
-1.03309e-05
4.2403e-05
-1.03984e-05
4.38761e-05
-1.04416e-05
4.5351e-05
-1.04617e-05
4.68244e-05
-1.046e-05
4.82935e-05
-1.0438e-05
4.97553e-05
-1.0397e-05
5.12074e-05
-1.03385e-05
5.26472e-05
-1.02638e-05
5.40727e-05
-1.01744e-05
5.54818e-05
-1.00715e-05
5.68728e-05
-9.95652e-06
5.8244e-05
-9.8306e-06
5.9594e-05
-9.69488e-06
6.09215e-05
-9.55042e-06
6.22252e-05
-9.39819e-06
6.35042e-05
-9.23908e-06
6.47575e-05
-9.07386e-06
6.59843e-05
-8.90324e-06
6.71839e-05
-8.72782e-06
6.83556e-05
-8.54813e-06
6.94988e-05
-8.3646e-06
7.06129e-05
-8.17757e-06
7.16975e-05
-7.98731e-06
7.27521e-05
-7.79401e-06
7.37762e-05
-7.59777e-06
7.47695e-05
-7.39862e-06
7.57315e-05
-7.19654e-06
7.66618e-05
-6.9914e-06
7.756e-05
-6.78304e-06
7.84257e-05
-6.57122e-06
7.92584e-05
-6.35562e-06
8.00578e-05
-6.1359e-06
8.08235e-05
-5.91162e-06
8.15549e-05
-5.68231e-06
8.22516e-05
-5.44744e-06
8.29132e-05
-5.20641e-06
8.35392e-05
-4.9586e-06
8.41294e-05
-4.70331e-06
8.46832e-05
-4.43982e-06
8.52005e-05
-4.16736e-06
8.5681e-05
-3.88512e-06
8.61248e-05
-3.59228e-06
8.65319e-05
-3.28798e-06
8.69029e-05
-2.97139e-06
8.72384e-05
-2.64166e-06
8.75396e-05
-2.29802e-06
8.78081e-05
-1.93977e-06
8.80464e-05
-1.56635e-06
8.82576e-05
-1.17741e-06
8.84457e-05
-7.72888e-07
8.8616e-05
-3.53127e-07
8.87745e-05
8.12147e-08
8.89285e-05
5.28129e-07
8.90867e-05
9.84667e-07
8.92585e-05
1.44731e-06
8.9454e-05
1.91142e-06
8.96826e-05
2.37116e-06
8.99526e-05
2.81961e-06
9.02694e-05
3.24897e-06
9.0634e-05
3.65114e-06
4.01894e-06
9.10423e-05
2.1578e-05
-1.54676e-06
2.19525e-05
-2.99919e-06
2.24864e-05
-4.21893e-06
2.31581e-05
-5.26214e-06
2.39495e-05
-6.16284e-06
2.48458e-05
-6.94719e-06
2.58342e-05
-7.63607e-06
2.69043e-05
-8.24582e-06
2.80473e-05
-8.78894e-06
2.92553e-05
-9.2748e-06
3.05217e-05
-9.71032e-06
3.18403e-05
-1.01006e-05
3.32054e-05
-1.04491e-05
3.46117e-05
-1.07586e-05
3.60539e-05
-1.1031e-05
3.75273e-05
-1.12678e-05
3.90271e-05
-1.14702e-05
4.05487e-05
-1.16394e-05
4.20877e-05
-1.17765e-05
4.36397e-05
-1.18827e-05
4.52007e-05
-1.19593e-05
4.67669e-05
-1.20076e-05
4.83345e-05
-1.20292e-05
4.99e-05
-1.20256e-05
5.14602e-05
-1.19984e-05
5.30122e-05
-1.19492e-05
5.4553e-05
-1.18797e-05
5.60802e-05
-1.17915e-05
5.75913e-05
-1.16862e-05
5.90844e-05
-1.15654e-05
6.05573e-05
-1.14304e-05
6.20084e-05
-1.12829e-05
6.34362e-05
-1.11239e-05
6.48391e-05
-1.09548e-05
6.6216e-05
-1.07767e-05
6.75657e-05
-1.05906e-05
6.88873e-05
-1.03974e-05
7.01798e-05
-1.01979e-05
7.14425e-05
-9.99289e-06
7.26747e-05
-9.78286e-06
7.38757e-05
-9.56835e-06
7.50449e-05
-9.34978e-06
7.61819e-05
-9.12746e-06
7.72862e-05
-8.90162e-06
7.83573e-05
-8.67239e-06
7.93947e-05
-8.43985e-06
8.03982e-05
-8.20396e-06
8.13673e-05
-7.96464e-06
8.23017e-05
-7.72172e-06
8.32009e-05
-7.47497e-06
8.40647e-05
-7.2241e-06
8.48927e-05
-6.96876e-06
8.56845e-05
-6.70853e-06
8.64399e-05
-6.44295e-06
8.71586e-05
-6.17152e-06
8.78403e-05
-5.89369e-06
8.84848e-05
-5.60887e-06
8.90921e-05
-5.31646e-06
8.96621e-05
-5.0158e-06
9.01948e-05
-4.70627e-06
9.06906e-05
-4.38721e-06
9.115e-05
-4.058e-06
9.15735e-05
-3.71803e-06
9.19623e-05
-3.36678e-06
9.23177e-05
-3.00377e-06
9.26416e-05
-2.62869e-06
9.29364e-05
-2.24137e-06
9.32051e-05
-1.84187e-06
9.34513e-05
-1.43052e-06
9.36795e-05
-1.00803e-06
9.3895e-05
-5.75513e-07
9.41036e-05
-1.34391e-07
9.43117e-05
3.13129e-07
9.4526e-05
7.63452e-07
9.47536e-05
1.21287e-06
9.50011e-05
1.65706e-06
9.52744e-05
2.09113e-06
9.55776e-05
2.50979e-06
9.59123e-05
2.9076e-06
9.62775e-05
3.27941e-06
3.6213e-06
9.66688e-05
2.30846e-05
-1.74283e-06
2.3479e-05
-3.39344e-06
2.40424e-05
-4.78221e-06
2.47523e-05
-5.97178e-06
2.559e-05
-7.0002e-06
2.65396e-05
-7.89642e-06
2.75879e-05
-8.68391e-06
2.87237e-05
-9.38116e-06
2.99376e-05
-1.00023e-05
3.12213e-05
-1.0558e-05
3.25676e-05
-1.1056e-05
3.39698e-05
-1.15022e-05
3.54218e-05
-1.19006e-05
3.69179e-05
-1.22541e-05
3.84523e-05
-1.2565e-05
4.002e-05
-1.28349e-05
4.16156e-05
-1.30653e-05
4.32342e-05
-1.32575e-05
4.48709e-05
-1.34129e-05
4.65212e-05
-1.35327e-05
4.81807e-05
-1.36184e-05
4.9845e-05
-1.36718e-05
5.15101e-05
-1.36944e-05
5.31725e-05
-1.3688e-05
5.48285e-05
-1.36546e-05
5.64749e-05
-1.35959e-05
5.81086e-05
-1.35139e-05
5.9727e-05
-1.34105e-05
6.13275e-05
-1.32874e-05
6.29078e-05
-1.31465e-05
6.44659e-05
-1.29895e-05
6.59998e-05
-1.28179e-05
6.75079e-05
-1.26334e-05
6.89887e-05
-1.24372e-05
7.04409e-05
-1.22306e-05
7.18632e-05
-1.20149e-05
7.32547e-05
-1.1791e-05
7.46143e-05
-1.15599e-05
7.59413e-05
-1.13224e-05
7.72349e-05
-1.10791e-05
7.84944e-05
-1.08308e-05
7.97193e-05
-1.05778e-05
8.0909e-05
-1.03205e-05
8.20631e-05
-1.00592e-05
8.31811e-05
-9.79415e-06
8.42626e-05
-9.52534e-06
8.53072e-05
-9.25283e-06
8.63147e-05
-8.97654e-06
8.72848e-05
-8.69635e-06
8.8217e-05
-8.41204e-06
8.91112e-05
-8.12336e-06
8.99672e-05
-7.82997e-06
9.07848e-05
-7.53151e-06
9.15638e-05
-7.22757e-06
9.23042e-05
-6.91769e-06
9.3006e-05
-6.60139e-06
9.36691e-05
-6.27818e-06
9.42939e-05
-5.94755e-06
9.48807e-05
-5.60902e-06
9.54299e-05
-5.26209e-06
9.59423e-05
-4.90633e-06
9.64188e-05
-4.54134e-06
9.68606e-05
-4.16681e-06
9.72693e-05
-3.78253e-06
9.76468e-05
-3.38843e-06
9.79955e-05
-2.9846e-06
9.83182e-05
-2.57136e-06
9.86182e-05
-2.14926e-06
9.88994e-05
-1.71917e-06
9.91663e-05
-1.28231e-06
9.94236e-05
-8.40287e-07
9.96768e-05
-3.95052e-07
9.9931e-05
5.14976e-08
0.000100191
4.96126e-07
0.000100462
9.3485e-07
0.000100747
1.36406e-06
0.000101051
1.77997e-06
0.000101375
2.17872e-06
0.000101719
2.55665e-06
0.000102081
2.91056e-06
3.23845e-06
0.000102457
2.46968e-05
-1.94939e-06
2.51125e-05
-3.80901e-06
2.57075e-05
-5.37706e-06
2.64582e-05
-6.72218e-06
2.7345e-05
-7.88664e-06
2.83513e-05
-8.90232e-06
2.94632e-05
-9.79529e-06
3.06688e-05
-1.05862e-05
3.19581e-05
-1.1291e-05
3.33222e-05
-1.19215e-05
3.47535e-05
-1.24866e-05
3.62446e-05
-1.29927e-05
3.7789e-05
-1.34443e-05
3.93805e-05
-1.38449e-05
4.10129e-05
-1.41968e-05
4.26805e-05
-1.45019e-05
4.43777e-05
-1.47619e-05
4.60991e-05
-1.49783e-05
4.78393e-05
-1.51526e-05
4.95934e-05
-1.52864e-05
5.13566e-05
-1.53813e-05
5.31242e-05
-1.54392e-05
5.4892e-05
-1.5462e-05
5.6656e-05
-1.54519e-05
5.84122e-05
-1.54109e-05
6.01574e-05
-1.53412e-05
6.18881e-05
-1.5245e-05
6.36014e-05
-1.51243e-05
6.52947e-05
-1.49814e-05
6.69655e-05
-1.48182e-05
6.86116e-05
-1.46366e-05
7.02309e-05
-1.44385e-05
7.18218e-05
-1.42256e-05
7.33826e-05
-1.39995e-05
7.49118e-05
-1.37616e-05
7.64083e-05
-1.35133e-05
7.7871e-05
-1.32558e-05
7.92987e-05
-1.29901e-05
8.06908e-05
-1.27171e-05
8.20464e-05
-1.24376e-05
8.33648e-05
-1.21523e-05
8.46455e-05
-1.18618e-05
8.58879e-05
-1.15665e-05
8.70916e-05
-1.12667e-05
8.82562e-05
-1.09627e-05
8.93813e-05
-1.06547e-05
9.04666e-05
-1.03426e-05
9.15119e-05
-1.00265e-05
9.25169e-05
-9.70628e-06
9.34815e-05
-9.38177e-06
9.44056e-05
-9.05275e-06
9.5289e-05
-8.71896e-06
9.61318e-05
-8.3801e-06
9.6934e-05
-8.03581e-06
9.76959e-05
-7.68573e-06
9.84176e-05
-7.3295e-06
9.90996e-05
-6.96673e-06
9.97424e-05
-6.59706e-06
0.000100347
-6.22018e-06
0.000100913
-5.83578e-06
0.000101443
-5.44365e-06
0.000101938
-5.04366e-06
0.0001024
-4.63578e-06
0.00010283
-4.22011e-06
0.000103231
-3.79693e-06
0.000103605
-3.36669e-06
0.000103956
-2.93007e-06
0.000104287
-2.48801e-06
0.000104601
-2.04169e-06
0.000104904
-1.5926e-06
0.000105198
-1.14256e-06
0.000105489
-6.93616e-07
0.00010578
-2.47915e-07
0.000106076
1.92415e-07
0.000106379
6.23998e-07
0.000106691
1.04353e-06
0.000107015
1.44813e-06
0.000107351
1.83513e-06
0.000107698
2.20209e-06
0.000108054
2.54709e-06
2.86924e-06
0.000108416
2.64219e-05
-2.16744e-06
2.68606e-05
-4.24762e-06
2.74896e-05
-6.00581e-06
2.82839e-05
-7.51617e-06
2.92232e-05
-8.82549e-06
3.029e-05
-9.96865e-06
3.14696e-05
-1.09744e-05
3.27496e-05
-1.18656e-05
3.41192e-05
-1.26599e-05
3.5569e-05
-1.33707e-05
3.70907e-05
-1.40076e-05
3.86765e-05
-1.45777e-05
4.03192e-05
-1.50863e-05
4.20121e-05
-1.5537e-05
4.37485e-05
-1.59325e-05
4.55222e-05
-1.62749e-05
4.7327e-05
-1.65661e-05
4.9157e-05
-1.68077e-05
5.10065e-05
-1.70015e-05
5.28701e-05
-1.71494e-05
5.47424e-05
-1.72532e-05
5.66186e-05
-1.7315e-05
5.8494e-05
-1.73372e-05
6.03642e-05
-1.7322e-05
6.22252e-05
-1.72719e-05
6.40731e-05
-1.71893e-05
6.59045e-05
-1.70767e-05
6.77163e-05
-1.69366e-05
6.95056e-05
-1.67713e-05
7.12697e-05
-1.65831e-05
7.30064e-05
-1.63742e-05
7.47134e-05
-1.61467e-05
7.63889e-05
-1.59025e-05
7.80313e-05
-1.56435e-05
7.9639e-05
-1.53712e-05
8.12108e-05
-1.50872e-05
8.27455e-05
-1.47927e-05
8.4242e-05
-1.44891e-05
8.56995e-05
-1.41773e-05
8.71172e-05
-1.38583e-05
8.84945e-05
-1.35328e-05
8.98308e-05
-1.32015e-05
9.11255e-05
-1.2865e-05
9.23783e-05
-1.25235e-05
9.35888e-05
-1.21775e-05
9.47568e-05
-1.18271e-05
9.5882e-05
-1.14725e-05
9.69642e-05
-1.11137e-05
9.80034e-05
-1.07507e-05
9.89995e-05
-1.03833e-05
9.99525e-05
-1.00115e-05
0.000100863
-9.63507e-06
0.00010173
-9.25373e-06
0.000102555
-8.86727e-06
0.000103338
-8.47544e-06
0.00010408
-8.07799e-06
0.000104781
-7.67471e-06
0.000105442
-7.26538e-06
0.000106065
-6.84987e-06
0.000106649
-6.42809e-06
0.000107198
-6.00006e-06
0.000107712
-5.56589e-06
0.000108194
-5.1258e-06
0.000108646
-4.6802e-06
0.000109071
-4.22961e-06
0.000109471
-3.77477e-06
0.000109849
-3.3166e-06
0.000110209
-2.85627e-06
0.000110554
-2.39511e-06
0.000110887
-1.93473e-06
0.000111213
-1.4769e-06
0.000111534
-1.02361e-06
0.000111855
-5.76892e-07
0.000112177
-1.38429e-07
0.000112503
2.89693e-07
0.000112833
7.04508e-07
0.000113169
1.10374e-06
0.000113511
1.48553e-06
0.000113856
1.84829e-06
0.000114204
2.19091e-06
2.51317e-06
0.000114552
2.82678e-05
-2.39809e-06
2.87316e-05
-4.71124e-06
2.93971e-05
-6.67105e-06
3.02383e-05
-8.35699e-06
3.12337e-05
-9.82048e-06
3.23652e-05
-1.10996e-05
3.36173e-05
-1.22258e-05
3.49766e-05
-1.32243e-05
3.64319e-05
-1.41145e-05
3.79731e-05
-1.49111e-05
3.95912e-05
-1.56248e-05
4.12778e-05
-1.62635e-05
4.30252e-05
-1.68328e-05
4.48258e-05
-1.73367e-05
4.66726e-05
-1.77784e-05
4.85586e-05
-1.81601e-05
5.04773e-05
-1.84839e-05
5.2422e-05
-1.87517e-05
5.43866e-05
-1.89655e-05
5.63652e-05
-1.91273e-05
5.83521e-05
-1.92395e-05
6.03419e-05
-1.93044e-05
6.23296e-05
-1.93245e-05
6.43105e-05
-1.93027e-05
6.62802e-05
-1.92415e-05
6.82346e-05
-1.91438e-05
7.01702e-05
-1.90125e-05
7.20835e-05
-1.88502e-05
7.39714e-05
-1.86598e-05
7.58312e-05
-1.84437e-05
7.76604e-05
-1.82044e-05
7.94568e-05
-1.79443e-05
8.12184e-05
-1.76656e-05
8.29435e-05
-1.73702e-05
8.46305e-05
-1.70601e-05
8.62781e-05
-1.67368e-05
8.78851e-05
-1.64021e-05
8.94504e-05
-1.6057e-05
9.09732e-05
-1.5703e-05
9.24528e-05
-1.5341e-05
9.38884e-05
-1.49718e-05
9.52795e-05
-1.45963e-05
9.66258e-05
-1.42151e-05
9.79268e-05
-1.38287e-05
9.91822e-05
-1.34374e-05
0.000100392
-1.30416e-05
0.000101556
-1.26415e-05
0.000102674
-1.22371e-05
0.000103746
-1.18285e-05
0.000104773
-1.14158e-05
0.000105754
-1.09988e-05
0.00010669
-1.05775e-05
0.000107582
-1.01518e-05
0.000108429
-9.7215e-06
0.000109233
-9.28653e-06
0.000109995
-8.84678e-06
0.000110715
-8.40219e-06
0.000111395
-7.95272e-06
0.000112035
-7.49844e-06
0.000112639
-7.03945e-06
0.000113206
-6.57599e-06
0.00011374
-6.10836e-06
0.000114243
-5.63704e-06
0.000114717
-5.16261e-06
0.000115164
-4.68582e-06
0.000115588
-4.20758e-06
0.000115992
-3.72894e-06
0.000116378
-3.25115e-06
0.000116749
-2.77559e-06
0.000117109
-2.30379e-06
0.00011746
-1.83742e-06
0.000117806
-1.37821e-06
0.000118148
-9.27954e-07
0.000118488
-4.88338e-07
0.000118829
-6.03806e-08
0.000119171
3.54173e-07
0.000119512
7.52976e-07
0.000119854
1.13475e-06
0.000120195
1.49848e-06
0.000120533
1.84354e-06
2.1701e-06
0.000120868
3.0243e-05
-2.6425e-06
3.07339e-05
-5.20203e-06
3.14389e-05
-7.37571e-06
3.23306e-05
-9.24822e-06
3.33864e-05
-1.08758e-05
3.45873e-05
-1.22999e-05
3.59168e-05
-1.35546e-05
3.73612e-05
-1.46678e-05
3.89081e-05
-1.56605e-05
4.05468e-05
-1.65489e-05
4.22676e-05
-1.73446e-05
4.40616e-05
-1.80564e-05
4.59201e-05
-1.86903e-05
4.78352e-05
-1.92507e-05
4.97989e-05
-1.9741e-05
5.18037e-05
-2.01639e-05
5.38424e-05
-2.05215e-05
5.59079e-05
-2.08162e-05
5.79934e-05
-2.105e-05
6.00924e-05
-2.12255e-05
6.21989e-05
-2.13452e-05
6.4307e-05
-2.14118e-05
6.64113e-05
-2.14283e-05
6.85068e-05
-2.13978e-05
7.05888e-05
-2.13232e-05
7.2653e-05
-2.12079e-05
7.46955e-05
-2.1055e-05
7.67126e-05
-2.08677e-05
7.87012e-05
-2.06488e-05
8.06584e-05
-2.04015e-05
8.25815e-05
-2.01284e-05
8.44683e-05
-1.98322e-05
8.63168e-05
-1.95153e-05
8.8125e-05
-1.918e-05
8.98914e-05
-1.88284e-05
9.16147e-05
-1.84622e-05
9.32936e-05
-1.80834e-05
9.49272e-05
-1.76933e-05
9.65146e-05
-1.72933e-05
9.8055e-05
-1.68846e-05
9.95479e-05
-1.64682e-05
0.000100993
-1.6045e-05
0.000102389
-1.56157e-05
0.000103737
-1.51809e-05
0.000105036
-1.47411e-05
0.000106286
-1.42968e-05
0.000107488
-1.38481e-05
0.00010864
-1.33953e-05
0.000109744
-1.29385e-05
0.0001108
-1.2478e-05
0.000111809
-1.20136e-05
0.00011277
-1.15455e-05
0.000113685
-1.10736e-05
0.000114554
-1.05979e-05
0.000115379
-1.01186e-05