/*--------------------------------*- C++ -*----------------------------------*\
  =========                 |
  \\      /  F ield         | OpenFOAM: The Open Source CFD Toolbox
   \\    /   O peration     | Website:  https://openfoam.org
    \\  /    A nd           | Version:  7
     \\/     M anipulation  |
\*---------------------------------------------------------------------------*/
FoamFile
{
    version     2.0;
    format      ascii;
    class       surfaceScalarField;
    location    "4.84";
    object      phi;
}
// * * * * * * * * * * * * * * * * * * * * * * * * * * * * * * * * * * * * * //

dimensions      [1 0 -1 0 0 0 0];

internalField   nonuniform List<scalar> 
23692
(
1.18418e-05
-2.06918e-07
1.2212e-05
-3.69725e-07
1.27254e-05
-5.12599e-07
1.3364e-05
-6.3749e-07
1.41143e-05
-7.48851e-07
1.49653e-05
-8.49237e-07
1.59073e-05
-9.40044e-07
1.69315e-05
-1.02203e-06
1.80294e-05
-1.09547e-06
1.91924e-05
-1.16032e-06
2.04116e-05
-1.21638e-06
2.1678e-05
-1.2634e-06
2.29823e-05
-1.3012e-06
2.43152e-05
-1.32968e-06
2.56674e-05
-1.3489e-06
2.703e-05
-1.35911e-06
2.83941e-05
-1.36069e-06
2.97518e-05
-1.35417e-06
3.10956e-05
-1.34023e-06
3.24187e-05
-1.31959e-06
3.37153e-05
-1.29306e-06
3.49803e-05
-1.26146e-06
3.62094e-05
-1.2256e-06
3.73991e-05
-1.18628e-06
3.85468e-05
-1.14425e-06
3.96504e-05
-1.10021e-06
4.07085e-05
-1.0548e-06
4.17203e-05
-1.00859e-06
4.26856e-05
-9.62089e-07
4.36044e-05
-9.15733e-07
4.44773e-05
-8.69898e-07
4.5305e-05
-8.24903e-07
4.60888e-05
-7.81009e-07
4.683e-05
-7.38429e-07
4.75299e-05
-6.97328e-07
4.81901e-05
-6.57834e-07
4.88125e-05
-6.20036e-07
4.93988e-05
-5.83992e-07
4.99506e-05
-5.49732e-07
5.04699e-05
-5.17267e-07
5.09583e-05
-4.8658e-07
5.14177e-05
-4.5764e-07
5.18497e-05
-4.30398e-07
5.2256e-05
-4.04795e-07
5.26382e-05
-3.80757e-07
5.29976e-05
-3.58203e-07
5.33358e-05
-3.37038e-07
5.3654e-05
-3.17163e-07
5.39534e-05
-2.98468e-07
5.4235e-05
-2.80838e-07
5.44998e-05
-2.64152e-07
5.47487e-05
-2.48278e-07
5.49823e-05
-2.33081e-07
5.5201e-05
-2.18414e-07
5.54054e-05
-2.04124e-07
5.55957e-05
-1.90048e-07
5.57718e-05
-1.76011e-07
5.59336e-05
-1.61825e-07
5.60808e-05
-1.47287e-07
5.62128e-05
-1.32175e-07
5.63289e-05
-1.16243e-07
5.64278e-05
-9.92146e-08
5.65082e-05
-8.07787e-08
5.65684e-05
-6.0576e-08
5.66062e-05
-3.81866e-08
5.66188e-05
-1.3111e-08
5.6603e-05
1.52848e-08
5.65547e-05
4.78146e-08
5.64686e-05
8.55108e-08
5.63383e-05
1.29743e-07
5.61553e-05
1.82398e-07
5.59086e-05
2.46165e-07
5.5583e-05
3.25024e-07
5.51573e-05
4.25102e-07
5.46004e-05
5.56266e-07
5.38647e-05
7.35142e-07
5.28731e-05
9.91132e-07
5.14933e-05
1.37929e-06
4.94792e-05
2.01359e-06
4.63016e-05
3.17714e-06
6.06207e-06
4.02391e-05
1.26652e-05
-4.22894e-07
1.30595e-05
-7.63445e-07
1.36076e-05
-1.05986e-06
1.42899e-05
-1.31851e-06
1.50918e-05
-1.54925e-06
1.60016e-05
-1.75725e-06
1.70091e-05
-1.9454e-06
1.81047e-05
-2.1153e-06
1.92794e-05
-2.26749e-06
2.05238e-05
-2.40189e-06
2.18285e-05
-2.51809e-06
2.31839e-05
-2.61558e-06
2.45799e-05
-2.69394e-06
2.60067e-05
-2.753e-06
2.74543e-05
-2.79289e-06
2.89129e-05
-2.81408e-06
3.03733e-05
-2.81739e-06
3.18268e-05
-2.80392e-06
3.32654e-05
-2.77505e-06
3.4682e-05
-2.73231e-06
3.60701e-05
-2.67736e-06
3.74243e-05
-2.61189e-06
3.874e-05
-2.53759e-06
4.00136e-05
-2.45613e-06
4.12421e-05
-2.36905e-06
4.24233e-05
-2.2778e-06
4.35557e-05
-2.18372e-06
4.46386e-05
-2.08797e-06
4.56715e-05
-1.99161e-06
4.66546e-05
-1.89555e-06
4.75884e-05
-1.80057e-06
4.84739e-05
-1.70732e-06
4.93122e-05
-1.61635e-06
5.01048e-05
-1.5281e-06
5.08531e-05
-1.44291e-06
5.1559e-05
-1.36104e-06
5.22241e-05
-1.28268e-06
5.28505e-05
-1.20794e-06
5.34399e-05
-1.1369e-06
5.39943e-05
-1.06956e-06
5.45156e-05
-1.00589e-06
5.50057e-05
-9.45832e-07
5.54663e-05
-8.89283e-07
5.58992e-05
-8.36116e-07
5.63061e-05
-7.86179e-07
5.66886e-05
-7.393e-07
5.70481e-05
-6.95288e-07
5.73859e-05
-6.53934e-07
5.77035e-05
-6.15012e-07
5.80017e-05
-5.78284e-07
5.82818e-05
-5.43495e-07
5.85445e-05
-5.10378e-07
5.87906e-05
-4.78648e-07
5.90206e-05
-4.48007e-07
5.92349e-05
-4.18139e-07
5.94338e-05
-3.88708e-07
5.96172e-05
-3.59354e-07
5.97851e-05
-3.29694e-07
5.9937e-05
-2.99311e-07
6.00724e-05
-2.67751e-07
6.01905e-05
-2.34516e-07
6.029e-05
-1.99047e-07
6.03696e-05
-1.60714e-07
6.04274e-05
-1.18795e-07
6.04612e-05
-7.24478e-08
6.04682e-05
-2.06692e-08
6.04452e-05
3.78026e-08
6.03879e-05
1.04542e-07
6.02913e-05
1.81531e-07
6.0149e-05
2.71372e-07
5.99532e-05
3.77583e-07
5.96937e-05
5.05062e-07
5.93573e-05
6.60822e-07
5.89265e-05
8.55232e-07
5.83781e-05
1.1041e-06
5.76804e-05
1.43223e-06
5.67914e-05
1.87953e-06
5.56586e-05
2.51157e-06
5.4231e-05
3.44058e-06
5.25463e-05
4.8614e-06
7.02247e-06
5.15854e-05
1.35444e-05
-6.46727e-07
1.39625e-05
-1.18102e-06
1.45457e-05
-1.64206e-06
1.52731e-05
-2.04461e-06
1.61291e-05
-2.40364e-06
1.71011e-05
-2.72725e-06
1.81779e-05
-3.01999e-06
1.93495e-05
-3.28434e-06
2.0606e-05
-3.52118e-06
2.19375e-05
-3.73036e-06
2.33339e-05
-3.91125e-06
2.47848e-05
-4.06304e-06
2.62795e-05
-4.18508e-06
2.78073e-05
-4.27709e-06
2.93575e-05
-4.33926e-06
3.09196e-05
-4.37234e-06
3.24838e-05
-4.37757e-06
3.40406e-05
-4.35671e-06
3.55815e-05
-4.31186e-06
3.70986e-05
-4.24542e-06
3.85853e-05
-4.15996e-06
4.00356e-05
-4.05814e-06
4.14446e-05
-3.94259e-06
4.28084e-05
-3.81587e-06
4.41237e-05
-3.68042e-06
4.53882e-05
-3.53848e-06
4.66004e-05
-3.39212e-06
4.77593e-05
-3.24317e-06
4.88646e-05
-3.09326e-06
4.99164e-05
-2.94382e-06
5.09153e-05
-2.79605e-06
5.18622e-05
-2.65098e-06
5.27585e-05
-2.50943e-06
5.36056e-05
-2.3721e-06
5.44051e-05
-2.23952e-06
5.5159e-05
-2.11209e-06
5.58691e-05
-1.9901e-06
5.65375e-05
-1.87373e-06
5.71661e-05
-1.76308e-06
5.7757e-05
-1.65817e-06
5.83122e-05
-1.55895e-06
5.88337e-05
-1.46532e-06
5.93234e-05
-1.37712e-06
5.97831e-05
-1.29415e-06
6.02147e-05
-1.21618e-06
6.06198e-05
-1.14294e-06
6.09999e-05
-1.07412e-06
6.13566e-05
-1.00941e-06
6.16911e-05
-9.4845e-07
6.20046e-05
-8.90871e-07
6.22981e-05
-8.3628e-07
6.25727e-05
-7.84262e-07
6.2829e-05
-7.34379e-07
6.30675e-05
-6.8617e-07
6.32889e-05
-6.39147e-07
6.34931e-05
-5.92794e-07
6.36805e-05
-5.46562e-07
6.38506e-05
-4.99864e-07
6.40033e-05
-4.52069e-07
6.41379e-05
-4.02489e-07
6.42535e-05
-3.50372e-07
6.4349e-05
-2.94882e-07
6.4423e-05
-2.35083e-07
6.44736e-05
-1.69904e-07
6.44988e-05
-9.81102e-08
6.44958e-05
-1.82325e-08
6.44615e-05
7.15396e-08
6.43921e-05
1.73398e-07
6.42829e-05
2.90067e-07
6.41286e-05
4.25044e-07
6.39226e-05
5.8292e-07
6.36571e-05
7.6984e-07
6.33231e-05
9.94189e-07
6.291e-05
1.26761e-06
6.2407e-05
1.60648e-06
6.18046e-05
2.03395e-06
6.1101e-05
2.58251e-06
6.03154e-05
3.29662e-06
5.95221e-05
4.23327e-06
5.89347e-05
5.44823e-06
6.9178e-06
5.90389e-05
1.44841e-05
-8.78112e-07
1.49257e-05
-1.62199e-06
1.55445e-05
-2.25981e-06
1.63186e-05
-2.81739e-06
1.72313e-05
-3.31456e-06
1.82688e-05
-3.76264e-06
1.94192e-05
-4.168e-06
2.06717e-05
-4.53409e-06
2.20157e-05
-4.86214e-06
2.34405e-05
-5.15195e-06
2.49354e-05
-5.40262e-06
2.6489e-05
-5.61302e-06
2.809e-05
-5.78225e-06
2.97268e-05
-5.90988e-06
3.13878e-05
-5.99618e-06
3.30618e-05
-6.04217e-06
3.47381e-05
-6.04959e-06
3.64066e-05
-6.02085e-06
3.80579e-05
-5.95887e-06
3.96838e-05
-5.86697e-06
4.1277e-05
-5.74873e-06
4.2831e-05
-5.60781e-06
4.43406e-05
-5.44788e-06
4.58015e-05
-5.27248e-06
4.72102e-05
-5.08498e-06
4.85644e-05
-4.8885e-06
4.98623e-05
-4.6859e-06
5.11028e-05
-4.47971e-06
5.22856e-05
-4.27219e-06
5.34108e-05
-4.0653e-06
5.44792e-05
-3.86073e-06
5.54916e-05
-3.65987e-06
5.64495e-05
-3.46388e-06
5.73544e-05
-3.27371e-06
5.82081e-05
-3.0901e-06
5.90126e-05
-2.91358e-06
5.977e-05
-2.74457e-06
6.04823e-05
-2.58331e-06
6.11517e-05
-2.42993e-06
6.17805e-05
-2.28446e-06
6.23706e-05
-2.14683e-06
6.29244e-05
-2.01688e-06
6.34437e-05
-1.89441e-06
6.39305e-05
-1.77914e-06
6.43867e-05
-1.67073e-06
6.48142e-05
-1.56882e-06
6.52144e-05
-1.47298e-06
6.5589e-05
-1.38277e-06
6.59394e-05
-1.2977e-06
6.62668e-05
-1.21727e-06
6.65723e-05
-1.14093e-06
6.68568e-05
-1.06812e-06
6.71212e-05
-9.98222e-07
6.73661e-05
-9.30618e-07
6.7592e-05
-8.64642e-07
6.7799e-05
-7.99595e-07
6.79873e-05
-7.34733e-07
6.81567e-05
-6.69269e-07
6.83069e-05
-6.02357e-07
6.84373e-05
-5.33085e-07
6.85471e-05
-4.60459e-07
6.86353e-05
-3.83387e-07
6.87004e-05
-3.00652e-07
6.87409e-05
-2.10886e-07
6.87548e-05
-1.12522e-07
6.87397e-05
-3.71255e-09
6.86929e-05
1.17747e-07
6.86112e-05
2.54431e-07
6.84911e-05
4.09491e-07
6.83286e-05
5.8683e-07
6.81194e-05
7.91358e-07
6.78592e-05
1.02931e-06
6.75441e-05
1.30865e-06
6.71714e-05
1.63959e-06
6.67421e-05
2.03504e-06
6.62644e-05
2.51093e-06
6.57604e-05
3.08586e-06
6.52773e-05
3.77907e-06
6.49052e-05
4.60477e-06
6.47947e-05
5.55808e-06
6.58042e-06
6.51316e-05
1.54891e-05
-1.11721e-06
1.59541e-05
-2.08635e-06
1.66093e-05
-2.91396e-06
1.74321e-05
-3.63861e-06
1.84042e-05
-4.2848e-06
1.9511e-05
-4.86715e-06
2.07396e-05
-5.39405e-06
2.20785e-05
-5.87001e-06
2.35162e-05
-6.29662e-06
2.50413e-05
-6.67362e-06
2.66422e-05
-6.9998e-06
2.83068e-05
-7.27368e-06
3.00227e-05
-7.49405e-06
3.17775e-05
-7.66035e-06
3.35586e-05
-7.7729e-06
3.53539e-05
-7.83301e-06
3.71518e-05
-7.84293e-06
3.89414e-05
-7.80579e-06
4.07126e-05
-7.7254e-06
4.24564e-05
-7.60609e-06
4.41649e-05
-7.45251e-06
4.58312e-05
-7.26944e-06
4.74496e-05
-7.06164e-06
4.90154e-05
-6.83373e-06
5.0525e-05
-6.5901e-06
5.19758e-05
-6.33479e-06
5.33658e-05
-6.07152e-06
5.46939e-05
-5.8036e-06
5.59598e-05
-5.53395e-06
5.71637e-05
-5.26513e-06
5.83062e-05
-4.99929e-06
5.93884e-05
-4.73827e-06
6.04118e-05
-4.48356e-06
6.1378e-05
-4.2364e-06
6.2289e-05
-3.99771e-06
6.31468e-05
-3.76822e-06
6.39538e-05
-3.54844e-06
6.47121e-05
-3.33868e-06
6.54241e-05
-3.13911e-06
6.6092e-05
-2.94977e-06
6.67182e-05
-2.77055e-06
6.73049e-05
-2.60125e-06
6.78542e-05
-2.4416e-06
6.83683e-05
-2.29123e-06
6.88491e-05
-2.14971e-06
6.92985e-05
-2.01655e-06
6.97182e-05
-1.89122e-06
7.01099e-05
-1.77313e-06
7.04751e-05
-1.66166e-06
7.0815e-05
-1.55614e-06
7.11308e-05
-1.45589e-06
7.14236e-05
-1.36016e-06
7.16942e-05
-1.2682e-06
7.19433e-05
-1.17919e-06
7.21713e-05
-1.09231e-06
7.23786e-05
-1.00665e-06
7.25653e-05
-9.21297e-07
7.27313e-05
-8.3526e-07
7.28763e-05
-7.47494e-07
7.29999e-05
-6.56877e-07
7.31013e-05
-5.62202e-07
7.31797e-05
-4.62155e-07
7.32339e-05
-3.55294e-07
7.32626e-05
-2.4002e-07
7.3264e-05
-1.14538e-07
7.32364e-05
2.32363e-08
7.31778e-05
1.75695e-07
7.3086e-05
3.45525e-07
7.29588e-05
5.35919e-07
7.27943e-05
7.50653e-07
7.25906e-05
9.94214e-07
7.23473e-05
1.27192e-06
7.20651e-05
1.59001e-06
7.17483e-05
1.95566e-06
7.14058e-05
2.37672e-06
7.10549e-05
2.86111e-06
7.07247e-05
3.41533e-06
7.04613e-05
4.04181e-06
7.0331e-05
4.73435e-06
7.04177e-05
5.47075e-06
6.20095e-06
7.07966e-05
1.65643e-05
-1.3646e-06
1.70532e-05
-2.57457e-06
1.77462e-05
-3.60577e-06
1.86196e-05
-4.51042e-06
1.96543e-05
-5.31752e-06
2.08346e-05
-6.04499e-06
2.21468e-05
-6.70339e-06
2.35782e-05
-7.2983e-06
2.51167e-05
-7.83172e-06
2.67502e-05
-8.30329e-06
2.84658e-05
-8.71148e-06
3.02508e-05
-9.05437e-06
3.20915e-05
-9.33041e-06
3.39746e-05
-9.53885e-06
3.58865e-05
-9.68007e-06
3.7814e-05
-9.75566e-06
3.97444e-05
-9.76845e-06
4.1666e-05
-9.72234e-06
4.35677e-05
-9.62211e-06
4.54398e-05
-9.47319e-06
4.72737e-05
-9.28138e-06
4.9062e-05
-9.05269e-06
5.07984e-05
-8.79309e-06
5.2478e-05
-8.50836e-06
5.40967e-05
-8.20398e-06
5.56517e-05
-7.88504e-06
5.7141e-05
-7.55615e-06
5.85635e-05
-7.22147e-06
5.99186e-05
-6.88464e-06
6.12067e-05
-6.54885e-06
6.24284e-05
-6.21678e-06
6.3585e-05
-5.89073e-06
6.46779e-05
-5.57256e-06
6.57091e-05
-5.26377e-06
6.66805e-05
-4.96554e-06
6.75945e-05
-4.67876e-06
6.84535e-05
-4.40405e-06
6.92597e-05
-4.14181e-06
7.00158e-05
-3.89223e-06
7.07242e-05
-3.65534e-06
7.13873e-05
-3.43102e-06
7.20076e-05
-3.21902e-06
7.25872e-05
-3.01897e-06
7.31285e-05
-2.83041e-06
7.36336e-05
-2.65282e-06
7.41044e-05
-2.48558e-06
7.45428e-05
-2.32802e-06
7.49506e-05
-2.17942e-06
7.53292e-05
-2.03901e-06
7.56801e-05
-1.90596e-06
7.60046e-05
-1.77943e-06
7.63038e-05
-1.6585e-06
7.65785e-05
-1.54225e-06
7.68295e-05
-1.4297e-06
7.70574e-05
-1.31982e-06
7.72625e-05
-1.21156e-06
7.74452e-05
-1.10381e-06
7.76053e-05
-9.95399e-07
7.77428e-05
-8.85097e-07
7.78573e-05
-7.71606e-07
7.79484e-05
-6.53543e-07
7.80152e-05
-5.29428e-07
7.80571e-05
-3.97663e-07
7.80731e-05
-2.56512e-07
7.8062e-05
-1.04069e-07
7.80227e-05
6.17993e-08
7.79543e-05
2.43437e-07
7.78556e-05
4.43399e-07
7.77262e-05
6.64547e-07
7.7566e-05
9.10071e-07
7.73759e-05
1.18349e-06
7.71584e-05
1.48858e-06
7.69183e-05
1.82928e-06
7.66637e-05
2.20937e-06
7.64076e-05
2.632e-06
7.61692e-05
3.09878e-06
7.59752e-05
3.60856e-06
7.58607e-05
4.15549e-06
7.58676e-05
4.72673e-06
7.60379e-05
5.29977e-06
5.84015e-06
7.6398e-05
1.77149e-05
-1.62122e-06
1.82287e-05
-3.08762e-06
1.89612e-05
-4.33704e-06
1.9888e-05
-5.43553e-06
2.09892e-05
-6.41651e-06
2.22479e-05
-7.30109e-06
2.36496e-05
-8.10203e-06
2.51808e-05
-8.82609e-06
2.68284e-05
-9.47562e-06
2.85793e-05
-1.00502e-05
3.04199e-05
-1.05477e-05
3.2336e-05
-1.0966e-05
3.43132e-05
-1.13028e-05
3.63367e-05
-1.15574e-05
3.83918e-05
-1.17301e-05
4.0464e-05
-1.18227e-05
4.25396e-05
-1.18388e-05
4.46057e-05
-1.1783e-05
4.66503e-05
-1.16613e-05
4.86627e-05
-1.14802e-05
5.06336e-05
-1.12469e-05
5.25549e-05
-1.09686e-05
5.44199e-05
-1.06527e-05
5.6223e-05
-1.03062e-05
5.79601e-05
-9.93587e-06
5.96281e-05
-9.54782e-06
6.12247e-05
-9.14772e-06
6.27487e-05
-8.7406e-06
6.41998e-05
-8.33091e-06
6.55781e-05
-7.9225e-06
6.68845e-05
-7.51864e-06
6.81203e-05
-7.12211e-06
6.92871e-05
-6.73515e-06
7.0387e-05
-6.35959e-06
7.14222e-05
-5.99684e-06
7.23951e-05
-5.64797e-06
7.33083e-05
-5.31372e-06
7.41645e-05
-4.99456e-06
7.49662e-05
-4.69073e-06
7.57161e-05
-4.40224e-06
7.64169e-05
-4.12894e-06
7.7071e-05
-3.87051e-06
7.7681e-05
-3.62651e-06
7.82493e-05
-3.39637e-06
7.8778e-05
-3.17946e-06
7.92693e-05
-2.97502e-06
7.97253e-05
-2.78225e-06
8.01477e-05
-2.60027e-06
8.05382e-05
-2.42815e-06
8.08984e-05
-2.26492e-06
8.12295e-05
-2.10955e-06
8.15328e-05
-1.96098e-06
8.18094e-05
-1.81809e-06
8.206e-05
-1.67973e-06
8.22853e-05
-1.54473e-06
8.24858e-05
-1.41185e-06
8.2662e-05
-1.27981e-06
8.28138e-05
-1.14729e-06
8.29415e-05
-1.01291e-06
8.30449e-05
-8.75222e-07
8.31238e-05
-7.32728e-07
8.31777e-05
-5.83844e-07
8.32065e-05
-4.269e-07
8.32095e-05
-2.60128e-07
8.31864e-05
-8.16493e-08
8.31369e-05
1.10558e-07
8.3061e-05
3.18583e-07
8.2959e-05
5.44605e-07
8.28317e-05
7.90895e-07
8.26812e-05
1.05977e-06
8.25102e-05
1.35352e-06
8.23237e-05
1.67421e-06
8.21285e-05
2.02355e-06
8.19346e-05
2.40243e-06
8.17551e-05
2.81054e-06
8.16074e-05
3.24567e-06
8.15122e-05
3.7029e-06
8.14931e-05
4.17376e-06
8.15736e-05
4.64543e-06
8.17723e-05
5.10033e-06
5.51707e-06
8.20947e-05
1.89463e-05
-1.88834e-06
1.94866e-05
-3.62705e-06
2.02611e-05
-5.11023e-06
2.12448e-05
-6.41735e-06
2.2417e-05
-7.58634e-06
2.376e-05
-8.64126e-06
2.52583e-05
-9.59708e-06
2.68976e-05
-1.04617e-05
2.86639e-05
-1.12379e-05
3.05431e-05
-1.1925e-05
3.25204e-05
-1.25204e-05
3.45805e-05
-1.30212e-05
3.67077e-05
-1.34249e-05
3.88858e-05
-1.37302e-05
4.10987e-05
-1.39374e-05
4.33305e-05
-1.40489e-05
4.55661e-05
-1.40687e-05
4.77914e-05
-1.40025e-05
4.99932e-05
-1.38573e-05
5.21599e-05
-1.3641e-05
5.42811e-05
-1.33623e-05
5.63482e-05
-1.30298e-05
5.83536e-05
-1.26524e-05
6.02916e-05
-1.22385e-05
6.21575e-05
-1.17962e-05
6.3948e-05
-1.13328e-05
6.56607e-05
-1.0855e-05
6.72945e-05
-1.0369e-05
6.88487e-05
-9.88001e-06
7.03239e-05
-9.39259e-06
7.17208e-05
-8.91067e-06
7.30409e-05
-8.43751e-06
7.42861e-05
-7.97581e-06
7.54586e-05
-7.5277e-06
7.65608e-05
-7.09486e-06
7.75954e-05
-6.67854e-06
7.85651e-05
-6.27962e-06
7.94728e-05
-5.89864e-06
8.03214e-05
-5.53584e-06
8.11137e-05
-5.19126e-06
8.18524e-05
-4.86468e-06
8.25405e-05
-4.55573e-06
8.31805e-05
-4.26386e-06
8.3775e-05
-3.98842e-06
8.43264e-05
-3.72862e-06
8.4837e-05
-3.48357e-06
8.53089e-05
-3.25233e-06
8.57442e-05
-3.03385e-06
8.61446e-05
-2.82706e-06
8.65117e-05
-2.63079e-06
8.68471e-05
-2.44387e-06
8.71521e-05
-2.26506e-06
8.74279e-05
-2.09308e-06
8.76753e-05
-1.92661e-06
8.78954e-05
-1.76432e-06
8.80886e-05
-1.60482e-06
8.82556e-05
-1.44668e-06
8.83967e-05
-1.28845e-06
8.85123e-05
-1.12864e-06
8.86026e-05
-9.65719e-07
8.86676e-05
-7.98109e-07
8.87075e-05
-6.24198e-07
8.87223e-05
-4.42332e-07
8.87124e-05
-2.50816e-07
8.86779e-05
-4.79188e-08
8.86196e-05
1.68133e-07
8.85383e-05
3.99023e-07
8.84356e-05
6.46401e-07
8.83138e-05
9.11817e-07
8.8176e-05
1.19663e-06
8.80266e-05
1.5019e-06
8.78716e-05
1.82821e-06
8.77188e-05
2.17545e-06
8.75777e-05
2.54256e-06
8.74601e-05
2.92717e-06
8.73795e-05
3.3253e-06
8.73505e-05
3.73096e-06
8.73874e-05
4.13598e-06
8.75021e-05
4.52993e-06
8.7701e-05
4.9006e-06
5.23533e-06
8.79819e-05
2.02645e-05
-2.16747e-06
2.08333e-05
-4.19495e-06
2.1653e-05
-5.9285e-06
2.26979e-05
-7.46018e-06
2.39466e-05
-8.83257e-06
2.53809e-05
-1.00725e-05
2.69842e-05
-1.1197e-05
2.87416e-05
-1.22151e-05
3.0638e-05
-1.313e-05
3.26582e-05
-1.39405e-05
3.47864e-05
-1.46435e-05
3.70057e-05
-1.52353e-05
3.9299e-05
-1.57127e-05
4.16486e-05
-1.60739e-05
4.40365e-05
-1.63195e-05
4.64454e-05
-1.64518e-05
4.88586e-05
-1.64757e-05
5.12603e-05
-1.6398e-05
5.36361e-05
-1.62269e-05
5.59732e-05
-1.59718e-05
5.82602e-05
-1.5643e-05
6.04876e-05
-1.52509e-05
6.26473e-05
-1.48059e-05
6.47329e-05
-1.43179e-05
6.67393e-05
-1.37966e-05
6.86631e-05
-1.32506e-05
7.05018e-05
-1.26879e-05
7.2254e-05
-1.21155e-05
7.39194e-05
-1.15398e-05
7.54984e-05
-1.09661e-05
7.6992e-05
-1.0399e-05
7.84019e-05
-9.84229e-06
7.97301e-05
-9.29911e-06
8.09791e-05
-8.77196e-06
8.21515e-05
-8.26279e-06
8.32503e-05
-7.77304e-06
8.42785e-05
-7.30371e-06
8.52392e-05
-6.85542e-06
8.61355e-05
-6.42844e-06
8.69706e-05
-6.02278e-06
8.77474e-05
-5.63819e-06
8.84689e-05
-5.2742e-06
8.91381e-05
-4.93018e-06
8.97576e-05
-4.60533e-06
9.03301e-05
-4.29874e-06
9.08581e-05
-4.00938e-06
9.13439e-05
-3.73614e-06
9.17897e-05
-3.47781e-06
9.21974e-05
-3.23314e-06
9.25688e-05
-3.00083e-06
9.29056e-05
-2.77949e-06
9.32092e-05
-2.56775e-06
9.34811e-05
-2.36415e-06
9.37223e-05
-2.16723e-06
9.3934e-05
-1.9755e-06
9.41169e-05
-1.78744e-06
9.42719e-05
-1.60152e-06
9.43996e-05
-1.41618e-06
9.45006e-05
-1.22985e-06
9.45756e-05
-1.04096e-06
9.4625e-05
-8.47932e-07
9.46495e-05
-6.49184e-07
9.46497e-05
-4.43154e-07
9.46265e-05
-2.2831e-07
9.4581e-05
-3.14865e-09
9.45145e-05
2.33758e-07
9.4429e-05
4.8361e-07
9.43269e-05
7.47488e-07
9.42115e-05
1.02622e-06
9.40869e-05
1.32029e-06
9.3958e-05
1.62976e-06
9.38311e-05
1.95406e-06
9.37135e-05
2.29194e-06
9.36138e-05
2.64123e-06
9.35412e-05
2.99872e-06
9.35055e-05
3.36002e-06
9.35159e-05
3.71953e-06
9.35804e-05
4.07051e-06
9.37041e-05
4.40531e-06
9.38879e-05
4.71593e-06
4.99513e-06
9.41272e-05
2.16755e-05
-2.46039e-06
2.22755e-05
-4.79404e-06
2.31444e-05
-6.79582e-06
2.42557e-05
-8.5693e-06
2.55878e-05
-1.01619e-05
2.71217e-05
-1.1603e-05
2.88403e-05
-1.29117e-05
3.07276e-05
-1.40981e-05
3.27677e-05
-1.51654e-05
3.49442e-05
-1.6112e-05
3.72401e-05
-1.69339e-05
3.96369e-05
-1.76264e-05
4.21157e-05
-1.81855e-05
4.46568e-05
-1.86088e-05
4.72405e-05
-1.88968e-05
4.98474e-05
-1.90521e-05
5.24588e-05
-1.90805e-05
5.50573e-05
-1.89897e-05
5.76269e-05
-1.87896e-05
6.01532e-05
-1.84914e-05
6.2624e-05
-1.8107e-05
6.50285e-05
-1.76487e-05
6.7358e-05
-1.71287e-05
6.96056e-05
-1.65589e-05
7.17658e-05
-1.59503e-05
7.38349e-05
-1.53132e-05
7.58102e-05
-1.46569e-05
7.76906e-05
-1.39897e-05
7.94756e-05
-1.33188e-05
8.11658e-05
-1.26505e-05
8.27626e-05
-1.19901e-05
8.42676e-05
-1.13419e-05
8.56834e-05
-1.07096e-05
8.70127e-05
-1.00961e-05
8.82584e-05
-9.50359e-06
8.94237e-05
-8.9337e-06
9.0512e-05
-8.38756e-06
9.15266e-05
-7.86587e-06
9.24711e-05
-7.36891e-06
9.33487e-05
-6.89667e-06
9.41629e-05
-6.44882e-06
9.49168e-05
-6.02483e-06
9.56137e-05
-5.62394e-06
9.62564e-05
-5.24522e-06
9.68478e-05
-4.88761e-06
9.73908e-05
-4.54993e-06
9.78876e-05
-4.23088e-06
9.83409e-05
-3.92911e-06
9.87526e-05
-3.64319e-06
9.91249e-05
-3.37163e-06
9.94596e-05
-3.1129e-06
9.97583e-05
-2.86545e-06
0.000100023
-2.62767e-06
0.000100254
-2.39797e-06
0.000100454
-2.17472e-06
0.000100623
-1.95629e-06
0.000100763
-1.74107e-06
0.000100874
-1.52742e-06
0.000100958
-1.31376e-06
0.000101015
-1.09851e-06
0.000101047
-8.80124e-07
0.000101054
-6.57125e-07
0.000101038
-4.28099e-07
0.000101001
-1.91725e-07
0.000100944
5.32199e-08
0.000100869
3.07771e-07
0.000100779
5.72682e-07
0.000100677
8.48497e-07
0.000100566
1.13543e-06
0.000100452
1.43329e-06
0.00010034
1.74142e-06
0.000100234
2.05858e-06
0.000100142
2.38293e-06
0.00010007
2.7119e-06
0.000100025
3.04221e-06
0.000100014
3.36985e-06
0.000100043
3.6902e-06
0.000100114
3.99817e-06
0.00010023
4.28847e-06
0.000100389
4.55606e-06
4.79698e-06
0.000100586
2.31858e-05
-2.7691e-06
2.38204e-05
-5.42766e-06
2.47433e-05
-7.71703e-06
2.59276e-05
-9.75119e-06
2.73513e-05
-1.15827e-05
2.8995e-05
-1.32431e-05
3.08409e-05
-1.47535e-05
3.28724e-05
-1.6125e-05
3.50726e-05
-1.73605e-05
3.74241e-05
-1.84579e-05
3.9908e-05
-1.94119e-05
4.25044e-05
-2.02166e-05
4.51921e-05
-2.08666e-05
4.79492e-05
-2.13592e-05
5.07536e-05
-2.16942e-05
5.35834e-05
-2.18749e-05
5.64178e-05
-2.19076e-05
5.92371e-05
-2.18017e-05
6.20236e-05
-2.15687e-05
6.47612e-05
-2.12217e-05
6.74363e-05
-2.07747e-05
7.00372e-05
-2.02422e-05
7.25542e-05
-1.96385e-05
7.49799e-05
-1.89774e-05
7.73085e-05
-1.82718e-05
7.9536e-05
-1.75337e-05
8.16597e-05
-1.67738e-05
8.36784e-05
-1.60018e-05
8.5592e-05
-1.52259e-05
8.74011e-05
-1.44533e-05
8.91074e-05
-1.36902e-05
9.07131e-05
-1.29416e-05
9.22209e-05
-1.22117e-05
9.36338e-05
-1.15035e-05
9.49552e-05
-1.08198e-05
9.61888e-05
-1.01622e-05
9.73382e-05
-9.53213e-06
9.84071e-05
-8.93025e-06
9.93994e-05
-8.35689e-06
0.000100319
-7.81198e-06
0.000101169
-7.29514e-06
0.000101953
-6.80571e-06
0.000102675
-6.3428e-06
0.000103339
-5.90536e-06
0.000103946
-5.49215e-06
0.0001045
-5.10183e-06
0.000105005
-4.73293e-06
0.000105462
-4.38391e-06
0.000105873
-4.05317e-06
0.000106243
-3.73905e-06
0.000106571
-3.43986e-06
0.00010686
-3.15387e-06
0.000107113
-2.87937e-06
0.00010733
-2.6146e-06
0.000107514
-2.35784e-06
0.000107665
-2.10739e-06
0.000107786
-1.86154e-06
0.000107877
-1.61865e-06
0.00010794
-1.37711e-06
0.000107977
-1.13539e-06
0.000107988
-8.92041e-07
0.000107976
-6.45692e-07
0.000107943
-3.95112e-07
0.000107889
-1.39213e-07
0.000107819
1.22951e-07
0.000107733
3.92027e-07
0.000107637
6.6842e-07
0.000107532
9.52241e-07
0.000107423
1.24326e-06
0.000107314
1.54084e-06
0.00010721
1.84394e-06
0.000107117
2.15103e-06
0.000107038
2.4601e-06
0.00010698
2.76869e-06
0.000106947
3.07385e-06
0.000106944
3.37231e-06
0.000106972
3.66052e-06
0.000107034
3.93487e-06
0.00010713
4.19185e-06
0.000107257
4.42839e-06
4.64244e-06
0.00010741
2.48024e-05
-3.09589e-06
2.54757e-05
-6.09988e-06
2.64586e-05
-8.69803e-06
2.77237e-05
-1.10137e-05
2.9249e-05
-1.31047e-05
3.10147e-05
-1.5005e-05
3.30028e-05
-1.67371e-05
3.51958e-05
-1.8313e-05
3.75762e-05
-1.97354e-05
4.01252e-05
-2.10009e-05
4.28222e-05
-2.21026e-05
4.56452e-05
-2.30328e-05
4.85704e-05
-2.37848e-05
5.15732e-05
-2.43546e-05
5.46283e-05
-2.47418e-05
5.77112e-05
-2.495e-05
6.0798e-05
-2.49866e-05
6.38666e-05
-2.48625e-05
6.68971e-05
-2.45911e-05
6.98715e-05
-2.41881e-05
7.27746e-05
-2.36698e-05
7.55936e-05
-2.30532e-05
7.8318e-05
-2.2355e-05
8.09397e-05
-2.15912e-05
8.34525e-05
-2.0777e-05
8.58524e-05
-1.9926e-05
8.81368e-05
-1.90508e-05
9.03045e-05
-1.81622e-05
9.23556e-05
-1.72699e-05
9.42912e-05
-1.63821e-05
9.61134e-05
-1.55058e-05
9.78247e-05
-1.46465e-05
9.94282e-05
-1.3809e-05
0.000100928
-1.29969e-05
0.000102327
-1.2213e-05
0.000103629
-1.14594e-05
0.00010484
-1.07375e-05
0.000105962
-1.00479e-05
0.000107001
-9.39103e-06
0.00010796
-8.76678e-06
0.000108844
-8.17464e-06
0.000109656
-7.61384e-06
0.0001104
-7.08335e-06
0.00011108
-6.58195e-06
0.000111699
-6.10824e-06
0.000112261
-5.66068e-06
0.000112768
-5.23763e-06
0.000113223
-4.83737e-06
0.00011363
-4.4581e-06
0.000113991
-4.09801e-06
0.000114308
-3.75523e-06
0.000114583
-3.42791e-06
0.000114819
-3.11416e-06
0.000115017
-2.81214e-06
0.00011518
-2.52004e-06
0.000115309
-2.23606e-06
0.000115406
-1.95847e-06
0.000115473
-1.68562e-06
0.000115512
-1.41593e-06
0.000115524
-1.14791e-06
0.000115511
-8.80218e-07
0.000115477
-6.11621e-07
0.000115422
-3.41062e-07
0.000115349
-6.76634e-08
0.000115262
2.09285e-07
0.000115163
4.90125e-07
0.000115055
7.74991e-07
0.000114943
1.06372e-06
0.000114829
1.35582e-06
0.000114718
1.65045e-06
0.000114614
1.94645e-06
0.000114522
2.24226e-06
0.000114444
2.53605e-06
0.000114386
2.82567e-06
0.00011435
3.10874e-06
0.000114338
3.38275e-06
0.000114352
3.64515e-06
0.000114392
3.89347e-06
0.000114457
4.12549e-06
0.000114545
4.33939e-06
4.53427e-06
0.000114652
2.65328e-05
-3.44337e-06
2.72497e-05
-6.81562e-06
2.82997e-05
-9.74594e-06
2.96551e-05
-1.23664e-05
3.12941e-05
-1.47402e-05
3.31969e-05
-1.69035e-05
3.53452e-05
-1.88805e-05
3.77213e-05
-2.06835e-05
4.03066e-05
-2.23147e-05
4.30811e-05
-2.37688e-05
4.60222e-05
-2.50367e-05
4.91052e-05
-2.61084e-05
5.23031e-05
-2.6975e-05
5.55878e-05
-2.76312e-05
5.89302e-05
-2.8076e-05
6.23022e-05
-2.83135e-05
6.56765e-05
-2.83523e-05
6.90279e-05
-2.82052e-05
7.23338e-05
-2.78883e-05
7.55742e-05
-2.74197e-05
7.87321e-05
-2.68189e-05
8.17934e-05
-2.61058e-05
8.47469e-05
-2.52998e-05
8.75838e-05
-2.44196e-05
9.02978e-05
-2.34826e-05
9.28848e-05
-2.25047e-05
9.53423e-05
-2.15002e-05
9.76695e-05
-2.04815e-05
9.98669e-05
-1.94597e-05
0.000101936
-1.84439e-05
0.00010388
-1.7442e-05
0.0001057
-1.64604e-05
0.000107403
-1.55043e-05
0.00010899
-1.45778e-05
0.000110467
-1.3684e-05
0.000111839
-1.2825e-05
0.000113109
-1.20023e-05
0.000114283
-1.12167e-05
0.000115366
-1.04686e-05
0.000116362
-9.75771e-06
0.000117275
-9.08344e-06
0.00011811
-8.44487e-06
0.000118871
-7.84082e-06
0.000119563
-7.26987e-06
0.000120188
-6.73045e-06
0.000120751
-6.22081e-06
0.000121256
-5.73912e-06
0.000121704
-5.28347e-06
0.0001221
-4.85188e-06
0.000122446
-4.44236e-06
0.000122745
-4.05288e-06
0.000123
-3.68144e-06
0.000123213
-3.32603e-06
0.000123387
-2.98471e-06
0.000123523
-2.65557e-06
0.000123624
-2.33677e-06
0.000123692
-2.02655e-06
0.00012373
-1.72326e-06
0.000123739
-1.42534e-06
0.000123722
-1.13138e-06
0.000123681
-8.40118e-07
0.00012362
-5.5045e-07
0.000123539
-2.61462e-07
0.000123443
2.75803e-08
0.000123334
3.17177e-07
0.000123215
6.07496e-07
0.000123091
8.98517e-07
0.000122963
1.18994e-06
0.000122836
1.48119e-06
0.000122714
1.77142e-06
0.0001226
2.0595e-06
0.000122496
2.34411e-06
0.000122407
2.62368e-06
0.000122335
2.89652e-06
0.000122281
3.16084e-06
0.000122248
3.41482e-06
0.000122235
3.65674e-06
0.000122242
3.88498e-06
0.000122268
4.09819e-06
0.000122311
4.29539e-06
4.4763e-06
0.000122368
2.83849e-05
-3.81452e-06
2.91514e-05
-7.58076e-06
3.02771e-05
-1.08694e-05
3.17345e-05
-1.38207e-05
3.35021e-05
-1.65039e-05
3.55604e-05
-1.89572e-05
3.78914e-05
-2.12061e-05
4.04771e-05
-2.32632e-05
4.32983e-05
-2.51293e-05
4.63334e-05
-2.67967e-05
4.95573e-05
-2.8253e-05
5.29419e-05
-2.94849e-05
5.64561e-05
-3.04807e-05
6.0067e-05
-3.12333e-05
6.37411e-05
-3.17411e-05
6.74453e-05
-3.20085e-05
7.11484e-05
-3.2046e-05
7.48215e-05
-3.18688e-05
7.84388e-05
-3.1496e-05
8.1978e-05
-3.09493e-05
8.54203e-05
-3.02517e-05
8.87503e-05
-2.94263e-05
9.1956e-05
-2.84961e-05
9.50282e-05
-2.74826e-05
9.79607e-05
-2.64059e-05
0.000100749
-2.52843e-05
0.000103392
-2.41341e-05
0.000105888
-2.29694e-05
0.00010824
-2.18027e-05
0.000110448
-2.06443e-05
0.000112517
-1.9503e-05
0.00011445
-1.8386e-05
0.000116252
-1.72989e-05
0.000117928
-1.62462e-05
0.000119482
-1.52313e-05
0.00012092
-1.42566e-05
0.000122247
-1.33235e-05
0.000123469
-1.2433e-05
0.000124591
-1.15851e-05
0.000125619
-1.07797e-05
0.000126556
-1.0016e-05
0.000127408
-9.29277e-06
0.000128181
-8.60879e-06
0.000128877
-7.9624e-06
0.000129502
-7.35179e-06
0.000130059
-6.77504e-06
0.000130553
-6.23009e-06
0.000130987
-5.71483e-06
0.000131365
-5.22709e-06
0.000131689
-4.76469e-06
0.000131963
-4.32545e-06
0.000132191
-3.90721e-06
0.000132374
-3.50787e-06
0.000132515
-3.12535e-06
0.000132618
-2.75767e-06
0.000132685
-2.40296e-06
0.000132718
-2.05941e-06
0.00013272
-1.72538e-06
0.000132694
-1.39933e-06
0.000132642
-1.07991e-06
0.000132567
-7.65911e-07
0.000132472
-4.5632e-07
0.00013236
-1.50313e-07
0.000132234
1.52798e-07
0.000132096
4.53309e-07
0.000131951
7.51379e-07
0.000131802
1.04693e-06
0.000131651
1.33967e-06
0.000131501
1.62905e-06
0.000131357
1.91435e-06
0.00013122
2.19465e-06
0.000131094
2.46888e-06
0.00013098
2.73587e-06
0.000130881
2.99437e-06
0.000130797
3.24313e-06
0.000130729
3.48093e-06
0.000130678
3.70667e-06
0.000130642
3.91936e-06
0.000130621
4.11824e-06
0.000130612
4.30283e-06
4.47328e-06
0.000130613
3.03674e-05
-4.21286e-06
3.11906e-05
-8.4024e-06
3.24024e-05
-1.20788e-05
3.39761e-05
-1.53911e-05
3.58907e-05
-1.84141e-05
3.81275e-05
-2.11889e-05
4.06692e-05
-2.3742e-05
4.34982e-05
-2.60856e-05
4.65946e-05
-2.82184e-05
4.99347e-05
-3.01289e-05
5.34903e-05
-3.18002e-05
5.72285e-05
-3.32142e-05
6.11128e-05
-3.43557e-05
6.51042e-05
-3.52151e-05
6.91631e-05
-3.579e-05
7.32506e-05
-3.60859e-05
7.73305e-05
-3.61155e-05
8.13695e-05
-3.58973e-05
8.53384e-05
-3.54545e-05
8.92123e-05
-3.48128e-05
9.29707e-05
-3.39995e-05
9.6597e-05
-3.30422e-05
0.000100078
-3.19673e-05
0.000103406
-3.07999e-05
0.000106573
-2.95632e-05
0.000109577
-2.82781e-05
0.000112415
-2.69629e-05
0.000115089
-2.56338e-05
0.0001176
-2.43046e-05
0.000119952
-2.2987e-05
0.000122148
-2.16906e-05
0.000124194
-2.04234e-05
0.000126094
-1.91914e-05
0.000127856
-1.79997e-05
0.000129483
-1.68516e-05
0.000130983
-1.57499e-05
0.000132363
-1.46959e-05
0.000133626
-1.36906e-05
0.000134781
-1.27339e-05
0.000135833
-1.18256e-05
0.000136787
-1.09645e-05
0.000137648
-1.01495e-05
0.000138423
-9.37891e-06
0.000139116
-8.65093e-06
0.000139731
-7.96352e-06
0.000140274
-7.3145e-06
0.000140749
-6.70161e-06
0.00014116
-6.1225e-06
0.00014151
-5.57481e-06
0.000141803
-5.05617e-06
0.000142044
-4.56423e-06
0.000142235
-4.09669e-06
0.00014238
-3.65129e-06
0.000142481
-3.22588e-06
0.000142543
-2.81838e-06
0.000142567
-2.42686e-06
0.000142558
-2.04949e-06
0.000142517
-1.68458e-06
0.000142448