/*--------------------------------*- C++ -*----------------------------------*\
  =========                 |
  \\      /  F ield         | OpenFOAM: The Open Source CFD Toolbox
   \\    /   O peration     | Website:  https://openfoam.org
    \\  /    A nd           | Version:  7
     \\/     M anipulation  |
\*---------------------------------------------------------------------------*/
FoamFile
{
    version     2.0;
    format      ascii;
    class       volScalarField;
    location    "9.38";
    object      T;
}
// * * * * * * * * * * * * * * * * * * * * * * * * * * * * * * * * * * * * * //

dimensions      [0 0 0 1 0 0 0];

internalField   nonuniform List<scalar> 
12013
(
300.142
300.431
300.726
301.026
301.327
301.628
301.926
302.221
302.51
302.793
303.068
303.336
303.595
303.846
304.088
304.32
304.544
304.759
304.966
305.164
305.354
305.537
305.713
305.882
306.045
306.201
306.352
306.498
306.638
306.775
306.907
307.036
307.161
307.285
307.406
307.526
307.645
307.764
307.884
308.006
308.13
308.259
308.393
308.533
308.681
308.84
309.01
309.194
309.394
309.614
309.855
310.121
310.416
310.743
311.107
311.512
311.963
312.467
313.029
313.655
314.353
315.131
315.998
316.962
318.035
319.228
320.554
322.027
323.663
325.48
327.498
329.742
332.239
335.024
338.138
341.633
345.58
350.076
355.268
361.4
368.935
300.142
300.431
300.727
301.026
301.328
301.628
301.927
302.222
302.511
302.794
303.07
303.338
303.597
303.848
304.09
304.322
304.546
304.761
304.968
305.167
305.357
305.54
305.716
305.885
306.048
306.204
306.355
306.501
306.641
306.778
306.91
307.039
307.164
307.288
307.409
307.528
307.648
307.767
307.887
308.008
308.133
308.261
308.395
308.535
308.684
308.842
309.012
309.196
309.396
309.615
309.856
310.122
310.416
310.743
311.106
311.511
311.961
312.464
313.025
313.65
314.346
315.123
315.987
316.949
318.019
319.209
320.53
321.998
323.627
325.435
327.442
329.672
332.151
334.91
337.99
341.436
345.309
349.687
354.669
360.381
366.937
300.143
300.432
300.728
301.028
301.329
301.63
301.929
302.224
302.514
302.797
303.074
303.342
303.601
303.852
304.094
304.327
304.551
304.767
304.974
305.172
305.363
305.546
305.722
305.891
306.054
306.211
306.362
306.507
306.648
306.784
306.917
307.045
307.171
307.294
307.415
307.535
307.654
307.773
307.893
308.014
308.139
308.267
308.401
308.541
308.689
308.846
309.016
309.2
309.399
309.618
309.858
310.123
310.417
310.742
311.105
311.508
311.957
312.458
313.016
313.638
314.332
315.104
315.964
316.921
317.985
319.166
320.477
321.933
323.547
325.336
327.319
329.519
331.958
334.665
337.672
341.018
344.745
348.903
353.539
358.681
364.293
300.143
300.433
300.729
301.029
301.332
301.633
301.933
302.228
302.519
302.803
303.079
303.348
303.608
303.86
304.102
304.336
304.56
304.776
304.983
305.182
305.373
305.556
305.732
305.902
306.064
306.221
306.372
306.518
306.659
306.795
306.927
307.056
307.182
307.305
307.426
307.545
307.664
307.783
307.903
308.024
308.148
308.276
308.41
308.549
308.697
308.854
309.023
309.206
309.405
309.623
309.862
310.126
310.418
310.742
311.102
311.503
311.95
312.447
313.002
313.62
314.308
315.074
315.927
316.875
317.927
319.095
320.391
321.827
323.416
325.175
327.121
329.272
331.648
334.274
337.173
340.373
343.898
347.771
352.002
356.573
361.412
300.143
300.434
300.731
301.032
301.335
301.638
301.938
302.235
302.526
302.811
303.088
303.358
303.619
303.871
304.114
304.348
304.573
304.789
304.996
305.196
305.387
305.571
305.747
305.917
306.08
306.237
306.388
306.534
306.675
306.811
306.944
307.072
307.198
307.321
307.442
307.561
307.68
307.798
307.918
308.039
308.163
308.29
308.423
308.562
308.709
308.866
309.034
309.216
309.413
309.63
309.867
310.13
310.42
310.741
311.099
311.496
311.939
312.432
312.981
313.593
314.274
315.031
315.872
316.807
317.844
318.994
320.266
321.674
323.229
324.946
326.839
328.923
331.215
333.733
336.493
339.51
342.796
346.355
350.175
354.224
358.436
300.144
300.435
300.734
301.036
301.34
301.644
301.946
302.243
302.536
302.822
303.1
303.371
303.633
303.886
304.129
304.364
304.59
304.807
305.015
305.215
305.407
305.591
305.768
305.938
306.101
306.259
306.41
306.556
306.697
306.834
306.966
307.095
307.22
307.343
307.464
307.583
307.701
307.819
307.939
308.059
308.183
308.31
308.441
308.58
308.726
308.881
309.049
309.229
309.425
309.64
309.875
310.135
310.422
310.741
311.094
311.488
311.925
312.412
312.954
313.556
314.227
314.972
315.799
316.716
317.732
318.857
320.099
321.47
322.981
324.642
326.467
328.468
330.656
333.044
335.64
338.452
341.48
344.719
348.148
351.734
355.425
300.144
300.437
300.737
301.041
301.347
301.652
301.955
302.255
302.549
302.836
303.116
303.388
303.651
303.905
304.15
304.386
304.613
304.831
305.04
305.241
305.433
305.618
305.796
305.966
306.13
306.288
306.439
306.586
306.727
306.863
306.996
307.124
307.25
307.372
307.493
307.612
307.73
307.848
307.966
308.086
308.209
308.335
308.466
308.604
308.749
308.903
309.068
309.247
309.441
309.654
309.886
310.143
310.427
310.741
311.089
311.477
311.907
312.386
312.918
313.51
314.167
314.896
315.705
316.6
317.59
318.682
319.887
321.212
322.667
324.262
326.006
327.908
329.976
332.216
334.633
337.227
339.994
342.921
345.988
349.165
352.414
300.145
300.44
300.742
301.048
301.356
301.663
301.968
302.269
302.565
302.855
303.136
303.41
303.675
303.931
304.178
304.415
304.643
304.862
305.072
305.274
305.468
305.653
305.832
306.003
306.167
306.325
306.477
306.624
306.765
306.902
307.034
307.163
307.288
307.41
307.531
307.649
307.767
307.884
308.002
308.121
308.243
308.369
308.499
308.635
308.778
308.931
309.094
309.271
309.463
309.672
309.901
310.154
310.433
310.742
311.084
311.464
311.886
312.354
312.875
313.453
314.093
314.803
315.589
316.457
317.414
318.468
319.627
320.898
322.288
323.805
325.456
327.247
329.182
331.264
333.494
335.867
338.377
341.009
343.746
346.563
349.429
300.146
300.444
300.748
301.056
301.366
301.676
301.984
302.288
302.586
302.878
303.162
303.438
303.705
303.963
304.212
304.451
304.681
304.901
305.113
305.316
305.511
305.698
305.877
306.049
306.214
306.373
306.525
306.672
306.814
306.95
307.083
307.211
307.337
307.459
307.579
307.697
307.814
307.931
308.048
308.166
308.287
308.411
308.54
308.674
308.816
308.966
309.128
309.301
309.49
309.696
309.921
310.169
310.442
310.744
311.079
311.45
311.861
312.318
312.824
313.385
314.006
314.692
315.45
316.286
317.206
318.215
319.321
320.529
321.846
323.276
324.825
326.496
328.29
330.208
332.248
334.404
336.668
339.027
341.464
343.96
346.493
300.148
300.448
300.755
301.066
301.38
301.693
302.004
302.311
302.612
302.907
303.195
303.473
303.743
304.003
304.254
304.496
304.728
304.95
305.164
305.369
305.565
305.753
305.933
306.106
306.272
306.432
306.585
306.732
306.874
307.011
307.144
307.272
307.397
307.519
307.639
307.756
307.873
307.989
308.105
308.222
308.342
308.465
308.591
308.724
308.864
309.012
309.17
309.341
309.525
309.727
309.947
310.189
310.455
310.75
311.075
311.435
311.834
312.276
312.766
313.307
313.904
314.564
315.291
316.089
316.965
317.924
318.971
320.11
321.346
322.683
324.122
325.667
327.317
329.07
330.924
332.871
334.903
337.009
339.175
341.386
343.624
300.15
300.453
300.764
301.079
301.396
301.714
302.028
302.339
302.645
302.943
303.234
303.516
303.789
304.053
304.307
304.551
304.786
305.011
305.226
305.433
305.631
305.821
306.003
306.178
306.345
306.505
306.659
306.807
306.949
307.087
307.219
307.348
307.473
307.594
307.713
307.83
307.946
308.061
308.176
308.292
308.41
308.531
308.656
308.786
308.923
309.068
309.223
309.39
309.57
309.766
309.981
310.216
310.474
310.76
311.074
311.422
311.807
312.232
312.702
313.22
313.792
314.421
315.111
315.869
316.697
317.6
318.582
319.646
320.796
322.034
323.362
324.778
326.284
327.875
329.548
331.296
333.112
334.987
336.908
338.864
340.842
300.152
300.459
300.775
301.095
301.417
301.739
302.058
302.374
302.684
302.987
303.282
303.569
303.846
304.113
304.371
304.618
304.856
305.084
305.303
305.512
305.713
305.905
306.088
306.264
306.433
306.595
306.75
306.898
307.041
307.179
307.312
307.44
307.565
307.686
307.804
307.921
308.035
308.149
308.263
308.377
308.494
308.613
308.735
308.863
308.997
309.139
309.29
309.452
309.627
309.817
310.025
310.252
310.501
310.776
311.079
311.412
311.781
312.187
312.635
313.128
313.67
314.265
314.916
315.628
316.404
317.247
318.161
319.147
320.208
321.345
322.559
323.848
325.211
326.646
328.147
329.709
331.327
332.99
334.691
336.419
338.164
300.154
300.467
300.788
301.113
301.441
301.769
302.094
302.415
302.731
303.04
303.34
303.632
303.914
304.186
304.448
304.7
304.941
305.173
305.395
305.608
305.811
306.006
306.192
306.37
306.54
306.703
306.859
307.009
307.153
307.291
307.424
307.552
307.676
307.797
307.915
308.03
308.144
308.257
308.369
308.482
308.596
308.712
308.832
308.957
309.087
309.225
309.372
309.529
309.698
309.882
310.081
310.3
310.539
310.802
311.091
311.409
311.759
312.144
312.568
313.033
313.543
314.102
314.711
315.375
316.096
316.876
317.718
318.624
319.595
320.631
321.732
322.896
324.123
325.408
326.748
328.138
329.572
331.044
332.546
334.07
335.608
300.157
300.477
300.804
301.136
301.47
301.805
302.137
302.465
302.788
303.103
303.41
303.708
303.996
304.273
304.541
304.798
305.044
305.28
305.507
305.723
305.93
306.128
306.316
306.497
306.669
306.834
306.991
307.142
307.287
307.425
307.559
307.687
307.811
307.931
308.049
308.163
308.275
308.386
308.497
308.608
308.719
308.833
308.95
309.071
309.198
309.331
309.473
309.624
309.787
309.963
310.154
310.362
310.59
310.84
311.114
311.415
311.746
312.108
312.506
312.941
313.417
313.937
314.502
315.115
315.779
316.495
317.266
318.091
318.972
319.908
320.899
321.944
323.04
324.185
325.376
326.607
327.874
329.172
330.495
331.836
333.189
300.161
300.488
300.822
301.163
301.505
301.848
302.188
302.525
302.855
303.178
303.493
303.798
304.093
304.378
304.651
304.915
305.167
305.409
305.64
305.861
306.072
306.273
306.465
306.649
306.824
306.99
307.15
307.302
307.447
307.587
307.72
307.849
307.973
308.092
308.208
308.322
308.433
308.542
308.651
308.759
308.868
308.979
309.093
309.21
309.332
309.461
309.596
309.741
309.897
310.064
310.246
310.444
310.66
310.895
311.153
311.436
311.745
312.084
312.454
312.858
313.299
313.778
314.297
314.859
315.466
316.117
316.816
317.561
318.354
319.195
320.081
321.012
321.986
323.001
324.053
325.139
326.255
327.396
328.558
329.735
330.924
300.165
300.501
300.845
301.194
301.547
301.899
302.249
302.595
302.935
303.268
303.591
303.905
304.209
304.502
304.783
305.054
305.313
305.561
305.798
306.025
306.241
306.447
306.643
306.829
307.007
307.177
307.338
307.492
307.638
307.778
307.912
308.041
308.164
308.284
308.399
308.511
308.62
308.728
308.834
308.94
309.046
309.154
309.263
309.376
309.494
309.617
309.747
309.884
310.032
310.191
310.362
310.549
310.751
310.972
311.213
311.476
311.763
312.077
312.419
312.791
313.195
313.633
314.106
314.617
315.166
315.755
316.383
317.051
317.76
318.509
319.296
320.121
320.982
321.876
322.802
323.756
324.734
325.734
326.752
327.784
328.825
300.17
300.516
300.871
301.232
301.596
301.959
302.321
302.679
303.03
303.374
303.708
304.032
304.346
304.648
304.939
305.218
305.486
305.742
305.986
306.219
306.441
306.652
306.852
307.043
307.224
307.397
307.56
307.716
307.864
308.005
308.14
308.268
308.391
308.51
308.624
308.735
308.842
308.948
309.051
309.154
309.257
309.361
309.467
309.575
309.687
309.805
309.928
310.058
310.197
310.347
310.507
310.681
310.87
311.075
311.299
311.542
311.806
312.094
312.407
312.747
313.114
313.512
313.94
314.4
314.893
315.42
315.981
316.576
317.205
317.868
318.563
319.29
320.046
320.831
321.642
322.476
323.331
324.205
325.094
325.995
326.905
300.176
300.535
300.902
301.276
301.653
302.031
302.406
302.777
303.142
303.498
303.845
304.182
304.508
304.822
305.123
305.413
305.69
305.955
306.207
306.448
306.676
306.893
307.099
307.295
307.48
307.656
307.822
307.98
308.129
308.271
308.407
308.535
308.658
308.776
308.889
308.998
309.103
309.207
309.308
309.407
309.507
309.607
309.708
309.811
309.918
310.029
310.145
310.267
310.398
310.537
310.687
310.848
311.022
311.212
311.417
311.639
311.881
312.143
312.427
312.735
313.066
313.424
313.808
314.219
314.659
315.127
315.624
316.15
316.705
317.288
317.898
318.535
319.196
319.881
320.588
321.315
322.06
322.821
323.595
324.379
325.173
300.184
300.556
300.939
301.328
301.721
302.114
302.506
302.892
303.273
303.645
304.007
304.358
304.698
305.025
305.34
305.641
305.93
306.205
306.467
306.716
306.952
307.176
307.388
307.589
307.779
307.958
308.128
308.288
308.439
308.583
308.718
308.847
308.97
309.086
309.198
309.305
309.409
309.509
309.608
309.704
309.8
309.895
309.991
310.089
310.19
310.294
310.403
310.517
310.638
310.767
310.905
311.054
311.214
311.387
311.574
311.776
311.995
312.232
312.488
312.763
313.06
313.379
313.721
314.086
314.475
314.889
315.326
315.788
316.274
316.784
317.317
317.872
318.447
319.043
319.657
320.288
320.934
321.594
322.266
322.947
323.637
300.192
300.582
300.982
301.389
301.8
302.212
302.622
303.028
303.426
303.816
304.196
304.564
304.92
305.263
305.593
305.908
306.21
306.497
306.77
307.029
307.274
307.506
307.725
307.932
308.127
308.31
308.483
308.646
308.799
308.944
309.08
309.209
309.331
309.447
309.557
309.663
309.764
309.861
309.956
310.049
310.141
310.231
310.323
310.415
310.509
310.606
310.707
310.813
310.925
311.043
311.17
311.305
311.451
311.607
311.776
311.959
312.156
312.368
312.596
312.842
313.105
313.388
313.69
314.011
314.353
314.716
315.099
315.502
315.926
316.369
316.832
317.313
317.812
318.328
318.859
319.405
319.963
320.534
321.115
321.705
322.302
300.202
300.611
301.032
301.46
301.893
302.327
302.759
303.186
303.605
304.016
304.417
304.805
305.18
305.541
305.888
306.22
306.536
306.836
307.122
307.392
307.647
307.888
308.115
308.328
308.529
308.717
308.893
309.059
309.214
309.36
309.497
309.626
309.748
309.863
309.971
310.074
310.173
310.268
310.359
310.448
310.535
310.621
310.707
310.793
310.881
310.971
311.064
311.161
311.263
311.371
311.485
311.608
311.739
311.88
312.032
312.194
312.37
312.558
312.761
312.978
313.21
313.459
313.724
314.005
314.304
314.62
314.953
315.303
315.67
316.054
316.454
316.869
317.3
317.745
318.203
318.673
319.154
319.646
320.148
320.657
321.173
300.213
300.646
301.091
301.544
302.001
302.46
302.918
303.37
303.815
304.25
304.674
305.085
305.483
305.865
306.231
306.58
306.913
307.229
307.529
307.811
308.078
308.328
308.563
308.784
308.99
309.184
309.364
309.533
309.691
309.838
309.975
310.104
310.225
310.338
310.445
310.546
310.642
310.733
310.821
310.905
310.987
311.068
311.148
311.229
311.309
311.392
311.477
311.565
311.658
311.755
311.858
311.968
312.085
312.211
312.345
312.49
312.645
312.811
312.989
313.179
313.383
313.6
313.831
314.076
314.335
314.609
314.897
315.199
315.516
315.847
316.191
316.549
316.919
317.301
317.694
318.098
318.512
318.935
319.366
319.804
320.248
300.226
300.686
301.159
301.641
302.128
302.616
303.103
303.584
304.058
304.522
304.973
305.411
305.833
306.239
306.627
306.997
307.349
307.682
307.996
308.293
308.571
308.832
309.077
309.305
309.518
309.716
309.901
310.073
310.233
310.381
310.519
310.648
310.768
310.879
310.984
311.082
311.175
311.262
311.346
311.426
311.503
311.578
311.653
311.726
311.8
311.875
311.952
312.032
312.115
312.201
312.293
312.391
312.494
312.605
312.724
312.851
312.986
313.132
313.287
313.453
313.63
313.818
314.018
314.23
314.454
314.69
314.938
315.198
315.471
315.754
316.05
316.356
316.673
317.001
317.337
317.683
318.038
318.4
318.77
319.146
319.527
300.242
300.734
301.239
301.754
302.275
302.797
303.318
303.834
304.341
304.837
305.32
305.787
306.238
306.67
307.083
307.476
307.848
308.2
308.531
308.842
309.134
309.406
309.66
309.897
310.116
310.32
310.509
310.683
310.845
310.995
311.133
311.261
311.38
311.489
311.592
311.687
311.776
311.859
311.938
312.014
312.086
312.155
312.223
312.29
312.357
312.425
312.494
312.564
312.638
312.714
312.795
312.881
312.972
313.068
313.172
313.282
313.4
313.527
313.661
313.805
313.958
314.12
314.292
314.475
314.667
314.869
315.082
315.305
315.538
315.781
316.033
316.295
316.566
316.846
317.134
317.429
317.732
318.042
318.358
318.68
319.007
300.26
300.788
301.332
301.885
302.446
303.008
303.568
304.123
304.668
305.201
305.72
306.221
306.704
307.165
307.606
308.023
308.418
308.79
309.14
309.466
309.772
310.056
310.319
310.564
310.79
310.999
311.192
311.369
311.533
311.683
311.821
311.948
312.065
312.172
312.271
312.363
312.448
312.527
312.602
312.672
312.738
312.802
312.863
312.924
312.984
313.044
313.104
313.166
313.231
313.297
313.368
313.442
313.521
313.604
313.694
313.789
313.891
313.999
314.115
314.239
314.37
314.509
314.657
314.813
314.977
315.151
315.332
315.523
315.722
315.929
316.144
316.367
316.598
316.836
317.082
317.334
317.592
317.857
318.126
318.401
318.681
300.281
300.852
301.439
302.038
302.644
303.252
303.858
304.457
305.046
305.622
306.18
306.719
307.237
307.732
308.202
308.646
309.065
309.459
309.827
310.17
310.49
310.785
311.059
311.312
311.544
311.758
311.954
312.134
312.298
312.448
312.585
312.711
312.825
312.93
313.025
313.113
313.194
313.268
313.337
313.402
313.462
313.52
313.575
313.629
313.682
313.734
313.787
313.84
313.896
313.953
314.013
314.077
314.144
314.216
314.292
314.374
314.461
314.554
314.653
314.758
314.87
314.989
315.115
315.248
315.388
315.536
315.691
315.853
316.022
316.198
316.381
316.571
316.768
316.971
317.18
317.394
317.614
317.84
318.07
318.304
318.543
300.305
300.926
301.564
302.215
302.874
303.535
304.193
304.843
305.482
306.105
306.708
307.289
307.846
308.376
308.878
309.351
309.796
310.212
310.6
310.959
311.293
311.6
311.883
312.143
312.381
312.599
312.797
312.978
313.143
313.292
313.428
313.551
313.662
313.763
313.855
313.938
314.013
314.083
314.146
314.205
314.259
314.311
314.359
314.406
314.452
314.497
314.542
314.587
314.634
314.683
314.734
314.788
314.845
314.905
314.97
315.039
315.112
315.191
315.275
315.365
315.46
315.561
315.668
315.781
315.9
316.026
316.157
316.295
316.439
316.589
316.745
316.906
317.073
317.246
317.424
317.607
317.794
317.986
318.182
318.382
318.586
300.334
301.012
301.71
302.421
303.14
303.861
304.579
305.288
305.982
306.658
307.311
307.939
308.537
309.105
309.642
310.145
310.616
311.055
311.462
311.838
312.184
312.503
312.794
313.06
313.303
313.523
313.723
313.904
314.067
314.215
314.348
314.467
314.575
314.671
314.758
314.836
314.906
314.97
315.027
315.08
315.128
315.173
315.215
315.255
315.294
315.332
315.369
315.407
315.446
315.487
315.529
315.574
315.621
315.672
315.726
315.784
315.846
315.912
315.983
316.059
316.14
316.225
316.316
316.412
316.513
316.62
316.732
316.849
316.971
317.099
317.232
317.369
317.511
317.658
317.81
317.965
318.125
318.289
318.456
318.627
318.801
300.367
301.112
301.878
302.659
303.448
304.239
305.024
305.799
306.556
307.29
307.998
308.675
309.319
309.927
310.499
311.033
311.531
311.992
312.417
312.808
313.167
313.494
313.792
314.063
314.308
314.529
314.729
314.908
315.069
315.213
315.342
315.457
315.56
315.651
315.732
315.804
315.869
315.926
315.977
316.024
316.066
316.104
316.14
316.174
316.206
316.237
316.268
316.299
316.331
316.364
316.399
316.435
316.475
316.516
316.562
316.61
316.662
316.718
316.777
316.841
316.909
316.982
317.059
317.141
317.227
317.318
317.413
317.513
317.617
317.726
317.839
317.956
318.078
318.203
318.333
318.466
318.602
318.742
318.885
319.031
319.18
300.405
301.228
302.073
302.934
303.803
304.673
305.536
306.384
307.21
308.01
308.776
309.507
310.198
310.848
311.455
312.02
312.543
313.025
313.467
313.871
314.239
314.573
314.875
315.148
315.393
315.613
315.811
315.987
316.144
316.283
316.406
316.516
316.612
316.697
316.772
316.838
316.896
316.947
316.993
317.033
317.069
317.101
317.131
317.158
317.184
317.21
317.235
317.26
317.285
317.312
317.34
317.37
317.402
317.437
317.475
317.515
317.559
317.606
317.656
317.71
317.768
317.83
317.896
317.966
318.039
318.117
318.199
318.284
318.374
318.467
318.564
318.665
318.769
318.877
318.988
319.102
319.219
319.339
319.462
319.587
319.715
300.449
301.361
302.298
303.252
304.213
305.173
306.122
307.052
307.955
308.824
309.654
310.44
311.18
311.872
312.514
313.108
313.654
314.153
314.609
315.022
315.397
315.734
316.037
316.309
316.552
316.769
316.961
317.132
317.282
317.415
317.532
317.635
317.724
317.803
317.871
317.93
317.982
318.027
318.066
318.1
318.131
318.158
318.182
318.204
318.225
318.246
318.266
318.286
318.307
318.328
318.351
318.376
318.403
318.432
318.463
318.498
318.535
318.575
318.618
318.665
318.715
318.768
318.825
318.886
318.949
319.017
319.088
319.162
319.239
319.32
319.404
319.491
319.582
319.675
319.771
319.869
319.971
320.074
320.18
320.289
320.399
300.5
301.516
302.559
303.618
304.684
305.745
306.791
307.812
308.798
309.742
310.638
311.481
312.269
313
313.675
314.294
314.859
315.373
315.837
316.256
316.632
316.968
317.269
317.536
317.774
317.984
318.169
318.332
318.475
318.6
318.709
318.804
318.886
318.957
319.019
319.072
319.117
319.157
319.19
319.22
319.245
319.268
319.288
319.306
319.324
319.34
319.357
319.374
319.391
319.409
319.429
319.45
319.473
319.499
319.526
319.556
319.589
319.624
319.663
319.704
319.748
319.795
319.845
319.899
319.955
320.014
320.077
320.142
320.21
320.281
320.355
320.432
320.511
320.592
320.676
320.763
320.851
320.941
321.034
321.128
321.224
300.559
301.695
302.859
304.039
305.224
306.4
307.553
308.672
309.747
310.769
311.732
312.631
313.465
314.232
314.934
315.573
316.151
316.672
317.139
317.558
317.93
318.261
318.555
318.814
319.042
319.243
319.418
319.572
319.706
319.822
319.923
320.01
320.085
320.149
320.204
320.252
320.292
320.327
320.356
320.382
320.404
320.424
320.442
320.458
320.474
320.488
320.503
320.519
320.535
320.552
320.57
320.589
320.611
320.635
320.66
320.688
320.718
320.751
320.786
320.824
320.865
320.908
320.954
321.002
321.054
321.107
321.164
321.223
321.284
321.348
321.414
321.482
321.552
321.625
321.699
321.776
321.854
321.934
322.015
322.098
322.182
300.628
301.901
303.204
304.523
305.842
307.144
308.415
309.64
310.808
311.908
312.936
313.888
314.761
315.558
316.279
316.93
317.513
318.034
318.497
318.908
319.272
319.593
319.874
320.122
320.338
320.527
320.691
320.834
320.958
321.065
321.158
321.237
321.306
321.365
321.415
321.458
321.495
321.527
321.555
321.579
321.6
321.619
321.636
321.653
321.668
321.684
321.7
321.716
321.732
321.75
321.769
321.79
321.812
321.836
321.862
321.89
321.92
321.952
321.987
322.023
322.062
322.104
322.147
322.193
322.241
322.291
322.344
322.398
322.455
322.513
322.573
322.636
322.699
322.765
322.832
322.901
322.971
323.042
323.114
323.188
323.263
300.706
302.138
303.6
305.076
306.545
307.987
309.384
310.72
311.981
313.158
314.246
315.242
316.146
316.961
317.691
318.342
318.921
319.433
319.884
320.282
320.631
320.936
321.202
321.434
321.637
321.812
321.965
322.097
322.211
322.31
322.396
322.47
322.533
322.588
322.636
322.678
322.714
322.745
322.774
322.799
322.822
322.843
322.863
322.882
322.901
322.919
322.938
322.958
322.978
322.999
323.022
323.045
323.07
323.097
323.125
323.155
323.187
323.221
323.256
323.294
323.333
323.374
323.417
323.462
323.509
323.557
323.607
323.659
323.712
323.767
323.823
323.881
323.94
324
324.062
324.124
324.188
324.252
324.317
324.384
324.45
300.796
302.409
304.053
305.705
307.34
308.935
310.465
311.913
313.264
314.51
315.645
316.672
317.594
318.414
319.139
319.778
320.34
320.833
321.264
321.641
321.97
322.256
322.504
322.721
322.908
323.072
323.213
323.336
323.443
323.536
323.617
323.688
323.75
323.805
323.853
323.896
323.934
323.969
324.001
324.03
324.058
324.084
324.109
324.134
324.159
324.183
324.208
324.234
324.259
324.286
324.314
324.343
324.373
324.404
324.436
324.47
324.505
324.542
324.58
324.62
324.661
324.703
324.747
324.792
324.839
324.887
324.936
324.986
325.037
325.09
325.143
325.197
325.253
325.309
325.366
325.423
325.481
325.54
325.599
325.659
325.719
300.899
302.719
304.568
306.417
308.235
309.99
311.656
313.212
314.646
315.943
317.105
318.139
319.054
319.859
320.566
321.183
321.72
322.189
322.595
322.948
323.255
323.521
323.752
323.953
324.128
324.28
324.413
324.529
324.632
324.722
324.802
324.873
324.936
324.994
325.046
325.093
325.137
325.178
325.217
325.254
325.289
325.323
325.357
325.39
325.422
325.455
325.488
325.521
325.554
325.588
325.623
325.658
325.695
325.731
325.769
325.808
325.848
325.888
325.93
325.972
326.016
326.06
326.106
326.152
326.199
326.247
326.295
326.344
326.394
326.445
326.496
326.548
326.6
326.652
326.705
326.758
326.812
326.865
326.919
326.973
327.028
301.016
303.07
305.151
307.219
309.233
311.157
312.951
314.588
316.064
317.381
318.547
319.572
320.468
321.249
321.926
322.513
323.021
323.459
323.838
324.166
324.45
324.697
324.911
325.098
325.262
325.406
325.533
325.646
325.747
325.837
325.919
325.994
326.062
326.126
326.185
326.24
326.292
326.342
326.39
326.436
326.481
326.525
326.568
326.611
326.653
326.695
326.737
326.779
326.821
326.863
326.905
326.947
326.99
327.033
327.077
327.12
327.165
327.209
327.254
327.3
327.346
327.392
327.439
327.486
327.534
327.581
327.629
327.678
327.726
327.775
327.824
327.872
327.921
327.97
328.019
328.068
328.117
328.166
328.215
328.263
328.312
301.147
303.467
305.807
308.114
310.329
312.385
314.26
315.946
317.445
318.763
319.915
320.915
321.779
322.524
323.164
323.714
324.186
324.593
324.943
325.245
325.508
325.736
325.936
326.111
326.267
326.405
326.529
326.642
326.744
326.837
326.924
327.004
327.079
327.15
327.218
327.282
327.344
327.404
327.462
327.518
327.573
327.627
327.68
327.733
327.785
327.836
327.886
327.937
327.986
328.036
328.085
328.134
328.183
328.231
328.28
328.328
328.376
328.424
328.472
328.52
328.568
328.616
328.663
328.711
328.758
328.805
328.853
328.899
328.946
328.992
329.039
329.085
329.13
329.176
329.221
329.265
329.31
329.354
329.397
329.44
329.483
301.29
303.901
306.526
309.056
311.414
313.565
315.496
317.204
318.699
319.996
321.115
322.075
322.895
323.595
324.193
324.703
325.139
325.513
325.835
326.114
326.357
326.569
326.757
326.923
327.073
327.208
327.331
327.443
327.548
327.645
327.737
327.823
327.905
327.984
328.059
328.132
328.202
328.271
328.337
328.402
328.466
328.529
328.59
328.65
328.71
328.768
328.826
328.882
328.938
328.994
329.048
329.102
329.155
329.208
329.26
329.311
329.362
329.413
329.462
329.512
329.561
329.609
329.657
329.704
329.751
329.797
329.843
329.888
329.933
329.977
330.021
330.064
330.106
330.148
330.189
330.23
330.27
330.31
330.349
330.388
330.426
301.426
304.325
307.179
309.858
312.31
314.511
316.455
318.153
319.621
320.881
321.956
322.871
323.647
324.306
324.865
325.341
325.747
326.095
326.395
326.656
326.884
327.085
327.263
327.424
327.569
327.701
327.823
327.936
328.042
328.141
328.236
328.326
328.412
328.495
328.575
328.652
328.728
328.801
328.873
328.943
329.012
329.079
329.145
329.21
329.273
329.336
329.397
329.457
329.517
329.575
329.633
329.689
329.745
329.8
329.854
329.907
329.96
330.011
330.062
330.112
330.161
330.21
330.258
330.305
330.351
330.396
330.441
330.485
330.529
330.571
330.613
330.654
330.694
330.734
330.773
330.811
330.849
330.886
330.922
330.958
330.992
379.05
386.976
393.659
399.5
404.699
409.361
413.548
417.292
420.609
423.497
425.946
427.931
429.419
430.359
430.686
430.306
429.091
426.843
423.231
417.597
408.294
402.011
397.206
393.279
389.942
387.033
384.451
382.128
380.016
378.077
376.285
374.618
373.058
371.591
370.206
368.892
367.642
366.448
365.304
364.205
363.146
362.124
361.134
360.173
359.239
358.329
357.442
356.574
355.724
354.891
354.073
353.268
352.477
351.696
350.927
350.167
349.417
348.674
347.94
347.213
346.493
345.78
345.073
344.373
343.678
342.99
342.308
341.631
340.961
340.296
339.638
338.985
338.338
337.698
337.064
336.436
335.815
335.201
334.593
333.993
333.4
332.814
332.235
331.664
331.101
330.547
330
329.463
328.934
328.413
327.903
327.401
326.909
326.427
325.955
325.493
325.041
324.599
324.168
323.748
323.338
322.938
322.55
322.172
321.804
321.448
321.101
320.765
320.44
320.125
319.819
319.524
319.238
318.961
318.694
318.436
318.186
317.945
317.712
317.487
317.269
317.059
316.856
316.659
316.469
316.285
316.106
315.933
315.766
315.603
315.444
315.29
315.141
314.995
314.852
314.713
314.577
314.444
314.313
314.185
314.059
313.935
313.814
313.694
313.575
313.458
313.343
313.228
313.115
313.003
312.892
312.782
312.672
312.563
312.455
312.348
312.241
312.136
312.031
311.927
311.825
374.319
381.2
387.411
393.005
398.06
402.634
406.764
410.473
413.769
416.648
419.097
421.092
422.599
423.569
423.941
423.63
422.522
420.462
417.232
412.563
406.41
401.094
396.666
392.92
389.684
386.838
384.299
382.006
379.916
377.994
376.215
374.559
373.007
371.547
370.168
368.859
367.613
366.422
365.281
364.185
363.128
362.108
361.119
360.16
359.227
358.319
357.432
356.565
355.716
354.883
354.066
353.262
352.471
351.691
350.922
350.163
349.412
348.67
347.936
347.21
346.49
345.777
345.07
344.37
343.676
342.988
342.305
341.629
340.958
340.294
339.635
338.983
338.336
337.696
337.062
336.434
335.813
335.199
334.592
333.991
333.398
332.812
332.233
331.662
331.1
330.545
329.999
329.461
328.932
328.412
327.901
327.4
326.908
326.426
325.953
325.491
325.039
324.598
324.167
323.746
323.336
322.937
322.548
322.17
321.803
321.446
321.1
320.764
320.439
320.124
319.818
319.523
319.237
318.961
318.694
318.435
318.186
317.945
317.712
317.487
317.269
317.059
316.856
316.659
316.469
316.285
316.106
315.933
315.766
315.603
315.444
315.291
315.141
314.995
314.852
314.713
314.577
314.444
314.313
314.185
314.059
313.936
313.814
313.694
313.575
313.459
313.343
313.229
313.115
313.003
312.892
312.782
312.672
312.564
312.456
312.348
312.242
312.136
312.031
311.927
311.825
370.248
376.129
381.704
386.892
391.679
396.071
400.077
403.702
406.943
409.792
412.231
414.237
415.774
416.799
417.257
417.077
416.172
414.438
411.771
408.125
403.714
399.435
395.576
392.156
389.122
386.408
383.961
381.734
379.693
377.809
376.06
374.427
372.895
371.451
370.085
368.787
367.55
366.367
365.232
364.142
363.09
362.073
361.089
360.133
359.203
358.297
357.412
356.547
355.699
354.868
354.052
353.25
352.46
351.681
350.912
350.154
349.404
348.663
347.929
347.203
346.484
345.771
345.065
344.365
343.671
342.983