/*--------------------------------*- C++ -*----------------------------------*\
  =========                 |
  \\      /  F ield         | OpenFOAM: The Open Source CFD Toolbox
   \\    /   O peration     | Website:  https://openfoam.org
    \\  /    A nd           | Version:  7
     \\/     M anipulation  |
\*---------------------------------------------------------------------------*/
FoamFile
{
    version     2.0;
    format      ascii;
    class       volScalarField;
    location    "3.9";
    object      p;
}
// * * * * * * * * * * * * * * * * * * * * * * * * * * * * * * * * * * * * * //

dimensions      [0 2 -2 0 0 0 0];

internalField   nonuniform List<scalar> 
2790
(
147.223
147.13
147.397
147.969
148.749
149.706
150.838
152.145
153.621
155.262
157.062
159.012
161.106
163.331
165.671
168.107
170.611
173.15
175.682
178.156
180.514
182.692
184.622
186.243
187.503
188.377
188.813
188.869
188.919
189.132
147.02
147.038
147.33
147.898
148.674
149.629
150.756
152.057
153.526
155.159
156.949
158.889
160.972
163.186
165.515
167.941
170.437
172.97
175.5
177.978
180.346
182.542
184.496
186.145
187.429
188.304
188.701
188.755
188.888
189.172
146.821
146.909
147.22
147.778
148.541
149.483
150.596
151.878
153.326
154.934
156.696
158.605
160.653
162.828
165.117
167.499
169.951
172.441
174.933
177.38
179.73
181.923
183.895
185.585
186.936
187.912
188.505
188.86
189.176
189.475
146.597
146.715
147.039
147.588
148.337
149.262
150.355
151.613
153.032
154.606
156.33
158.195
160.194
162.314
164.543
166.86
169.245
171.668
174.095
176.485
178.792
180.964
182.946
184.686
186.14
187.292
188.16
188.831
189.384
189.903
146.336
146.468
146.8
147.342
148.074
148.978
150.046
151.273
152.655
154.186
155.86
157.669
159.605
161.655
163.807
166.043
168.341
170.676
173.017
175.33
177.575
179.71
181.693
183.483
185.054
186.396
187.526
188.489
189.3
190.047
146.035
146.173
146.508
147.039
147.752
148.629
149.665
150.854
152.192
153.671
155.286
157.029
158.89
160.858
162.919
165.057
167.252
169.481
171.717
173.933
176.095
178.173
180.135
181.955
183.618
185.12
186.466
187.672
188.692
189.61
145.692
145.831
146.163
146.682
147.371
148.219
149.218
150.363
151.649
153.069
154.616
156.282
158.056
159.929
161.886
163.912
165.988
168.093
170.206
172.302
174.357
176.348
178.256
180.066
181.772
183.372
184.866
186.245
187.41
188.457
145.308
145.445
145.769
146.271
146.935
147.749
148.706
149.802
151.029
152.382
153.853
155.432
157.11
158.876
160.716
162.615
164.556
166.52
168.488
170.44
172.357
174.225
176.032
177.774
179.452
181.071
182.626
184.098
185.348
186.499
144.882
145.015
145.329
145.811
146.446
147.222
148.133
149.174
150.337
151.616
153.002
154.486
156.059
157.707
159.417
161.176
162.965
164.768
166.568
168.346
170.09
171.788
173.435
175.036
176.597
178.132
179.64
181.111
182.382
183.62
144.415
144.543
144.843
145.304
145.907
146.641
147.502
148.483
149.577
150.775
152.07
153.451
154.908
156.428
157.998
159.602
161.223
162.845
164.451
166.025
167.553
169.027
170.445
171.812
173.145
174.464
175.784
177.121
178.322
179.626
143.91
144.031
144.317
144.752
145.32
146.011
146.818
147.734
148.753
149.866
151.063
152.334
153.668
155.05
156.468
157.904
159.341
160.762
162.149
163.483
164.751
165.941
167.047
168.075
169.039
169.967
170.897
171.896
172.858
174.176
143.368
143.482
143.75
144.159
144.69
145.333
146.083
146.932
147.872
148.894
149.988
151.143
152.346
153.583
154.838
156.095
157.333
158.534
159.676
160.738
161.699
162.541
163.249
163.815
164.24
164.55
164.792
165.1
165.481
166.654
142.791
142.897
143.147
143.527
144.019
144.613
145.303
146.081
146.939
147.866
148.853
149.886
150.952
152.037
153.122
154.188
155.215
156.179
157.054
157.813
158.426
158.86
159.082
159.056
158.752
158.154
157.278
156.285
155.337
155.841
142.181
142.28
142.51
142.859
143.31
143.853
144.481
145.186
145.958
146.788
147.664
148.572
149.497
150.424
151.332
152.201
153.007
153.721
154.312
154.743
154.973
154.95
154.611
153.879
152.655
150.825
148.261
144.958
141.007
138.97
141.542
141.632
141.842
142.16
142.568
143.058
143.622
144.252
144.937
145.667
146.429
147.209
147.991
148.756
149.484
150.151
150.728
151.184
151.481
151.571
151.397
150.887
149.942
148.426
146.147
142.814
137.969
130.95
120.483
108.254
1.62644
1.60469
1.52829
1.42174
1.30881
1.20057
1.10038
1.00864
0.924718
0.847498
0.775638
0.707835
0.643035
0.580559
0.520173
0.46207
0.406745
0.354777
0.30662
0.262579
0.222991
0.188601
0.160535
0.138575
0.120556
0.103327
0.0845484
0.063562
0.040322
0.015338
1.57001
1.54473
1.47312
1.37534
1.27152
1.17111
1.07731
0.990693
0.91083
0.836751
0.767261
0.701185
0.637571
0.575835
0.515853
0.457952
0.402761
0.350933
0.302878
0.258796
0.219166
0.185138
0.157732
0.136812
0.120029
0.103676
0.0853423
0.064665
0.041792
0.017203
1.51076
1.48027
1.41151
1.32169
1.22728
1.1354
1.04875
0.968034
0.892929
0.822601
0.755991
0.69205
0.629932
0.569154
0.509718
0.452119
0.397173
0.345667
0.297995
0.254207
0.214687
0.180847
0.154345
0.134963
0.119563
0.103929
0.0855261
0.0648231
0.0418594
0.0159056
1.45735
1.42176
1.35475
1.27133
1.18518
1.10093
1.02084
0.945614
0.875003
0.808277
0.744488
0.682691
0.622132
0.562418
0.503653
0.446467
0.39184
0.340716
0.293539
0.250174
0.210586
0.176111
0.149458
0.131659
0.118707
0.105079
0.087552
0.0670758
0.0437966
0.0159351
1.42606
1.38555
1.32043
1.24114
1.16048
1.08105
1.00503
0.933133
0.865195
0.80058
0.738429
0.677873
0.618237
0.559209
0.500962
0.444174
0.389854
0.338989
0.292157
0.249497
0.211379
0.178999
0.153872
0.134958
0.119761
0.103291
0.0846279
0.0642221
0.0423445
0.0151019
1.42996
1.38332
1.31949
1.24032
1.16061
1.08153
1.00567
0.933779
0.865786
0.801101
0.738894
0.678331
0.618778
0.559967
0.502081
0.445748
0.391852
0.341244
0.294518
0.252025
0.214352
0.182798
0.15852
0.139937
0.123855
0.106614
0.0870644
0.0652038
0.0407065
0.0133955
1.47725
1.42271
1.35368
1.2702
1.18471
1.10076
1.02075
0.945403
0.87458
0.807622
0.743676
0.681912
0.621691
0.562704
0.505052
0.449231
0.395967
0.345973
0.299776
0.257766
0.220514
0.188946
0.162925
0.142754
0.124979
0.106424
0.085854
0.0630609
0.0378659
0.0122069
1.56872
1.50112
1.41794
1.32122
1.22383
1.13014
1.04234
0.960903
0.885415
0.815007
0.748627
0.685321
0.624333
0.565187
0.507818
0.452558
0.400004
0.3508
0.305436
0.264257
0.227653
0.196073
0.169334
0.147005
0.127139
0.107049
0.0850848
0.0604548
0.0340617
0.010697
1.69179
1.60074
1.49369
1.37597
1.26219
1.15656
1.06012
0.972366
0.892127
0.81847
0.750056
0.685715
0.6245
0.565672
0.508956
0.454511
0.402871
0.354707
0.31051
0.270462
0.234612
0.202831
0.175128
0.151102
0.129233
0.107486
0.0839483
0.0574817
0.0303925
0.00936761
1.81677
1.69196
1.55982
1.42196
1.2903
1.17123
1.06582
0.972847
0.890152
0.815165
0.746001
0.681387
0.620511
0.5627
0.507267
0.454034
0.40356
0.356758
0.31422
0.275843
0.241062
0.209461
0.180912
0.155103
0.131213
0.107722
0.0824847
0.0542081
0.0266456
0.00805411
1.91019
1.75461
1.59353
1.43571
1.29263
1.16665
1.05716
0.962131
0.878988
0.804562
0.736261
0.672693
0.613234
0.557124
0.503316
0.451329
0.401893
0.356463
0.315947
0.279917
0.247014
0.216063
0.186673
0.158974
0.13298
0.107723
0.080884
0.0510443
0.0231895
0.00686184
1.95192
1.76062
1.57448
1.40074
1.25199
1.12702
1.02124
0.930767
0.852494
0.782609
0.717763
0.656869
0.600232
0.547288
0.496223
0.445888
0.397387
0.353338
0.315417
0.28273
0.252605
0.222735
0.192469
0.162618
0.134312
0.107318
0.0791856
0.0482098
0.02024
0.00585262
1.87341
1.62853
1.43951
1.28112
1.15103
1.04476
0.954886
0.877036
0.80999
0.749691
0.691218
0.634169
0.58135
0.533107
0.486119
0.4377
0.389536
0.346489
0.31186
0.284057
0.258105
0.229897
0.198565
0.166008
0.13495
0.106258
0.0773659
0.0458804
0.017975
0.00508082
1.53407
1.24908
1.13426
1.05503
0.978142
0.91541
0.858177
0.801511
0.751875
0.707054
0.657827
0.604488
0.555768
0.514418
0.473791
0.427615
0.378353
0.335113
0.304503
0.283895
0.264193
0.238335
0.205405
0.169113
0.134522
0.104157
0.0753385
0.0442341
0.0165527
0.00459667
0.759564
0.441897
0.576345
0.720799
0.735941
0.748841
0.744239
0.709366
0.677309
0.656311
0.621343
0.56982
0.523964
0.492514
0.461935
0.417859
0.363933
0.317439
0.291476
0.281882
0.271726
0.249049
0.213482
0.171793
0.132429
0.100393
0.0729293
0.0435118
0.0161349
0.00444501
140.863
140.944
141.132
141.417
141.782
142.217
142.715
143.267
143.862
144.488
145.133
145.781
146.415
147.015
147.558
148.017
148.36
148.552
148.546
148.286
147.699
146.69
145.126
142.812
139.449
134.542
127.169
115.414
93.242
33.4032
140.136
140.207
140.373
140.623
140.942
141.32
141.749
142.22
142.722
143.242
143.766
144.279
144.76
145.19
145.543
145.79
145.896
145.82
145.51
144.9
143.907
142.417
140.271
137.238
132.961
126.853
117.884
104.318
84.7924
56.3452
139.366
139.428
139.57
139.784
140.056
140.375
140.733
141.121
141.528
141.939
142.341
142.715
143.044
143.302
143.465
143.501
143.371
143.032
142.426
141.484
140.113
138.194
135.562
131.986
127.142
120.574
111.694
99.8627
85.6362
69.0372
138.556
138.607
138.726
138.903
139.126
139.385
139.671
139.975
140.285
140.587
140.865
141.102
141.276
141.365
141.341
141.169
140.812
140.222
139.34
138.094
136.394
134.121
131.123
127.206
122.12
115.575
107.275
96.8867
84.3508
69.2298
137.706
137.747
137.841
137.981
138.154
138.353
138.567
138.786
138.999
139.191
139.346
139.447
139.471
139.394
139.188
138.818
138.246
137.423
136.291
134.782
132.808
130.263
127.019
122.92
117.785
111.414
103.609
94.1267
82.8006
69.838
136.819
136.85
136.919
137.021
137.145
137.283
137.424
137.559
137.676
137.76
137.794
137.761
137.639
137.403
137.024
136.468
135.698
134.665
133.317
131.587
129.398
126.661
123.269
119.104
114.036
107.93
100.664
92.1397
82.3473
71.7003
135.898
135.918
135.963
136.027
136.102
136.179
136.248
136.3
136.322
136.3
136.218
136.056
135.794
135.406
134.866
134.14
133.191
131.976
130.444
128.539
126.192
123.332
119.875
115.735
110.824
105.064
98.4011
90.8239
82.3763
73.3939
134.946
134.955
134.976
135.003
135.029
135.046
135.045
135.015
134.946
134.821
134.626
134.341
133.947
133.42
132.732
131.852
130.747
129.377
127.697
125.658
123.206
120.282
116.826
112.778
108.085
102.707
96.6311
89.877
82.4948
74.7565
133.966
133.966
133.962
133.952
133.93
133.889
133.819
133.711
133.553
133.331
133.028
132.629
132.113
131.456
130.635
129.621
128.383
126.885
125.091
122.958
120.445
117.506
114.101
110.19
105.744
100.75
95.2131
89.1677
82.6673
75.9394
132.963
132.952
132.926
132.88
132.812
132.714
132.578
132.395
132.152
131.837
131.435
130.929
130.301
129.529
128.591
127.461
126.112
124.514
122.635
120.444
117.907
114.992
111.672
107.925
103.738
99.1127
94.0661
88.6377
82.8807
76.9797
131.941
131.921
131.871
131.791
131.679
131.527
131.328
131.073
130.752
130.35
129.856
129.253
128.523
127.649
126.61
125.383
123.945
122.271
120.336
118.115
115.584
112.722
109.512
105.943
102.014
97.7346
93.1289
88.2358
83.1033
77.8797
130.905
130.876
130.804
130.692
130.536
130.334
130.076
129.754
129.358
128.878
128.299
127.608
126.79
125.827
124.702
123.396
121.89
120.162
118.195
115.968
113.467
110.677
107.59
104.204
100.524
96.5652
92.3522
87.9215
83.3149
78.6516
129.861
129.822
129.731
129.587
129.392
129.141
128.827
128.444
127.98
127.427
126.773
126.005
125.109
124.071
122.876
121.507
119.95
118.189
116.208
113.996
111.541
108.837
105.881
102.676
99.2316
95.5643
91.6988
87.6675
83.5061
79.3108
128.813
128.767
128.656
128.483
128.25
127.955
127.591
127.15
126.626
126.008
125.286
124.45
123.488
122.387
121.136
119.72
118.129
116.35
114.373
112.189
109.794
107.183
104.36
101.329
98.1038
94.7001
91.1411
87.4552
83.6725
79.8708
127.769
127.715
127.586
127.387
127.12
126.783
126.372
125.881
125.301
124.625
123.845
122.951
121.934
120.783
119.488
118.039
116.427
114.644
112.682
110.539
108.21
105.697
103.004
100.139
97.1147
93.9477
90.6585
87.2715
83.8122
80.3437
126.735
126.673
126.528
126.304
126.006
125.632
125.18
124.642
124.014
123.288
122.458
121.515
120.452
119.261
117.934
116.463
114.842
113.066
111.131
109.034
106.776
104.361
101.794
99.0835
96.2429
93.2874
90.2353
87.1075
83.9253
80.7405
125.717
125.649
125.489
125.242
124.916
124.509
124.019
123.441
122.77
122.001
121.129
120.146
119.047
117.826
116.477
114.994
113.374
111.613
109.71
107.665
105.481
103.161
100.713
98.1455
95.4712
92.7041
89.8601
86.9572
84.0133
81.0708
124.722
124.648
124.475
124.208
123.857
123.421
122.898
122.285
121.577
120.772
119.865
118.85
117.723
116.48
115.118
113.631
112.019
110.28
108.414
106.424
104.312
102.083
99.7466
97.3103
94.7858
92.1858
89.5244
86.8168
84.0783
81.3436
123.757
123.679
123.494
123.209
122.835
122.374
121.822
121.179
120.441
119.606
118.67
117.63
116.483
115.226
113.856
112.373
110.775
109.062
107.236
105.3
103.259
101.117
98.8833
96.5661
94.1756
91.7235
89.2219
86.684
84.1226
81.5667
122.831
122.747
122.552
122.252
121.859
121.375
120.8
120.131
119.368
118.508
117.55
116.491
115.329
114.064
112.694
111.218
109.638
107.954
106.169
104.287
102.313
100.252
98.1129
95.903
93.632
91.3102
88.9484
86.5578
84.1493
81.7471
121.95
121.862
121.658
121.345
120.935
120.432
119.836
119.146
118.362
117.483
116.508
115.435
114.265
112.996
111.63
110.166
108.606
106.952
105.208
103.378
101.467
99.481
97.4272
95.3134
93.1482
90.9409
88.7008
86.4378
84.1613
81.8912
121.122
121.031
120.819
120.494
120.07
119.551
118.938
118.231
117.431
116.536
115.548
114.467
113.292
112.024
110.664
109.214
107.676
106.053
104.349
102.568
100.715
98.7968
96.8198
94.7913
92.7194
90.612
88.4777
86.3248
84.1617
82.005
120.355
120.261
120.042
119.708
119.272
118.739
118.113
117.392
116.578
115.673
114.676
113.589
112.413
111.148
109.798
108.363
106.847
105.254
103.587
101.851
100.052
98.1942
96.2854
94.3322
92.3415
90.3209
88.2777
86.2194
84.1534
82.0934
119.658
119.562
119.336
118.993
118.547
118.004
117.366
116.634
115.811
114.897
113.895
112.805
111.63
110.371
109.031
107.612
106.118
104.553
102.92
101.226
99.4736
97.6701
95.8212
93.9333
92.0129
90.0668
88.1015
86.1239
84.1403
82.1624
119.039
118.94
118.709
118.358
117.903
117.351
116.704
115.965
115.134
114.214
113.208
112.118
110.945
109.693
108.363
106.96
105.487
103.947
102.346
100.688
98.9774
97.2207
95.4234
93.5914
91.7308
89.8477
87.9481
86.0381
84.1235
82.2141
118.507
118.405
118.169
117.811
117.349
116.789
116.136
115.389
114.554
113.63
112.623
111.533
110.364
109.119
107.8
106.411
104.956
103.44
101.866
100.239
98.5642
96.8473
95.0935
93.3084
91.4976
89.6669
87.8218
85.9679
84.1103
82.2576
118.072
117.967
117.723
117.357
116.888
116.323
115.664
114.913
114.073
113.148
112.139
111.051
109.886
108.648
107.338
105.963
104.524
103.027
101.475
99.8746
98.2294
96.5449
94.8263
93.079
91.3082
89.5194
87.7176
85.9079
84.0953
82.2865
117.746
117.635
117.382
117.01
116.536
115.966
115.303
114.548
113.706
112.779
111.771
110.685
109.524
108.291
106.99
105.624
104.199
102.717
101.184
99.6041
97.9822
96.3231
94.6321
92.9143
91.1746
89.4182
87.65
85.8748
84.0974
82.3238
117.544
117.409
117.139
116.761
116.285
115.713
115.047
114.29
113.447
112.52
111.513
110.429
109.271
108.043
106.748
105.39
103.974
102.503
100.983
99.4172
97.8109
96.1691
94.4965
92.7982
91.079
89.3439
87.5976
85.8446
84.0894
82.3369
117.526
117.327
117.029
116.644
116.165
115.59
114.921
114.162
113.318
112.392
111.385
110.303
109.147
107.923
106.633
105.281
103.871
102.408
100.896
99.3398
97.7439
96.1132
94.4524
92.7664
91.0602
89.3383
87.6054
85.866
84.1244
82.3849
-50.611
-30.4106
-11.0527
36.0304
28.7073
16.919
51.6001
39.5742
28.4464
52.9882
42.5914
34.5804
57.3101
49.0432
42.3083
61.6871
54.7946
48.9184
64.947
59.0772
54.0382
67.5302
62.5134
58.2112
69.7074
65.3809
61.6768
71.5447
67.7701
64.5463
73.0892
69.7618
66.927
74.3901
71.4296
68.9126
75.488
72.8314
70.5761
76.4148
74.0124
71.9749
77.1971
75.009
73.1546
77.8566
75.8507
74.1511
78.4115
76.5613
74.9936
78.877
77.1606
75.7056
79.2658
77.6647
76.3065
79.5892
78.0876
76.8125
79.8565
78.4407
77.237
80.0764
78.7345
77.5919
80.2556
78.9769
77.8866
80.4019
79.1772
78.131
80.518
79.3385
78.3295
80.6157
79.4735
78.4945
80.6861
79.5738
78.6195
80.758
79.6685
78.7314
80.7914
79.7182
78.7951
80.8603
79.8012
78.8846
-2.23933
-2.08963
-0.652394
0.435092
0.49802
0.558521
0.611446
0.586564
0.574908
0.607737
0.598546
0.53559
0.481513
0.46155
0.449071
0.408017
0.34406
0.289754
0.270315
0.278995
0.283955
0.265081
0.22449
0.174407
0.128073
0.0940893
0.0698899
0.0442337
0.0170495
0.00467235
3.20479
0.127541
1.36791
1.02152
-0.126748
-0.0319509
0.489413
0.553632
0.525579
0.603878
0.589502
0.473566
0.397513
0.413312
0.453219
0.418773
0.331079
0.255387
0.239878
0.274571
0.302463
0.287326
0.237434
0.174523
0.118345
0.0824367
0.0651406
0.0473128
0.0200075
0.00532563
14.2213
5.79462
2.94438
0.70817
0.244446
1.20248
1.42754
0.445542
-0.0217385
0.253445
0.597379
0.477784
0.362186
0.420392
0.503156
0.436389
0.289323
0.16729
0.157881
0.249601
0.336447
0.327748
0.259942
0.177393
0.107057
0.067922
0.0611273
0.0566815
0.0276595
0.00641827
23.8673
14.0152
8.17949
4.43622
2.58389
1.86133
0.854343
0.167741
0.252919
1.36423
1.44075
0.386273
-0.0493966
0.0437956
0.402606
0.503204
0.295449
0.106983
0.115812
0.309356
0.4254
0.382522
0.276512
0.164491
0.0743969
0.0299284
0.040707
0.0663882
0.0395144
0.0072732
32.993
23.2516
15.9441
10.6427
6.97787
4.48523
2.65844
1.59504
1.19882
1.27241
0.784371
0.209779
0.000336007
0.546268
1.16208
0.846577
0.22234
-0.172191
-0.244563
0.0794561
0.479608
0.469844
0.311159
0.163881
0.0549743
0.0090172
0.0502926
0.12863
0.0818185
0.00906494
40.9362
32.0228
24.1419
17.7113
12.7804
9.1211
6.43377
4.52785
3.22982
2.34555
1.56107
0.94468
0.612125
0.712044
0.765346
0.595051
0.159805
-0.216141
-0.160885
0.601618
0.946247
0.554331
0.282773
0.0964591
-0.0282745
-0.0879535
-0.0425957
0.0971819
0.121131
0.00430395
47.4147
39.6177
31.8485
24.962
19.3333
14.8619
11.3283
8.5655
6.45445
4.86813
3.62767
2.63603
1.92855
1.52872
1.24914
0.942486
0.494801
0.125025
0.115452
0.465902
0.611063
0.516007
0.322963
0.140055
-0.000471865
-0.0662206
0.0270171
0.31023
0.330688
0.00399423
52.692
45.966
38.7132
31.8858
26.0009
21.0494
16.9028
13.4718
10.6869
8.45579
6.64871
5.17541
4.02701
3.18801
2.55067
1.97043
1.38668
0.928118
0.743471
0.79407
0.824538
0.708914
0.473995
0.247994
0.0849659
0.0135674
0.0696464
0.216851
0.300545
-0.0558237
56.9975
51.1835
44.6019
38.1297
32.3106
27.1952
22.7202
18.8501
15.5549
12.7805
10.4497
8.50036
6.90127
5.61775
4.57132
3.66649
2.86639
2.22514
1.80943
1.59077
1.41971
1.17155
0.859967
0.573555
0.360449
0.239976
0.221133
0.261877
0.228268
-0.292915
60.511
55.4445
49.5431
43.5585
38.0034
32.9553
28.3855
24.29
20.6701
17.5074
14.7642
12.4009
10.3853
8.68224
7.23852
5.99551
4.92208
4.03019
3.34178
2.83121
2.40594
1.98134
1.55326
1.16654
0.854448
0.628844
0.484138
0.369998
0.151075
-0.51183
63.3964
58.9371
53.6571
48.1883
42.9904
38.1463
33.6433
29.4931
25.7166
22.3192
19.2887
16.6048
14.2453
12.1845
10.3884
8.8195
7.45141
6.27799
5.29902
4.49105
3.79693
3.16057
2.56553
2.0284
1.56777
1.18772
0.872338
0.567756
0.162442
-0.594977
65.7861
61.822
57.0833
52.1032
47.2865
42.7116
38.3716
34.2837
30.4774
26.9714
23.7695
20.8659
18.2502
15.9079
13.8184
11.9582
10.3074
8.85437
7.59009
6.49424
5.52972
4.65769
3.85829
3.13255
2.48659
1.91698
1.40269
0.894767
0.31153
-0.526796
67.7794
64.2231
59.9469
55.4063
50.9577
46.6713
42.5411
38.5842
34.8322
31.3098
28.0295
24.9958
22.2074
19.6587
17.3396
15.2364
13.3358
11.6267
10.0983
8.73389
7.50808
6.39337
5.371
4.43405
3.5797
2.79918
2.0708
1.35457
0.594523
-0.333226
69.4511
66.2342
62.3512
58.1967
54.0864
50.0822
46.1767
42.3845
38.736
35.2575
31.9661
28.8716
25.9794
23.2902
20.8013
18.5064
16.3977
14.467
12.7049
11.0985
9.62996
8.27961
7.0312
5.87442
4.8014
3.80068
2.85234
1.92565
0.984025
-0.0531217
70.8588
67.927
64.3787
60.5601
56.7531
53.0121
49.3281
45.7122
42.192
38.7933
35.5345
32.4285
29.4843
26.7073
24.0994
21.6596
19.3846
17.2694
15.3073
13.489
11.802
10.2319
8.76544
7.39154
6.10026
4.87945
3.71185
2.57446
1.44376
0.271937
72.0477
69.3566
66.0942
62.5669
59.0285
55.5273
52.0523
48.6113
45.2287
41.9284
38.7288
35.6438
32.6845
29.8588
27.172
24.6265
22.2223
19.9575
17.8282
15.8281
13.9485
12.1793
10.5094
8.92882
7.42722
5.99289
4.61114
3.26459
1.93744
0.605556
73.0531
70.5664
67.5489
64.2741
60.9722
57.6863
54.4038
51.1297
47.8847
44.6906
41.5647
38.5211
35.5715
32.7254
29.9898
27.3696
24.8672
22.4832
20.2159
18.0617
16.0149
14.0682
12.213
10.4404
8.74086
7.10348
5.51565
3.96348
2.43488
0.921609
73.9037
71.5911
68.7839
65.728
62.6335
59.5392
56.4316
53.3127
50.2001
47.1132
44.0679
41.0776
38.1539
35.3069
32.5449
29.8739
27.2983
24.8202
22.4401
20.1563
17.9655
15.8626
13.8408
11.8927
10.0097
8.18189
6.398
4.64598
2.91471
1.20544
74.6228
72.4587
69.8323
66.9662
64.0532
61.1285
58.1779
55.2011
52.2129
49.23
46.267
43.336
40.4484
37.614
34.8416
32.1382
29.509
26.9576
24.4858
22.0938
19.7796
17.54
15.37
13.2632
11.212
9.20733
7.2388
5.29494
3.36405
1.45204
75.2297
73.1923
70.7215
68.0196
65.2649
62.4896
59.6789
56.8308
53.9571
51.0727
48.1903
45.3209
42.475
39.6621
36.8909
34.1687
31.5015
28.8936
26.3479
23.8657
21.4464
19.0881
16.787
14.5378
12.3337
10.1664
8.02565
5.90011
3.77674
1.66286
75.7403
73.811
71.4739
68.9141
66.297
63.6524
60.9654
58.2324
55.4629
52.6698
49.8641
47.0557
44.254
41.468
38.706
35.9753
33.2821
30.6313
28.0265
25.4697
22.9614
20.5005
18.0843
15.7083
13.3664
11.0507
8.75112
6.45592
4.15068
1.84229
76.1686
74.3313
72.1087
69.6711
67.1731
64.6424
62.0639
59.4328
56.7568
54.0468
51.3125
48.5625
45.8052
43.0489
40.3012
37.5694
34.8596
32.1768
29.5251
26.907
24.3237
21.7749
19.2584
16.7705
14.3056
11.8558
9.41146
6.96014
4.48634
1.99547
76.5256
74.7661
72.6411
70.3083
67.9126
65.4802
62.9961
60.4543
57.861
55.2256
52.5563
49.8607
47.1462
44.4202
41.6899
38.962
36.2425
33.5364
30.8479
28.1799
25.534
22.9104
20.3073
17.7216
15.1479
12.5786
10.004
7.41128
4.7841
2.12598
76.8221
75.1281
73.0858
70.8419
68.5333
66.1849
63.7818
61.3173
58.7961
56.2264
53.6152
50.969
48.2944
45.5979
42.8861
40.1652
37.441
34.7183
32.0014
29.2932
26.5955
23.9089
21.232
18.5618
15.8932
13.219
10.529
7.81042
5.04627
2.23771
77.0645
75.4248
73.4515
71.2821
69.0467
66.769
64.4344
62.0356
59.5762
57.063
54.5024
51.8999
49.2612
46.5921
43.8986
41.1864
38.4608
35.7267
32.9879
30.2476
27.5078
24.7688
22.0298
19.2879
16.5381
13.7732
10.9831
8.15469
5.27084
2.3303
77.2644
75.6688
73.7522
71.6441
69.4688
67.2495
64.9716
62.6274
60.2195
57.754
55.2363
52.6712
50.0637
47.419
44.7424
42.0392
39.3145
36.5726
33.8175
31.0521
28.2784
25.4969
22.7068
19.9052
17.0875
14.2462
11.3713
8.44951
5.46351
2.40896
77.4186
75.8579
73.986
71.9266
69.7991
67.6262
65.3936
63.0931
60.7266
58.2996
55.8168
53.2823
50.7005
48.0762
45.4142
42.7194
39.9964
37.2495
34.4823
31.6977
28.8975
26.0825
23.2516
20.4023
17.5296
14.6263
11.6823
8.68399
5.61436
2.46666
77.5494
76.0144
74.1766
72.154
70.0627
67.9249
65.7266
63.4592
61.1244
58.7268
56.2706
53.7597
51.198
48.5897
45.9393
43.2514
40.5303
37.7801
35.0041
32.2053
29.3854
26.545
23.6832
20.7973
17.8824
14.9312
11.9334
8.87538
5.7398
2.51606
77.6298
76.1109
74.2955
72.2979
70.231
68.1167
65.9413
63.6962
61.3826
59.0047
56.5665
54.0715
51.5233
48.9259
46.2836
43.6005
40.881
38.1287
35.3472
32.539
29.706
26.8486
23.966
21.0554
18.1119
15.128
12.0932
8.99373
5.812
2.53579
77.7185
76.2008
74.3976
72.415
70.3618
68.2601
66.0969
63.8635
61.5609
59.1931
56.764
54.2768
51.7351
49.1426
46.5036
43.8221
41.1023
38.3479
35.5622
32.748
29.9068
27.0394
24.1447
21.2199
18.2603
15.258
12.2024
9.07855
5.86654
2.54235
)
;

boundaryField
{
    inlet
    {
        type            zeroGradient;
    }
    outlet
    {
        type            fixedValue;
        value           uniform 0;
    }
    flap
    {
        type            zeroGradient;
    }
    upperWall
    {
        type            zeroGradient;
    }
    lowerWall
    {
        type            zeroGradient;
    }
    frontAndBack
    {
        type            empty;
    }
}


// ************************************************************************* //
