/*--------------------------------*- C++ -*----------------------------------*\
  =========                 |
  \\      /  F ield         | OpenFOAM: The Open Source CFD Toolbox
   \\    /   O peration     | Website:  https://openfoam.org
    \\  /    A nd           | Version:  7
     \\/     M anipulation  |
\*---------------------------------------------------------------------------*/
FoamFile
{
    version     2.0;
    format      ascii;
    class       surfaceVectorField;
    location    "3.9";
    object      Uf;
}
// * * * * * * * * * * * * * * * * * * * * * * * * * * * * * * * * * * * * * //

dimensions      [0 1 -1 0 0 0 0];

internalField   nonuniform List<vector> 
5457
(
(9.92088 0.0251095 0)
(9.97125 0.0387456 0)
(9.82402 0.0328266 0)
(9.92859 0.0485848 0)
(9.70961 0.0393118 0)
(9.85548 0.0587677 0)
(9.57544 0.0460113 0)
(9.7568 0.0705928 0)
(9.42138 0.0529485 0)
(9.63754 0.0830127 0)
(9.24755 0.0601657 0)
(9.49862 0.0959357 0)
(9.05363 0.0678103 0)
(9.33931 0.109612 0)
(8.83894 0.0760337 0)
(9.15875 0.124287 0)
(8.60253 0.0849692 0)
(8.95611 0.140166 0)
(8.34328 0.0947436 0)
(8.7304 0.157431 0)
(8.05987 0.105486 0)
(8.48043 0.176267 0)
(7.75083 0.117326 0)
(8.2048 0.196854 0)
(7.4146 0.130393 0)
(7.90198 0.219358 0)
(7.04954 0.144808 0)
(7.57034 0.243919 0)
(6.65408 0.16067 0)
(7.20823 0.270629 0)
(6.22678 0.178042 0)
(6.81405 0.299496 0)
(5.7665 0.196925 0)
(6.3864 0.33041 0)
(5.27266 0.21723 0)
(5.92425 0.363079 0)
(4.74547 0.238733 0)
(5.42719 0.396971 0)
(4.18631 0.26103 0)
(4.89576 0.431233 0)
(3.59809 0.283486 0)
(4.33175 0.464617 0)
(2.98568 0.305201 0)
(3.73873 0.495423 0)
(2.35624 0.325069 0)
(3.1224 0.521513 0)
(1.71923 0.342549 0)
(2.4912 0.54056 0)
(1.08447 0.361882 0)
(1.85598 0.551679 0)
(0.451948 0.348712 0)
(1.24559 0.563025 0)
(-0.145767 0.102506 0)
(0.609047 0.544917 0)
(-0.423593 -0.207093 0)
(0.0947039 0.259412 0)
(-0.402147 -0.361274 0)
(-0.133604 -0.0205097 0)
(-0.11968 -0.393878 0)
(9.99641 0.0516721 0)
(9.99705 0.0405043 0)
(9.95879 0.070861 0)
(9.97851 0.0674538 0)
(9.89824 0.0879861 0)
(9.93377 0.0898691 0)
(9.81659 0.105984 0)
(9.86453 0.113554 0)
(9.71359 0.12492 0)
(9.77438 0.138513 0)
(9.58909 0.144852 0)
(9.66436 0.164644 0)
(9.44275 0.166088 0)
(9.53398 0.19233 0)
(9.27391 0.188965 0)
(9.38251 0.222028 0)
(9.08168 0.21378 0)
(9.2092 0.254145 0)
(8.86492 0.240812 0)
(9.01317 0.28906 0)
(8.62232 0.270333 0)
(8.79333 0.327148 0)
(8.35242 0.302602 0)
(8.54838 0.36878 0)
(8.05359 0.337852 0)
(8.27686 0.41431 0)
(7.72416 0.376256 0)
(7.9772 0.464039 0)
(7.36242 0.417896 0)
(7.64776 0.51818 0)
(6.96678 0.462701 0)
(7.28688 0.576797 0)
(6.5359 0.510379 0)
(6.89302 0.639716 0)
(6.06891 0.560326 0)
(6.46489 0.706417 0)
(5.56569 0.611514 0)
(6.00168 0.775899 0)
(5.02721 0.662379 0)
(5.50336 0.846515 0)
(4.45599 0.710704 0)
(4.971 0.915799 0)
(3.85662 0.753539 0)
(4.4073 0.980303 0)
(3.23632 0.787199 0)
(3.81716 1.03546 0)
(2.60594 0.807508 0)
(3.20858 1.07549 0)
(1.98291 0.810478 0)
(2.59351 1.09316 0)
(1.40538 0.77692 0)
(1.99631 1.0771 0)
(0.929845 0.646437 0)
(1.4196 0.97845 0)
(0.439945 0.384392 0)
(0.937644 0.716841 0)
(0.0592168 -0.118566 0)
(0.443875 0.343583 0)
(0.174937 -0.335879 0)
(9.98903 0.0594303 0)
(9.99481 0.045877 0)
(9.95434 0.0894756 0)
(9.97368 0.0848533 0)
(9.89729 0.118031 0)
(9.92984 0.119172 0)
(9.82047 0.147897 0)
(9.86357 0.153974 0)
(9.72416 0.17942 0)
(9.77736 0.190406 0)
(9.60822 0.212773 0)
(9.67227 0.228634 0)
(9.47235 0.248389 0)
(9.5481 0.269126 0)
(9.31608 0.28677 0)
(9.40432 0.312492 0)
(9.1387 0.328392 0)
(9.24035 0.35932 0)
(8.93926 0.373715 0)
(9.0555 0.410168 0)
(8.71667 0.423198 0)
(8.84891 0.46559 0)
(8.46962 0.477286 0)
(8.61953 0.526142 0)
(8.19671 0.536387 0)
(8.36618 0.59236 0)
(7.89636 0.600828 0)
(8.08755 0.664723 0)
(7.56696 0.670794 0)
(7.78224 0.7436 0)
(7.20689 0.746239 0)
(7.44878 0.829169 0)
(6.81463 0.826764 0)
(7.08574 0.921297 0)
(6.38896 0.911464 0)
(6.69178 1.01938 0)
(5.92913 0.99874 0)
(6.2658 1.12215 0)
(5.43524 1.08608 0)
(5.80721 1.2274 0)
(4.90866 1.16981 0)
(5.31618 1.33173 0)
(4.35255 1.24489 0)
(4.79409 1.43018 0)
(3.77272 1.30455 0)
(4.2441 1.51587 0)
(3.17885 1.33985 0)
(3.67194 1.57943 0)
(2.58675 1.33814 0)
(3.08645 1.60776 0)
(2.01997 1.27301 0)
(2.50304 1.58161 0)
(1.48704 1.09546 0)
(1.92884 1.4643 0)
(0.958365 0.769234 0)
(1.38533 1.21047 0)
(0.479919 0.202536 0)
(0.829597 0.801123 0)
(0.433757 0.134173 0)
(9.98515 0.0716131 0)
(9.99367 0.0531472 0)
(9.95039 0.113629 0)
(9.97087 0.10229 0)
(9.89437 0.154131 0)
(9.92691 0.147952 0)
(9.81882 0.195571 0)
(9.86185 0.193719 0)
(9.72442 0.238808 0)
(9.77746 0.241275 0)
(9.61113 0.284321 0)
(9.67467 0.29116 0)
(9.47875 0.332716 0)
(9.55343 0.343951 0)
(9.32696 0.384669 0)
(9.41336 0.400366 0)
(9.15524 0.440839 0)
(9.25401 0.461132 0)
(8.96292 0.501874 0)
(9.07485 0.526952 0)
(8.74918 0.568417 0)
(8.87521 0.598525 0)
(8.51306 0.641098 0)
(8.65431 0.676548 0)
(8.25349 0.720514 0)
(8.41125 0.761704 0)
(7.96929 0.807171 0)
(8.14503 0.854616 0)
(7.65922 0.901415 0)
(7.85458 0.955795 0)
(7.32198 1.00332 0)
(7.5388 1.06554 0)
(6.95627 1.11255 0)
(7.19652 1.18382 0)
(6.56092 1.22811 0)
(6.8266 1.31005 0)
(6.13498 1.34814 0)
(6.42797 1.44288 0)
(5.67794 1.46957 0)
(5.99976 1.57987 0)
(5.19011 1.58775 0)
(5.54145 1.71705 0)
(4.67299 1.69601 0)
(5.05317 1.84852 0)
(4.12992 1.78515 0)
(4.53609 1.96582 0)
(3.56678 1.84254 0)
(3.99286 2.05731 0)
(2.99217 1.85075 0)
(3.42773 2.10716 0)
(2.41595 1.78254 0)
(2.84776 2.09453 0)
(1.84063 1.60053 0)
(2.25634 1.9888 0)
(1.25945 1.27852 0)
(1.6604 1.75313 0)
(0.666808 0.789638 0)
(1.02402 1.36787 0)
(0.523057 0.78727 0)
(9.98337 0.0844063 0)
(9.99316 0.0612906 0)
(9.94821 0.136835 0)
(9.96958 0.119925 0)
(9.89315 0.18803 0)
(9.92575 0.176238 0)
(9.81906 0.240166 0)
(9.86199 0.232695 0)
(9.72663 0.294463 0)
(9.77964 0.291083 0)
(9.6159 0.351654 0)
(9.6794 0.352269 0)
(9.48672 0.412464 0)
(9.56128 0.416971 0)
(9.33879 0.477668 0)
(9.42497 0.486001 0)
(9.17172 0.54804 0)
(9.2701 0.560195 0)
(8.98494 0.624341 0)
(9.09621 0.640374 0)
(8.7778 0.707328 0)
(8.90276 0.727352 0)
(8.54955 0.797745 0)
(8.68908 0.821937 0)
(8.29938 0.896303 0)
(8.45446 0.924919 0)
(8.02638 1.00363 0)
(8.1981 1.03703 0)
(7.72961 1.12017 0)
(7.91915 1.15888 0)
(7.4081 1.24613 0)
(7.61673 1.29089 0)
(7.06082 1.38124 0)
(7.2899 1.43311 0)
(6.68676 1.52455 0)
(6.93769 1.58506 0)
(6.28493 1.67415 0)
(6.55906 1.74546 0)
(5.85448 1.82676 0)
(6.15296 1.91184 0)
(5.39481 1.97723 0)
(5.71832 2.08013 0)
(4.90587 2.11803 0)
(5.25419 2.24406 0)
(4.38838 2.2386 0)
(4.75986 2.39459 0)
(3.84407 2.32456 0)
(4.23508 2.5192 0)
(3.27556 2.35699 0)
(3.68002 2.60126 0)
(2.68551 2.31065 0)
(3.09585 2.61975 0)
(2.07279 2.15509 0)
(2.4818 2.5474 0)
(1.42945 1.86751 0)
(1.84001 2.35383 0)
(0.742649 1.4197 0)
(1.13142 2.02466 0)
(0.543332 1.51465 0)
(9.98264 0.0974963 0)
(9.99299 0.0697918 0)
(9.94744 0.159773 0)
(9.96925 0.137581 0)
(9.89354 0.221345 0)
(9.92597 0.203924 0)
(9.82134 0.284088 0)
(9.86381 0.270685 0)
(9.73134 0.349343 0)
(9.78386 0.339578 0)
(9.62367 0.418013 0)
(9.68665 0.411691 0)
(9.49819 0.49093 0)
(9.57218 0.487895 0)
(9.35466 0.568964 0)
(9.44022 0.569095 0)
(9.1927 0.652992 0)
(9.29043 0.656222 0)
(9.01184 0.743882 0)
(9.12243 0.750199 0)
(8.81152 0.842497 0)
(8.93572 0.851939 0)
(8.5911 0.949686 0)
(8.72974 0.962344 0)
(8.34987 1.06626 0)
(8.50383 1.0823 0)
(8.08709 1.19293 0)
(8.2573 1.21261 0)
(7.80196 1.33027 0)
(7.9894 1.35401 0)
(7.49364 1.47856 0)
(7.69933 1.50699 0)
(7.16124 1.63764 0)
(7.38622 1.67172 0)
(6.80379 1.8067 0)
(7.04909 1.84787 0)
(6.42019 1.98393 0)
(6.68682 2.03431 0)
(6.00922 2.1661 0)
(6.2981 2.22879 0)
(5.56951 2.34807 0)
(5.8813 2.42744 0)
(5.09958 2.52218 0)
(5.43446 2.62422 0)
(4.59788 2.67756 0)
(4.95524 2.81027 0)
(4.06283 2.79951 0)
(4.44099 2.97322 0)
(3.49283 2.86915 0)
(3.88866 3.09665 0)
(2.88595 2.86299 0)
(3.29537 3.15996 0)
(2.23812 2.75404 0)
(2.65703 3.13801 0)
(1.54252 2.52117 0)
(1.97494 3.00333 0)
(0.793689 2.1315 0)
(1.20731 2.74077 0)
(0.556767 2.29202 0)
(9.9825 0.110625 0)
(9.99302 0.0783602 0)
(9.94771 0.182322 0)
(9.96954 0.155035 0)
(9.89523 0.253814 0)
(9.92722 0.230883 0)
(9.82524 0.326762 0)
(9.86697 0.307505 0)
(9.73813 0.402549 0)
(9.78978 0.386517 0)
(9.63404 0.482226 0)
(9.69605 0.469141 0)
(9.51286 0.566748 0)
(9.58579 0.556389 0)
(9.37438 0.657081 0)
(9.4588 0.64926 0)
(9.21829 0.754198 0)
(9.31481 0.748774 0)
(9.04415 0.859067 0)
(9.15347 0.855945 0)
(8.85146 0.97264 0)
(8.97434 0.97178 0)
(8.63964 1.09586 0)
(8.77692 1.09727 0)
(8.40804 1.22961 0)
(8.56059 1.23339 0)
(8.15597 1.37472 0)
(8.32471 1.38104 0)
(7.88267 1.53182 0)
(8.06855 1.54104 0)
(7.58731 1.70134 0)
(7.79129 1.714 0)
(7.26895 1.88325 0)
(7.492 1.90025 0)
(6.92649 2.07692 0)
(7.1696 2.09965 0)
(6.55859 2.28081 0)
(6.82273 2.31134 0)
(6.16356 2.49201 0)
(6.44968 2.53344 0)
(5.73924 2.7058 0)
(6.0482 2.7626 0)
(5.28286 2.91496 0)
(5.61537 2.99343 0)
(4.79097 3.10915 0)
(5.14739 3.21782 0)
(4.25945 3.27422 0)
(4.63954 3.42427 0)
(3.68354 3.39191 0)
(4.08622 3.59718 0)
(3.05819 3.43977 0)
(3.48148 3.71661 0)
(2.37786 3.39193 0)
(2.81852 3.75824 0)
(1.638 3.22634 0)
(2.09928 3.69415 0)
(0.839181 2.90105 0)
(1.279 3.50469 0)
(0.573398 3.11394 0)
(9.98273 0.12358 0)
(9.99316 0.0868162 0)
(9.94873 0.204306 0)
(9.97027 0.17209 0)
(9.89794 0.285248 0)
(9.92926 0.256972 0)
(9.83051 0.36796 0)
(9.87124 0.342983 0)
(9.74671 0.453845 0)
(9.79715 0.431672 0)
(9.64668 0.544069 0)
(9.70735 0.524343 0)
(9.53038 0.639697 0)
(9.60181 0.622126 0)
(9.39763 0.741787 0)
(9.48038 0.726114 0)
(9.24813 0.851398 0)
(9.34286 0.83741 0)
(9.08153 0.969587 0)
(9.18894 0.957114 0)
(8.89737 1.0974 0)
(9.01825 1.08632 0)
(8.69511 1.23585 0)
(8.8303 1.22611 0)
(8.47414 1.38595 0)
(8.62456 1.37754 0)
(8.23378 1.54859 0)
(8.40038 1.54164 0)
(7.97325 1.72455 0)
(8.15704 1.71933 0)
(7.69165 1.91439 0)
(7.89367 1.91138 0)
(7.38791 2.11829 0)
(7.60924 2.1183 0)
(7.06069 2.3359 0)
(7.30248 2.34022 0)
(6.70829 2.56606 0)
(6.97172 2.57669 0)
(6.32847 2.80642 0)
(6.61481 2.82636 0)
(5.91822 3.05299 0)
(6.22883 3.08663 0)
(5.4736 3.29949 0)
(5.80988 3.35312 0)
(4.98947 3.53664 0)
(5.35282 3.61894 0)
(4.45951 3.75143 0)
(4.85106 3.87398 0)
(3.8764 3.92652 0)
(4.29662 4.10397 0)
(3.23251 4.03996 0)
(3.68075 4.28976 0)
(2.52099 4.06514 0)
(2.9937 4.40691 0)
(1.73849 3.97634 0)
(2.23754 4.42478 0)
(0.889537 3.71901 0)
(1.36347 4.31655 0)
(0.598803 3.98519 0)
(9.98321 0.136202 0)
(9.99339 0.095039 0)
(9.95032 0.225569 0)
(9.97131 0.188587 0)
(9.90151 0.315492 0)
(9.93193 0.282045 0)
(9.83694 0.407498 0)
(9.87643 0.376955 0)
(9.75684 0.503005 0)
(9.80579 0.474834 0)
(9.66135 0.603268 0)
(9.7203 0.577042 0)
(9.55046 0.709448 0)
(9.61996 0.684804 0)
(9.42403 0.822687 0)
(9.50465 0.799303 0)
(9.28184 0.944128 0)
(9.37422 0.921718 0)
(9.12356 1.07491 0)
(9.22843 1.05323 0)
(8.9488 1.21616 0)
(9.06696 1.19501 0)
(8.75706 1.36901 0)
(8.88938 1.34824 0)
(8.54778 1.53454 0)
(8.69521 1.51408 0)
(8.32027 1.71379 0)
(8.48383 1.69366 0)
(8.07373 1.90768 0)
(8.25452 1.88805 0)
(7.80717 2.11696 0)
(8.00639 2.0982 0)
(7.51937 2.34209 0)
(7.73829 2.32489 0)
(7.20875 2.58308 0)
(7.44878 2.5686 0)
(6.87319 2.83931 0)
(7.13592 2.82936 0)
(6.50989 3.10919 0)
(6.79711 3.10655 0)
(6.11502 3.38973 0)
(6.4288 3.39853 0)
(5.68348 3.67596 0)
(6.0262 3.70222 0)
(5.20857 3.96017 0)
(5.58287 4.01243 0)
(4.68186 4.23099 0)
(5.09043 4.32094 0)
(4.09341 4.47236 0)
(4.5384 4.6154 0)
(3.43264 4.66265 0)
(3.91484 4.87794 0)
(2.69025 4.77332 0)
(3.20583 5.08372 0)
(1.86194 4.77264 0)
(2.4114 5.19819 0)
(0.954231 4.59001 0)
(1.47637 5.1846 0)
(0.639234 4.9198 0)
(9.98386 0.148367 0)
(9.99368 0.102942 0)
(9.95235 0.245968 0)
(9.9726 0.204392 0)
(9.90578 0.344395 0)
(9.9351 0.305966 0)
(9.84437 0.445193 0)
(9.88241 0.409266 0)
(9.76833 0.549804 0)
(9.81552 0.515811 0)
(9.6778 0.65955 0)
(9.73471 0.627003 0)
(9.57281 0.775676 0)
(9.63999 0.744148 0)
(9.45327 0.899403 0)
(9.53129 0.868504 0)
(9.31902 1.03195 0)
(9.40853 1.00132 0)
(9.16978 1.17453 0)
(9.27151 1.14385 0)
(9.00523 1.32837 0)
(9.11999 1.29736 0)
(8.82493 1.49468 0)
(8.95361 1.46309 0)
(8.62835 1.67466 0)
(8.77194 1.64232 0)
(8.41486 1.86949 0)
(8.57443 1.83631 0)
(8.18363 2.08027 0)
(8.36039 2.04629 0)
(7.93363 2.30798 0)
(8.12891 2.27342 0)
(7.66352 2.55342 0)
(7.87883 2.51879 0)
(7.3715 2.81709 0)
(7.60859 2.7833 0)
(7.05513 3.09902 0)
(7.31604 3.06758 0)
(6.71112 3.39855 0)
(6.99829 3.37185 0)
(6.33493 3.71398 0)
(6.6513 3.69567 0)
(5.92041 4.04201 0)
(6.26955 4.03756 0)
(5.45935 4.37701 0)
(5.84548 4.39443 0)
(4.94116 4.70987 0)
(5.36899 4.76066 0)
(4.35283 5.02657 0)
(4.82692 5.12673 0)
(3.6797 5.30628 0)
(4.20332 5.47711 0)
(2.90762 5.51835 0)
(3.47804 5.78761 0)
(2.02775 5.62327 0)
(2.64516 6.01974 0)
(1.04516 5.52978 0)
(1.63782 6.12426 0)
(0.704517 5.94347 0)
(9.98465 0.15998 0)
(9.99402 0.110461 0)
(9.95473 0.265379 0)
(9.97409 0.219398 0)
(9.91065 0.371817 0)
(9.93868 0.328609 0)
(9.85267 0.480879 0)
(9.88905 0.439772 0)
(9.781 0.594039 0)
(9.82618 0.554429 0)
(9.69581 0.712673 0)
(9.75038 0.674019 0)
(9.59716 0.838097 0)
(9.66166 0.799908 0)
(9.48502 0.971602 0)
(9.56002 0.933423 0)
(9.35927 1.11447 0)
(9.44542 1.07588 0)
(9.21973 1.268 0)
(9.31776 1.22859 0)
(9.06612 1.43349 0)
(9.17683 1.39289 0)
(8.8981 1.61224 0)
(9.0224 1.57012 0)
(8.71521 1.80558 0)
(8.85409 1.76164 0)
(8.51686 2.01483 0)
(8.67145 1.96885 0)
(8.30227 2.24129 0)
(8.47385 2.19314 0)
(8.07042 2.48622 0)
(8.26046 2.43593 0)
(7.81992 2.7508 0)
(8.03014 2.69861 0)
(7.54889 3.03608 0)
(7.78133 2.98257 0)
(7.25471 3.34286 0)
(7.51188 3.28909 0)
(6.93378 3.67158 0)
(7.21876 3.61936 0)
(6.58107 4.02206 0)
(6.89774 3.97426 0)
(6.18964 4.39304 0)
(6.54288 4.35422 0)
(5.74998 4.78155 0)
(6.1459 4.7587 0)
(5.24935 5.1817 0)
(5.69531 5.18549 0)
(4.6712 5.58284 0)
(5.17534 5.62921 0)
(3.99517 5.96667 0)
(4.56538 6.07887 0)
(3.19866 6.30193 0)
(3.83662 6.51376 0)
(2.26196 6.541 0)
(2.97109 6.89435 0)
(1.18071 6.56551 0)
(1.87932 7.15826 0)
(0.812893 7.0999 0)
(9.98553 0.170962 0)
(9.9944 0.117545 0)
(9.95738 0.283696 0)
(9.97572 0.233517 0)
(9.916 0.397632 0)
(9.94258 0.349866 0)
(9.86169 0.514407 0)
(9.89623 0.468348 0)
(9.79468 0.635529 0)
(9.83764 0.590535 0)
(9.71517 0.762421 0)
(9.76713 0.717903 0)
(9.62324 0.896457 0)
(9.68475 0.851867 0)
(9.51894 1.03899 0)
(9.59055 0.993807 0)
(9.4022 1.19136 0)
(9.48455 1.14509 0)
(9.27293 1.35492 0)
(9.36672 1.30709 0)
(9.13093 1.53105 0)
(9.23697 1.4812 0)
(8.97595 1.72115 0)
(9.09513 1.66884 0)
(8.80762 1.92665 0)
(8.94095 1.87146 0)
(8.62546 2.14902 0)
(8.77407 2.09057 0)
(8.42877 2.38976 0)
(8.59399 2.32774 0)
(8.21662 2.65043 0)
(8.40002 2.58462 0)
(7.98771 2.93261 0)
(8.19115 2.86293 0)
(7.74021 3.23792 0)
(7.96596 3.16453 0)
(7.47155 3.56803 0)
(7.72247 3.4914 0)
(7.17809 3.92455 0)
(7.45782 3.84568 0)
(6.85469 4.30898 0)
(7.16794 4.22971 0)
(6.49408 4.72249 0)
(6.84702 4.64594 0)
(6.08599 5.1654 0)
(6.48672 5.09682 0)
(5.61598 5.63622 0)
(6.07501 5.58433 0)
(5.06396 6.1298 0)
(5.5944 6.10898 0)
(4.40261 6.63385 0)
(5.02004 6.66756 0)
(3.59651 7.12142 0)
(4.31302 7.24865 0)
(2.60464 7.54099 0)
(3.43612 7.82048 0)
(1.39449 7.74095 0)
(2.2568 8.31554 0)
(1.00279 8.46572 0)
(9.9865 0.181251 0)
(9.9948 0.124155 0)
(9.96026 0.30083 0)
(9.97747 0.246678 0)
(9.92176 0.42173 0)
(9.94676 0.369644 0)
(9.87133 0.545646 0)
(9.90387 0.494882 0)
(9.80923 0.674117 0)
(9.84977 0.623999 0)
(9.73567 0.808606 0)
(9.78478 0.7585 0)
(9.6508 0.950533 0)
(9.70902 0.899838 0)
(9.55471 1.1013 0)
(9.62257 1.04944 0)
(9.44741 1.26229 0)
(9.52554 1.20871 0)
(9.3289 1.43493 0)
(9.41797 1.37906 0)
(9.19907 1.62064 0)
(9.29987 1.56195 0)
(9.05778 1.8209 0)
(9.17117 1.75884 0)
(8.90479 2.03724 0)
(9.03175 1.97127 0)
(8.73973 2.27128 0)
(8.8814 2.20085 0)
(8.56209 2.5247 0)
(8.71978 2.44931 0)
(8.3711 2.79934 0)
(8.5464 2.71848 0)
(8.16566 3.09718 0)
(8.3605 3.01041 0)
(7.94417 3.42039 0)
(8.16095 3.32737 0)
(7.70436 3.77147 0)
(7.94612 3.67198 0)
(7.44294 4.15322 0)
(7.71366 4.04729 0)
(7.15516 4.56892 0)
(7.46011 4.45701 0)
(6.83415 5.02228 0)
(7.18046 4.90563 0)
(6.46985 5.51745 0)
(6.86733 5.39866 0)
(6.04739 6.05857 0)
(6.50966 5.94282 0)
(5.54452 6.64866 0)
(6.09049 6.54602 0)
(4.92761 7.28703 0)
(5.58367 7.2167 0)
(4.14557 7.96163 0)
(4.94316 7.96161 0)
(3.12229 8.63401 0)
(4.11 8.77594 0)
(1.7566 9.12855 0)
(2.87906 9.62155 0)
(1.36509 10.1862 0)
(9.98754 0.190797 0)
(9.99523 0.130259 0)
(9.96332 0.316705 0)
(9.97932 0.258822 0)
(9.92785 0.444019 0)
(9.95115 0.387866 0)
(9.88147 0.574485 0)
(9.91187 0.519282 0)
(9.82448 0.709674 0)
(9.86243 0.65471 0)
(9.75711 0.851079 0)
(9.80316 0.795678 0)
(9.67957 1.00016 0)
(9.73424 0.943668 0)
(9.592 1.15834 0)
(9.65581 1.10013 0)
(9.4945 1.32706 0)
(9.56804 1.26652 0)
(9.38713 1.50776 0)
(9.47105 1.44426 0)
(9.26993 1.70193 0)
(9.36497 1.63484 0)
(9.14287 1.9111 0)
(9.24984 1.83978 0)
(9.00585 2.13689 0)
(9.12568 2.06066 0)
(8.85868 2.38102 0)
(8.99247 2.29919 0)
(8.70105 2.64534 0)
(8.85008 2.55718 0)
(8.53245 2.93191 0)
(8.69824 2.83665 0)
(8.35211 3.24306 0)
(8.53655 3.13987 0)
(8.15885 3.58145 0)
(8.3643 3.46946 0)
(7.95095 3.95027 0)
(8.18044 3.82853 0)
(7.72585 4.35342 0)
(7.98337 4.22089 0)
(7.47981 4.79576 0)
(7.77075 4.65135 0)
(7.20727 5.28346 0)
(7.53908 5.1261 0)
(6.89985 5.82453 0)
(7.28313 5.65337 0)
(6.54459 6.42932 0)
(6.99492 6.24429 0)
(6.12075 7.11127 0)
(6.66173 6.91439 0)
(5.59359 7.88754 0)
(6.26299 7.68594 0)
(4.90158 8.77802 0)
(5.75829 8.59249 0)
(3.92766 9.80201 0)
(5.08829 9.68531 0)
(2.43388 10.8578 0)
(3.98061 11.0501 0)
(2.14703 12.57 0)
(9.98861 0.199562 0)
(9.99567 0.135835 0)
(9.96652 0.33126 0)
(9.98124 0.269905 0)
(9.9342 0.464416 0)
(9.9557 0.40447 0)
(9.89202 0.600819 0)
(9.92016 0.541474 0)
(9.84029 0.742063 0)
(9.87552 0.68258 0)
(9.77931 0.889665 0)
(9.82215 0.829335 0)
(9.7093 1.0451 0)
(9.76027 0.983238 0)
(9.63049 1.20984 0)
(9.69008 1.14576 0)
(9.54305 1.38533 0)
(9.61183 1.31836 0)
(9.44714 1.57304 0)
(9.52574 1.5025 0)
(9.34292 1.77448 0)
(9.43203 1.69966 0)
(9.23048 1.99123 0)
(9.33088 1.9114 0)
(9.1099 2.22496 0)
(9.22248 2.13932 0)
(8.98121 2.47747 0)
(9.10698 2.38518 0)
(8.84433 2.75072 0)
(8.9845 2.65085 0)
(8.69908 3.04693 0)
(8.8551 2.93845 0)
(8.54512 3.36867 0)
(8.71873 3.25039 0)
(8.38183 3.71896 0)
(8.57524 3.58951 0)
(8.20827 4.10151 0)
(8.4243 3.95922 0)
(8.02299 4.52099 0)
(8.26533 4.36379 0)
(7.82379 4.98344 0)
(8.09743 4.80869 0)
(7.6074 5.4969 0)
(7.91925 5.30116 0)
(7.36879 6.07244 0)
(7.72881 5.85107 0)
(7.10005 6.7257 0)
(7.52324 6.47234 0)
(6.78803 7.47991 0)
(7.29833 7.18556 0)
(6.40921 8.37183 0)
(7.04863 8.02315 0)
(5.91656 9.46598 0)
(6.76397 9.04162 0)
(5.19746 10.9088 0)
(6.46346 10.3567 0)
(3.88602 13.1806 0)
(6.19237 12.3042 0)
(5.26309 16.3762 0)
(0.206057 -0.127346 0)
(0.118865 -0.201821 0)
(0.401825 -0.108671 0)
(0.288359 -0.187214 0)
(0.565686 -0.0855217 0)
(0.459405 -0.153 0)
(0.698639 -0.0656597 0)
(0.606787 -0.121209 0)
(0.806009 -0.0499646 0)
(0.726699 -0.0955737 0)
(0.892989 -0.0378621 0)
(0.824142 -0.0755956 0)
(0.964018 -0.0286729 0)
(0.904699 -0.0602742 0)
(1.02283 -0.0218116 0)
(0.972643 -0.0487315 0)
(1.07251 -0.0167708 0)
(1.03113 -0.0401874 0)
(1.11549 -0.013109 0)
(1.08259 -0.0339481 0)
(1.15362 -0.0104436 0)
(1.12893 -0.0294094 0)
(1.1882 -0.00843926 0)
(1.17156 -0.0260388 0)
(1.21998 -0.00680521 0)
(1.21144 -0.0233597 0)
(1.24918 -0.0053085 0)
(1.24905 -0.0209626 0)
(1.27564 -0.00379995 0)
(1.28446 -0.0185477 0)
(1.29899 -0.00222754 0)
(1.31745 -0.0159744 0)
(1.31883 -0.000602302 0)
(1.34768 -0.0132625 0)
(1.33491 0.00109181 0)
(1.37489 -0.0104905 0)
(1.34687 0.00297134 0)
(1.39895 -0.00761854 0)
(1.354 0.00514943 0)
(1.41969 -0.00443485 0)
(1.35553 0.00739873 0)
(1.43657 -0.000927563 0)
(1.35054 0.00926279 0)
(1.44856 0.00296096 0)
(1.34013 0.0102885 0)
(1.45502 0.00602378 0)
(1.32702 0.0101297 0)
(1.45692 0.00741298 0)
(1.31452 0.00890486 0)
(1.45704 0.00689858 0)
(1.30457 0.0070533 0)
(1.45823 0.00536088 0)
(1.2978 0.00485622 0)
(1.4618 0.00356236 0)
(1.29473 0.00244424 0)
(1.46784 0.0015776 0)
(1.29602 -4.29033e-05 0)
(1.47625 -0.000649476 0)
(1.48941 -0.00296007 0)
(0.183018 -0.29139 0)
(0.0940625 -0.381075 0)
(0.360884 -0.256957 0)
(0.246697 -0.357308 0)
(0.512771 -0.208478 0)
(0.391548 -0.29482 0)
(0.639241 -0.166024 0)
(0.517403 -0.236507 0)
(0.745107 -0.132354 0)
(0.621261 -0.189809 0)
(0.834802 -0.106366 0)
(0.707783 -0.153551 0)
(0.911956 -0.0866162 0)
(0.78133 -0.125746 0)
(0.979514 -0.0718396 0)
(0.845124 -0.104706 0)
(1.03984 -0.0609391 0)
(0.901546 -0.0889904 0)
(1.09481 -0.0529659 0)
(0.952439 -0.0773638 0)
(1.14585 -0.0470996 0)
(0.99925 -0.0687729 0)
(1.194 -0.0426195 0)
(1.04308 -0.0623003 0)
(1.23994 -0.0388947 0)
(1.08471 -0.0571285 0)
(1.28393 -0.0354134 0)
(1.12457 -0.0525476 0)
(1.32598 -0.0318437 0)
(1.16282 -0.0480198 0)
(1.36588 -0.028079 0)
(1.19933 -0.0432752 0)
(1.40342 -0.0241872 0)
(1.23383 -0.0383502 0)
(1.43862 -0.0202222 0)
(1.26609 -0.0334543 0)
(1.47162 -0.0160201 0)
(1.29619 -0.028638 0)
(1.50231 -0.0112797 0)
(1.32444 -0.023521 0)
(1.52962 -0.00606443 0)
(1.35099 -0.0175091 0)
(1.55249 -0.00113648 0)
(1.37501 -0.0106039 0)
(1.57063 0.00238486 0)
(1.39531 -0.0044747 0)
(1.58571 0.00380683 0)
(1.41135 -0.00110939 0)
(1.6002 0.00348053 0)
(1.42454 -0.00109989 0)
(1.61546 0.00233607 0)
(1.43727 -0.00286406 0)
(1.63189 0.000840415 0)
(1.45045 -0.00508114 0)
(1.64946 -0.000983298 0)
(1.46383 -0.00744541 0)
(1.66742 -0.00268783 0)
(1.47689 -0.0096606 0)
(1.49213 -0.0100266 0)
(0.148378 -0.454745 0)
(0.069314 -0.526402 0)
(0.288321 -0.40327 0)
(0.191291 -0.491137 0)
(0.405723 -0.330331 0)
(0.29503 -0.404441 0)
(0.502871 -0.266616 0)
(0.385475 -0.325073 0)
(0.584286 -0.21613 0)
(0.458544 -0.262279 0)
(0.653491 -0.177021 0)
(0.519433 -0.213698 0)
(0.713274 -0.147087 0)
(0.571062 -0.176477 0)
(0.765812 -0.124436 0)
(0.615567 -0.148236 0)
(0.812825 -0.10747 0)
(0.654578 -0.127023 0)
(0.855688 -0.0948308 0)
(0.689381 -0.11122 0)
(0.895481 -0.0853519 0)
(0.720998 -0.0994614 0)
(0.93301 -0.0780038 0)
(0.750229 -0.0905595 0)
(0.968806 -0.0718755 0)
(0.777674 -0.0834467 0)
(1.00312 -0.0662098 0)
(0.803739 -0.0771792 0)
(1.03592 -0.0604975 0)
(0.828619 -0.0710112 0)
(1.06699 -0.0545732 0)
(0.85227 -0.0645368 0)
(1.09609 -0.0485927 0)
(0.874372 -0.0577949 0)
(1.12325 -0.0427695 0)
(0.894514 -0.0511732 0)
(1.14885 -0.0369358 0)
(0.912501 -0.0449441 0)
(1.17327 -0.0303343 0)
(0.928942 -0.0387101 0)
(1.19627 -0.0222815 0)
(0.94491 -0.0314719 0)
(1.21696 -0.0137622 0)
(0.960982 -0.0228754 0)
(1.23437 -0.00761629 0)
(0.975057 -0.0145533 0)
(1.24854 -0.00582593 0)
(0.982597 -0.00911833 0)
(1.26102 -0.00762839 0)
(0.982819 -0.00798862 0)
(1.27236 -0.0109606 0)
(0.980132 -0.00897246 0)
(1.2823 -0.0144192 0)
(0.976741 -0.0103092 0)
(1.29111 -0.0173575 0)
(0.97205 -0.0119708 0)
(1.29972 -0.0184887 0)
(0.966475 -0.0139785 0)
(0.961734 -0.0137594 0)
(0.111101 -0.574085 0)
(0.0451589 -0.635218 0)
(0.206761 -0.504039 0)
(0.129658 -0.582617 0)
(0.282673 -0.410807 0)
(0.185525 -0.475322 0)
(0.343827 -0.331386 0)
(0.236186 -0.380825 0)
(0.394315 -0.269219 0)
(0.272866 -0.30722 0)
(0.436562 -0.221224 0)
(0.302664 -0.250415 0)
(0.472393 -0.184489 0)
(0.326543 -0.206883 0)
(0.503165 -0.156612 0)
(0.345704 -0.173732 0)
(0.529947 -0.135638 0)
(0.361117 -0.148689 0)
(0.553613 -0.119941 0)
(0.373575 -0.129913 0)
(0.574877 -0.108129 0)
(0.383702 -0.11586 0)
(0.594306 -0.0989727 0)
(0.392009 -0.10519 0)
(0.612329 -0.0913709 0)
(0.398959 -0.0966973 0)
(0.629213 -0.0843839 0)
(0.40497 -0.0892996 0)
(0.645025 -0.0773361 0)
(0.410381 -0.0820936 0)
(0.659575 -0.0699612 0)
(0.415371 -0.0744937 0)
(0.672476 -0.0624596 0)
(0.419569 -0.0664153 0)
(0.683432 -0.055291 0)
(0.422425 -0.0583207 0)
(0.692724 -0.048722 0)
(0.422576 -0.050863 0)
(0.701348 -0.0424132 0)
(0.420172 -0.0440736 0)
(0.71001 -0.035512 0)
(0.415223 -0.0367323 0)
(0.717566 -0.0275064 0)
(0.410335 -0.0273552 0)
(0.720156 -0.0191771 0)
(0.40368 -0.0160529 0)
(0.714497 -0.0124275 0)
(0.394619 -0.00591929 0)
(0.70169 -0.00832525 0)
(0.382217 -0.000921003 0)
(0.685284 -0.00608891 0)
(0.368504 -0.000131791 0)
(0.666649 -0.00512694 0)
(0.357474 -0.000504907 0)
(0.646694 -0.00595073 0)
(0.346644 -0.00171989 0)
(0.628098 -0.00739319 0)
(0.335263 -0.00465134 0)
(0.320998 -0.0105212 0)
(0.0685478 -0.652259 0)
(0.0199554 -0.702357 0)
(0.115317 -0.562682 0)
(0.0611077 -0.627343 0)
(0.146306 -0.4537 0)
(0.0650897 -0.504257 0)
(0.167332 -0.364021 0)
(0.0731206 -0.399994 0)
(0.182393 -0.294634 0)
(0.069685 -0.320626 0)
(0.192676 -0.24115 0)
(0.0642633 -0.259352 0)
(0.19917 -0.200157 0)
(0.0557077 -0.212393 0)
(0.202604 -0.168938 0)
(0.0448943 -0.176577 0)
(0.203583 -0.145344 0)
(0.0323952 -0.149481 0)
(0.202599 -0.127619 0)
(0.0187023 -0.129135 0)
(0.200066 -0.114276 0)
(0.00416846 -0.113907 0)
(0.196357 -0.103999 0)
(-0.0109004 -0.102397 0)
(0.191799 -0.0955919 0)
(-0.0261662 -0.0933467 0)
(0.186696 -0.0879865 0)
(-0.041271 -0.0856362 0)
(0.181302 -0.0803342 0)
(-0.0558571 -0.0783131 0)
(0.175704 -0.0721599 0)
(-0.0695976 -0.0706626 0)
(0.169577 -0.0634774 0)
(-0.0825234 -0.0623213 0)
(0.1619 -0.0546303 0)
(-0.0948016 -0.0533123 0)
(0.151038 -0.0457669 0)
(-0.107574 -0.0439443 0)
(0.135702 -0.0362555 0)
(-0.121085 -0.0345354 0)
(0.116116 -0.0249651 0)
(-0.136196 -0.0248388 0)
(0.0943021 -0.0120214 0)
(-0.150764 -0.0144213 0)
(0.0742213 -0.000406891 0)
(-0.165103 -0.00442799 0)
(0.0592041 0.00604086 0)
(-0.176262 0.00256895 0)
(0.0488959 0.00683444 0)
(-0.185615 0.0047679 0)
(0.0420042 0.00473125 0)
(-0.194544 0.00358183 0)
(0.0376701 0.00173989 0)
(-0.199948 0.00177536 0)
(0.0337597 -0.00178416 0)
(-0.204029 0.000288907 0)
(0.0289879 -0.00801472 0)
(-0.208731 -0.002258 0)
(-0.217296 -0.00839613 0)
(0.0196245 -0.683443 0)
(-0.00805978 -0.721578 0)
(0.0145779 -0.573949 0)
(-0.0153406 -0.622517 0)
(-0.00314934 -0.453405 0)
(-0.0634896 -0.487705 0)
(-0.0228325 -0.357934 0)
(-0.100983 -0.382049 0)
(-0.0464846 -0.284913 0)
(-0.14548 -0.299573 0)
(-0.0721224 -0.229132 0)
(-0.188458 -0.23707 0)
(-0.0989243 -0.186698 0)
(-0.230812 -0.189649 0)
(-0.126212 -0.154629 0)
(-0.271656 -0.153969 0)
(-0.153563 -0.130553 0)
(-0.310534 -0.127355 0)
(-0.180696 -0.112575 0)
(-0.347149 -0.107704 0)
(-0.207391 -0.0991349 0)
(-0.381419 -0.0933193 0)
(-0.233449 -0.0888779 0)
(-0.413383 -0.0827748 0)
(-0.258687 -0.0805881 0)
(-0.44311 -0.0747915 0)
(-0.282916 -0.0732248 0)
(-0.470664 -0.0682435 0)
(-0.305878 -0.0659874 0)
(-0.496059 -0.0622193 0)
(-0.327205 -0.0583816 0)
(-0.5192 -0.0560676 0)
(-0.346494 -0.0502538 0)
(-0.539916 -0.0494331 0)
(-0.363489 -0.0417384 0)
(-0.55809 -0.0422243 0)
(-0.378322 -0.0330642 0)
(-0.57378 -0.0344963 0)
(-0.391521 -0.0243574 0)
(-0.587151 -0.0263264 0)
(-0.403256 -0.0156662 0)
(-0.598423 -0.0177123 0)
(-0.412882 -0.00739884 0)
(-0.60739 -0.00871405 0)
(-0.419384 -0.000732713 0)
(-0.614146 -0.000664043 0)
(-0.424217 0.00309096 0)
(-0.61888 0.00530092 0)
(-0.429211 0.00372562 0)
(-0.624378 0.00752386 0)
(-0.435259 0.0024918 0)
(-0.630957 0.00684077 0)
(-0.441706 0.00136515 0)
(-0.6374 0.00516751 0)
(-0.447553 0.000171433 0)
(-0.643485 0.00329205 0)
(-0.451637 -0.00323357 0)
(-0.649824 -0.000209291 0)
(-0.656097 -0.00605575 0)
(-0.0336453 -0.660787 0)
(-0.0411215 -0.688624 0)
(-0.0919299 -0.534268 0)
(-0.0991839 -0.566779 0)
(-0.155722 -0.41086 0)
(-0.19736 -0.428141 0)
(-0.22112 -0.316091 0)
(-0.280795 -0.322427 0)
(-0.285057 -0.244077 0)
(-0.364175 -0.242661 0)
(-0.346219 -0.19025 0)
(-0.441405 -0.183913 0)
(-0.40352 -0.150237 0)
(-0.51193 -0.141025 0)
(-0.456444 -0.120831 0)
(-0.575342 -0.110119 0)
(-0.504737 -0.0995376 0)
(-0.631809 -0.0882873 0)
(-0.5484 -0.0843603 0)
(-0.68183 -0.0732157 0)
(-0.587671 -0.073651 0)
(-0.726039 -0.0630331 0)
(-0.622928 -0.0660042 0)
(-0.765148 -0.0562263 0)
(-0.654604 -0.0601967 0)
(-0.799836 -0.051503 0)
(-0.683097 -0.0552285 0)
(-0.83071 -0.0477896 0)
(-0.708666 -0.0503713 0)
(-0.858254 -0.0442983 0)
(-0.731373 -0.0451706 0)
(-0.882749 -0.0405281 0)
(-0.751139 -0.0393998 0)
(-0.904278 -0.036226 0)
(-0.767912 -0.0329691 0)
(-0.922833 -0.0312817 0)
(-0.781861 -0.0258544 0)
(-0.938474 -0.0256111 0)
(-0.793417 -0.0180952 0)
(-0.951413 -0.0191389 0)
(-0.803001 -0.00989427 0)
(-0.961988 -0.0118925 0)
(-0.810778 -0.00191303 0)
(-0.970455 -0.004103 0)
(-0.816741 0.00446338 0)
(-0.977002 0.00278785 0)
(-0.8213 0.0080638 0)
(-0.982144 0.0078782 0)
(-0.826262 0.00891041 0)
(-0.987634 0.0102624 0)
(-0.83239 0.00792697 0)
(-0.993909 0.0101427 0)
(-0.839144 0.00588287 0)
(-1.00074 0.0087206 0)
(-0.84531 0.00246377 0)
(-1.00788 0.00645994 0)
(-0.85032 -0.0024726 0)
(-1.01489 0.00230346 0)
(-1.0191 -0.00275474 0)
(-0.0910101 -0.585984 0)
(-0.0804947 -0.599485 0)
(-0.202233 -0.449936 0)
(-0.190454 -0.460415 0)
(-0.313467 -0.328511 0)
(-0.338035 -0.32428 0)
(-0.420064 -0.238549 0)
(-0.463392 -0.225247 0)
(-0.518172 -0.173497 0)
(-0.579712 -0.155331 0)
(-0.60614 -0.127484 0)
(-0.682624 -0.107459 0)
(-0.683491 -0.0953596 0)
(-0.772033 -0.0753856 0)
(-0.750796 -0.0733236 0)
(-0.848724 -0.0543542 0)
(-0.809105 -0.0586651 0)
(-0.913318 -0.0411171 0)
(-0.859625 -0.0493211 0)
(-0.968207 -0.0333111 0)
(-0.90355 -0.043606 0)
(-1.01531 -0.0291576 0)
(-0.941918 -0.0401562 0)
(-1.05625 -0.0273356 0)
(-0.975611 -0.0378559 0)
(-1.09227 -0.0267314 0)
(-1.0054 -0.0358633 0)
(-1.12411 -0.0264089 0)
(-1.03183 -0.0336338 0)
(-1.15235 -0.0257683 0)
(-1.05523 -0.0308766 0)
(-1.17746 -0.024515 0)
(-1.07567 -0.0274629 0)
(-1.19966 -0.0225702 0)
(-1.09313 -0.023297 0)
(-1.21892 -0.0198922 0)
(-1.1077 -0.0182578 0)
(-1.23522 -0.0163313 0)
(-1.1197 -0.012288 0)
(-1.24872 -0.0116752 0)
(-1.12959 -0.00557677 0)
(-1.25978 -0.00588186 0)
(-1.13749 0.00117766 0)
(-1.26886 0.000580128 0)
(-1.14406 0.00689781 0)
(-1.27607 0.00658674 0)
(-1.14982 0.0105686 0)
(-1.28261 0.0111365 0)
(-1.15564 0.0118205 0)
(-1.28915 0.0134738 0)
(-1.16212 0.0112071 0)
(-1.29605 0.0136346 0)
(-1.16907 0.00933545 0)
(-1.3035 0.0123803 0)
(-1.17584 0.00603256 0)
(-1.31163 0.00993415 0)
(-1.18272 0.00159621 0)
(-1.31964 0.00575631 0)
(-1.32387 0.00152334 0)
(-0.154489 -0.457128 0)
(-0.129305 -0.448173 0)
(-0.321386 -0.320635 0)