/*--------------------------------*- C++ -*----------------------------------*\
  =========                 |
  \\      /  F ield         | OpenFOAM: The Open Source CFD Toolbox
   \\    /   O peration     | Website:  https://openfoam.org
    \\  /    A nd           | Version:  7
     \\/     M anipulation  |
\*---------------------------------------------------------------------------*/
FoamFile
{
    version     2.0;
    format      ascii;
    class       volVectorField;
    location    "0.41";
    object      U;
}
// * * * * * * * * * * * * * * * * * * * * * * * * * * * * * * * * * * * * * //

dimensions      [0 1 -1 0 0 0 0];

internalField   nonuniform List<vector> 
12013
(
(0.0999923 4.03694e-06 0)
(0.0999211 1.11894e-05 0)
(0.0997626 1.84963e-05 0)
(0.099544 2.27261e-05 0)
(0.0993081 2.32374e-05 0)
(0.0990878 2.14737e-05 0)
(0.0988945 1.92604e-05 0)
(0.0987241 1.77046e-05 0)
(0.0985668 1.70771e-05 0)
(0.0984143 1.71746e-05 0)
(0.0982616 1.76798e-05 0)
(0.0981065 1.83438e-05 0)
(0.0979487 1.90263e-05 0)
(0.0977884 1.96704e-05 0)
(0.0976264 2.02655e-05 0)
(0.097463 2.08206e-05 0)
(0.0972987 2.13507e-05 0)
(0.0971337 2.18703e-05 0)
(0.0969681 2.2391e-05 0)
(0.096802 2.29222e-05 0)
(0.0966353 2.34711e-05 0)
(0.096468 2.40445e-05 0)
(0.0962999 2.46471e-05 0)
(0.0961311 2.52835e-05 0)
(0.0959612 2.59575e-05 0)
(0.0957902 2.66728e-05 0)
(0.0956179 2.74313e-05 0)
(0.0954442 2.82356e-05 0)
(0.0952689 2.90864e-05 0)
(0.0950918 2.99848e-05 0)
(0.0949128 3.09306e-05 0)
(0.0947318 3.1924e-05 0)
(0.0945487 3.2965e-05 0)
(0.0943633 3.40533e-05 0)
(0.0941756 3.51892e-05 0)
(0.0939855 3.63734e-05 0)
(0.0937929 3.76066e-05 0)
(0.0935976 3.88905e-05 0)
(0.0933997 4.02278e-05 0)
(0.0931991 4.16219e-05 0)
(0.0929956 4.30768e-05 0)
(0.0927892 4.45976e-05 0)
(0.0925797 4.61907e-05 0)
(0.092367 4.7864e-05 0)
(0.0921509 4.96267e-05 0)
(0.0919313 5.14896e-05 0)
(0.0917079 5.34658e-05 0)
(0.0914804 5.55704e-05 0)
(0.0912486 5.78218e-05 0)
(0.0910121 6.02416e-05 0)
(0.0907704 6.28547e-05 0)
(0.0905231 6.56918e-05 0)
(0.0902696 6.87888e-05 0)
(0.0900092 7.21892e-05 0)
(0.089741 7.59441e-05 0)
(0.0894642 8.01159e-05 0)
(0.0891776 8.47807e-05 0)
(0.08888 9.00307e-05 0)
(0.0885697 9.59795e-05 0)
(0.0882448 0.000102768 0)
(0.0879032 0.000110572 0)
(0.0875422 0.000119613 0)
(0.0871585 0.000130173 0)
(0.0867481 0.000142614 0)
(0.0863062 0.000157409 0)
(0.0858265 0.000175179 0)
(0.0853015 0.000196753 0)
(0.0847213 0.000223257 0)
(0.0840733 0.00025624 0)
(0.083341 0.000297875 0)
(0.0825027 0.000351261 0)
(0.0815287 0.000420911 0)
(0.0803784 0.000513522 0)
(0.0789952 0.000639236 0)
(0.0772981 0.000813737 0)
(0.0751699 0.00106176 0)
(0.0724377 0.0014231 0)
(0.0688296 0.00196499 0)
(0.0639264 0.0028214 0)
(0.057243 0.00436441 0)
(0.0497573 0.00826828 0)
(0.0999934 1.22619e-05 0)
(0.0999238 3.41798e-05 0)
(0.0997677 5.65948e-05 0)
(0.0995512 6.96146e-05 0)
(0.0993168 7.1248e-05 0)
(0.0990972 6.58956e-05 0)
(0.0989039 5.91412e-05 0)
(0.0987331 5.43818e-05 0)
(0.0985755 5.24538e-05 0)
(0.0984227 5.27415e-05 0)
(0.0982699 5.42776e-05 0)
(0.0981149 5.63026e-05 0)
(0.0979572 5.83873e-05 0)
(0.0977972 6.03562e-05 0)
(0.0976355 6.21762e-05 0)
(0.0974725 6.38759e-05 0)
(0.0973086 6.55006e-05 0)
(0.097144 6.70935e-05 0)
(0.0969788 6.86907e-05 0)
(0.0968131 7.03207e-05 0)
(0.0966468 7.2006e-05 0)
(0.0964799 7.37655e-05 0)
(0.0963122 7.56149e-05 0)
(0.0961437 7.75684e-05 0)
(0.0959743 7.96375e-05 0)
(0.0958036 8.18325e-05 0)
(0.0956317 8.41606e-05 0)
(0.0954584 8.66285e-05 0)
(0.0952834 8.92394e-05 0)
(0.0951067 9.19954e-05 0)
(0.0949281 9.48972e-05 0)
(0.0947475 9.79448e-05 0)
(0.0945647 0.000101138 0)
(0.0943797 0.000104476 0)
(0.0941924 0.00010796 0)
(0.0940027 0.000111591 0)
(0.0938105 0.000115373 0)
(0.0936157 0.00011931 0)
(0.0934183 0.000123411 0)
(0.0932181 0.000127684 0)
(0.0930151 0.000132144 0)
(0.0928092 0.000136806 0)
(0.0926003 0.000141689 0)
(0.0923882 0.000146817 0)
(0.0921727 0.000152219 0)
(0.0919537 0.000157927 0)
(0.091731 0.000163981 0)
(0.0915043 0.000170428 0)
(0.0912733 0.000177323 0)
(0.0910376 0.000184732 0)
(0.0907968 0.000192732 0)
(0.0905505 0.000201415 0)
(0.0902981 0.000210891 0)
(0.0900389 0.000221292 0)
(0.0897721 0.000232773 0)
(0.0894967 0.000245525 0)
(0.0892119 0.000259777 0)
(0.0889161 0.000275809 0)
(0.088608 0.000293964 0)
(0.0882858 0.000314669 0)
(0.0879473 0.000338454 0)
(0.0875899 0.000365984 0)
(0.0872105 0.000398108 0)
(0.0868055 0.00043591 0)
(0.0863701 0.0004808 0)
(0.0858987 0.000534624 0)
(0.0853842 0.00059984 0)
(0.0848177 0.000679757 0)
(0.0841879 0.000778906 0)
(0.0834802 0.000903583 0)
(0.0826758 0.00106268 0)
(0.0817498 0.00126898 0)
(0.0806695 0.00154113 0)
(0.0793908 0.00190675 0)
(0.0778549 0.00240726 0)
(0.0759837 0.00310517 0)
(0.0736757 0.00409419 0)
(0.0707986 0.00551227 0)
(0.0672074 0.00755702 0)
(0.062958 0.010446 0)
(0.0592327 0.0140106 0)
(0.0999944 2.06022e-05 0)
(0.099928 5.81014e-05 0)
(0.0997773 9.6547e-05 0)
(0.0995663 0.000119098 0)
(0.0993357 0.000122216 0)
(0.0991177 0.000113309 0)
(0.0989244 0.000101885 0)
(0.0987528 9.3772e-05 0)
(0.0985943 9.04411e-05 0)
(0.0984409 9.08785e-05 0)
(0.0982878 9.34526e-05 0)
(0.0981329 9.68752e-05 0)
(0.0979756 0.000100414 0)
(0.0978162 0.000103766 0)
(0.0976552 0.000106873 0)
(0.097493 0.000109782 0)
(0.0973299 0.000112567 0)
(0.0971662 0.000115302 0)
(0.0970019 0.000118046 0)
(0.0968371 0.00012085 0)
(0.0966716 0.00012375 0)
(0.0965055 0.000126778 0)
(0.0963387 0.000129961 0)
(0.096171 0.000133324 0)
(0.0960024 0.000136885 0)
(0.0958325 0.000140662 0)
(0.0956614 0.000144669 0)
(0.0954888 0.000148914 0)
(0.0953146 0.000153404 0)
(0.0951387 0.000158142 0)
(0.0949609 0.00016313 0)
(0.094781 0.000168368 0)
(0.0945991 0.000173854 0)
(0.0944149 0.00017959 0)
(0.0942285 0.000185573 0)
(0.0940396 0.00019181 0)
(0.0938483 0.000198303 0)
(0.0936544 0.000205064 0)
(0.093458 0.000212103 0)
(0.0932588 0.000219438 0)
(0.0930569 0.00022709 0)
(0.0928521 0.000235089 0)
(0.0926443 0.000243466 0)
(0.0924334 0.000252261 0)
(0.0922192 0.000261523 0)
(0.0920016 0.000271308 0)
(0.0917803 0.000281682 0)
(0.0915551 0.000292726 0)
(0.0913256 0.000304534 0)
(0.0910917 0.000317216 0)
(0.0908528 0.000330904 0)
(0.0906085 0.000345753 0)
(0.0903583 0.000361949 0)
(0.0901014 0.000379712 0)
(0.0898373 0.000399308 0)
(0.0895649 0.000421054 0)
(0.0892834 0.000445336 0)
(0.0889914 0.000472623 0)
(0.0886876 0.000503488 0)
(0.0883703 0.000538639 0)
(0.0880376 0.000578957 0)
(0.087687 0.000625541 0)
(0.0873159 0.000679784 0)
(0.0869207 0.000743461 0)
(0.0864975 0.000818856 0)
(0.0860412 0.000908945 0)
(0.0855458 0.00101765 0)
(0.0850038 0.00115017 0)
(0.0844061 0.00131357 0)
(0.0837412 0.00151746 0)
(0.082995 0.00177514 0)
(0.0821501 0.00210523 0)
(0.0811849 0.00253397 0)
(0.080074 0.00309858 0)
(0.0787878 0.00385167 0)
(0.0772966 0.00486633 0)
(0.0755777 0.00623957 0)
(0.073631 0.00808789 0)
(0.0715187 0.010521 0)
(0.0694845 0.013526 0)
(0.0681659 0.0165235 0)
(0.0999952 2.88282e-05 0)
(0.0999338 8.2433e-05 0)
(0.0997917 0.000137663 0)
(0.0995896 0.000170609 0)
(0.0993654 0.000175883 0)
(0.0991503 0.000163773 0)
(0.0989571 0.000147756 0)
(0.0987842 0.000136213 0)
(0.0986242 0.00013136 0)
(0.0984698 0.000131847 0)
(0.0983163 0.000135399 0)
(0.0981615 0.000140199 0)
(0.0980049 0.000145202 0)
(0.0978465 0.00014997 0)
(0.0976866 0.00015441 0)
(0.0975257 0.000158582 0)
(0.097364 0.000162589 0)
(0.0972017 0.000166533 0)
(0.0970388 0.000170499 0)
(0.0968753 0.000174553 0)
(0.0967113 0.00017875 0)
(0.0965466 0.000183135 0)
(0.0963811 0.000187746 0)
(0.0962147 0.000192616 0)
(0.0960473 0.000197773 0)
(0.0958787 0.000203242 0)
(0.0957088 0.00020904 0)
(0.0955375 0.00021518 0)
(0.0953645 0.000221673 0)
(0.0951898 0.000228523 0)
(0.0950132 0.000235731 0)
(0.0948347 0.000243296 0)
(0.094654 0.000251219 0)
(0.0944712 0.000259497 0)
(0.0942861 0.000268133 0)
(0.0940986 0.000277131 0)
(0.0939088 0.000286498 0)
(0.0937164 0.000296246 0)
(0.0935215 0.000306394 0)
(0.093324 0.000316967 0)
(0.0931237 0.000327995 0)
(0.0929207 0.000339517 0)
(0.0927147 0.000351581 0)
(0.0925057 0.000364244 0)
(0.0922936 0.000377572 0)
(0.0920781 0.000391648 0)
(0.091859 0.000406566 0)
(0.0916362 0.000422438 0)
(0.0914094 0.000439398 0)
(0.0911782 0.000457603 0)
(0.0909422 0.000477237 0)
(0.0907011 0.000498521 0)
(0.0904544 0.000521714 0)
(0.0902013 0.000547127 0)
(0.0899414 0.000575131 0)
(0.0896737 0.00060617 0)
(0.0893973 0.000640781 0)
(0.0891112 0.000679614 0)
(0.0888141 0.000723464 0)
(0.0885046 0.000773303 0)
(0.0881808 0.000830336 0)
(0.0878408 0.00089606 0)
(0.0874821 0.000972357 0)
(0.087102 0.0010616 0)
(0.0866971 0.00116682 0)
(0.0862634 0.00129192 0)
(0.0857963 0.00144195 0)
(0.0852902 0.00162355 0)
(0.0847388 0.00184547 0)
(0.0841347 0.00211941 0)
(0.0834694 0.00246102 0)
(0.082734 0.00289145 0)
(0.0819194 0.00343915 0)
(0.0810185 0.0041421 0)
(0.0800289 0.00504992 0)
(0.078959 0.00622429 0)
(0.0778385 0.00773406 0)
(0.0767332 0.00963716 0)
(0.0757664 0.0119352 0)
(0.0751416 0.0144671 0)
(0.0751041 0.0166838 0)
(0.099996 3.67317e-05 0)
(0.099941 0.000106529 0)
(0.0998106 0.000179073 0)
(0.0996208 0.000223399 0)
(0.0994057 0.000231859 0)
(0.0991948 0.000217283 0)
(0.099002 0.000197013 0)
(0.0988276 0.000182068 0)
(0.0986657 0.00017556 0)
(0.0985099 0.000175926 0)
(0.0983559 0.000180318 0)
(0.0982015 0.000186406 0)
(0.0980458 0.000192833 0)
(0.0978887 0.000199014 0)
(0.0977305 0.00020481 0)
(0.0975715 0.000210288 0)
(0.0974117 0.000215573 0)
(0.0972513 0.000220792 0)
(0.0970903 0.000226051 0)
(0.0969288 0.000231438 0)
(0.0967667 0.00023702 0)
(0.0966039 0.000242855 0)
(0.0964403 0.000248994 0)
(0.0962757 0.000255476 0)
(0.0961101 0.00026234 0)
(0.0959433 0.000269614 0)
(0.0957752 0.000277324 0)
(0.0956056 0.000285484 0)
(0.0954343 0.000294108 0)
(0.0952614 0.0003032 0)
(0.0950865 0.000312762 0)
(0.0949097 0.000322794 0)
(0.0947309 0.000333294 0)
(0.0945499 0.000344261 0)
(0.0943667 0.000355697 0)
(0.0941812 0.000367607 0)
(0.0939934 0.000380002 0)
(0.0938032 0.000392898 0)
(0.0936105 0.000406318 0)
(0.0934152 0.000420293 0)
(0.0932174 0.000434866 0)
(0.0930168 0.000450086 0)
(0.0928135 0.000466014 0)
(0.0926072 0.000482724 0)
(0.0923979 0.000500305 0)
(0.0921855 0.00051886 0)
(0.0919696 0.000538513 0)
(0.0917502 0.000559409 0)
(0.091527 0.000581718 0)
(0.0912997 0.000605643 0)
(0.0910679 0.000631422 0)
(0.0908313 0.000659335 0)
(0.0905895 0.000689715 0)
(0.0903418 0.000722957 0)
(0.0900877 0.000759532 0)
(0.0898266 0.000800002 0)
(0.0895576 0.000845043 0)
(0.0892798 0.000895469 0)
(0.0889921 0.000952271 0)
(0.0886933 0.00101665 0)
(0.0883819 0.0010901 0)
(0.0880565 0.00117443 0)
(0.0877151 0.00127192 0)
(0.0873555 0.00138539 0)
(0.0869754 0.00151843 0)
(0.086572 0.00167553 0)
(0.0861423 0.00186245 0)
(0.0856831 0.00208656 0)
(0.0851911 0.00235733 0)
(0.084663 0.002687 0)
(0.0840963 0.00309137 0)
(0.08349 0.00359076 0)
(0.0828458 0.00421099 0)
(0.0821708 0.00498406 0)
(0.081481 0.00594783 0)
(0.0808062 0.00714296 0)
(0.0801972 0.00860403 0)
(0.0797324 0.0103396 0)
(0.0795194 0.0122941 0)
(0.0796799 0.0142863 0)
(0.0802793 0.0159355 0)
(0.0999969 4.40724e-05 0)
(0.0999493 0.000129688 0)
(0.0998329 0.000219811 0)
(0.0996584 0.000276593 0)
(0.0994549 0.000289639 0)
(0.0992498 0.00027375 0)
(0.0990581 0.000249861 0)
(0.0988822 0.000231671 0)
(0.0987182 0.000223379 0)
(0.098561 0.000223392 0)
(0.0984066 0.0002284 0)
(0.0982526 0.000235615 0)
(0.0980982 0.000243369 0)
(0.0979429 0.000250919 0)
(0.0977868 0.00025807 0)
(0.0976301 0.00026488 0)
(0.0974728 0.00027149 0)
(0.0973149 0.000278046 0)
(0.0971565 0.000284673 0)
(0.0969975 0.000291475 0)
(0.0968379 0.000298534 0)
(0.0966775 0.00030592 0)
(0.0965163 0.000313691 0)
(0.0963541 0.000321898 0)
(0.0961908 0.000330585 0)
(0.0960263 0.000339787 0)
(0.0958605 0.000349532 0)
(0.0956931 0.00035984 0)
(0.0955241 0.000370724 0)
(0.0953534 0.00038219 0)
(0.0951809 0.000394242 0)
(0.0950064 0.000406875 0)
(0.0948299 0.000420091 0)
(0.0946514 0.000433886 0)
(0.0944707 0.000448263 0)
(0.0942878 0.00046323 0)
(0.0941026 0.000478797 0)
(0.0939152 0.000494986 0)
(0.0937253 0.000511825 0)
(0.0935331 0.000529354 0)
(0.0933384 0.000547621 0)
(0.0931411 0.00056669 0)
(0.0929411 0.000586635 0)
(0.0927385 0.000607545 0)
(0.092533 0.00062953 0)
(0.0923245 0.000652714 0)
(0.0921129 0.000677249 0)
(0.091898 0.00070331 0)
(0.0916795 0.000731105 0)
(0.0914573 0.000760876 0)
(0.0912311 0.000792911 0)
(0.0910004 0.000827547 0)
(0.090765 0.000865181 0)
(0.0905244 0.000906285 0)
(0.0902781 0.000951417 0)
(0.0900256 0.00100124 0)
(0.0897662 0.00105655 0)
(0.0894992 0.0011183 0)
(0.0892238 0.00118763 0)
(0.088939 0.00126592 0)
(0.0886438 0.00135487 0)
(0.0883371 0.00145652 0)
(0.0880177 0.00157339 0)
(0.0876842 0.00170859 0)
(0.0873352 0.00186593 0)
(0.0869694 0.00205017 0)
(0.0865854 0.00226723 0)
(0.0861825 0.00252444 0)
(0.0857601 0.00283097 0)
(0.0853189 0.00319816 0)
(0.0848613 0.00364001 0)
(0.0843923 0.00417348 0)
(0.0839213 0.00481863 0)
(0.0834638 0.00559813 0)
(0.0830442 0.00653546 0)
(0.082699 0.00765061 0)
(0.0824789 0.00895159 0)
(0.0824493 0.0104194 0)
(0.0826831 0.0119854 0)
(0.0832394 0.0135047 0)
(0.0841162 0.0147427 0)
(0.0999977 5.06211e-05 0)
(0.0999582 0.000151239 0)
(0.0998574 0.000258918 0)
(0.0997003 0.000329267 0)
(0.0995104 0.000348617 0)
(0.0993127 0.000332966 0)
(0.099123 0.000306401 0)
(0.0989462 0.000285279 0)
(0.0987804 0.0002751 0)
(0.0986219 0.000274481 0)
(0.0984672 0.000279812 0)
(0.0983141 0.000287921 0)
(0.0981612 0.000296848 0)
(0.0980082 0.000305684 0)
(0.0978547 0.000314161 0)
(0.0977008 0.000322313 0)
(0.0975465 0.000330284 0)
(0.0973916 0.000338234 0)
(0.0972363 0.000346302 0)
(0.0970804 0.000354605 0)
(0.0969238 0.000363237 0)
(0.0967664 0.000372278 0)
(0.0966081 0.000381794 0)
(0.0964488 0.000391843 0)
(0.0962883 0.000402474 0)
(0.0961266 0.000413729 0)
(0.0959635 0.000425638 0)
(0.0957989 0.000438223 0)
(0.0956327 0.000451498 0)
(0.0954648 0.000465471 0)
(0.0952951 0.000480142 0)
(0.0951235 0.000495509 0)
(0.09495 0.00051157 0)
(0.0947744 0.000528324 0)
(0.0945969 0.000545773 0)
(0.0944172 0.000563924 0)
(0.0942353 0.000582793 0)
(0.0940513 0.000602404 0)
(0.0938651 0.00062279 0)
(0.0936766 0.000643997 0)
(0.0934857 0.000666084 0)
(0.0932925 0.000689123 0)
(0.0930969 0.000713201 0)
(0.0928987 0.000738425 0)
(0.0926979 0.000764919 0)
(0.0924944 0.000792831 0)
(0.0922881 0.000822335 0)
(0.0920788 0.000853635 0)
(0.0918663 0.000886968 0)
(0.0916505 0.000922617 0)
(0.0914311 0.000960908 0)
(0.0912079 0.00100223 0)
(0.0909806 0.00104703 0)
(0.0907489 0.00109584 0)
(0.0905124 0.00114929 0)
(0.0902706 0.00120813 0)
(0.0900232 0.00127322 0)
(0.0897696 0.00134563 0)
(0.0895094 0.00142659 0)
(0.0892418 0.00151761 0)
(0.0889664 0.00162046 0)
(0.0886826 0.0017373 0)
(0.0883898 0.00187074 0)
(0.0880874 0.00202391 0)
(0.0877752 0.0022006 0)
(0.0874531 0.0024054 0)
(0.0871215 0.00264385 0)
(0.0867814 0.00292258 0)
(0.086435 0.00324956 0)
(0.0860858 0.00363416 0)
(0.0857397 0.00408727 0)
(0.0854054 0.00462119 0)
(0.0850961 0.00524911 0)
(0.0848301 0.0059841 0)
(0.0846331 0.00683689 0)
(0.0845382 0.00781208 0)
(0.0845863 0.00890195 0)
(0.0848232 0.0100776 0)
(0.085291 0.0112785 0)
(0.0860129 0.0124037 0)
(0.086968 0.0133166 0)
(0.0999984 5.62117e-05 0)
(0.0999669 0.000170646 0)
(0.0998821 0.000295564 0)
(0.0997435 0.000380548 0)
(0.0995687 0.000408131 0)
(0.09938 0.000394591 0)
(0.0991937 0.000366573 0)
(0.0990168 0.000343006 0)
(0.09885 0.000330901 0)
(0.0986907 0.000329359 0)
(0.0985362 0.000334674 0)
(0.0983842 0.000343389 0)
(0.0982333 0.000353288 0)
(0.0980829 0.00036329 0)
(0.0979325 0.000373036 0)
(0.0977819 0.000382522 0)
(0.097631 0.000391882 0)
(0.0974797 0.000401278 0)
(0.0973279 0.000410858 0)
(0.0971755 0.000420749 0)
(0.0970223 0.000431052 0)
(0.0968684 0.000441855 0)
(0.0967135 0.000453232 0)
(0.0965576 0.000465244 0)
(0.0964004 0.000477947 0)
(0.096242 0.000491382 0)
(0.0960822 0.000505584 0)
(0.0959208 0.000520576 0)
(0.0957579 0.000536371 0)
(0.0955933 0.000552977 0)
(0.0954269 0.000570393 0)
(0.0952587 0.000588617 0)
(0.0950887 0.000607644 0)
(0.0949168 0.000627474 0)
(0.0947429 0.000648108 0)
(0.094567 0.000669556 0)
(0.0943891 0.000691835 0)
(0.0942092 0.000714972 0)
(0.0940273 0.000739005 0)
(0.0938432 0.000763986 0)
(0.0936571 0.000789981 0)
(0.0934687 0.000817072 0)
(0.0932782 0.000845358 0)
(0.0930854 0.000874957 0)
(0.0928903 0.000906009 0)
(0.0926928 0.00093868 0)
(0.0924929 0.000973163 0)
(0.0922903 0.00100968 0)
(0.0920851 0.00104851 0)
(0.091877 0.00108995 0)
(0.0916659 0.00113436 0)
(0.0914517 0.00118216 0)
(0.0912342 0.00123384 0)
(0.0910131 0.00128999 0)
(0.0907882 0.00135126 0)
(0.0905594 0.00141845 0)
(0.0903263 0.00149248 0)
(0.0900888 0.00157445 0)
(0.0898465 0.00166564 0)
(0.0895994 0.00176755 0)
(0.0893472 0.00188199 0)
(0.08909 0.00201106 0)
(0.0888277 0.00215726 0)
(0.0885608 0.00232354 0)
(0.0882898 0.00251336 0)
(0.0880158 0.00273079 0)
(0.0877407 0.00298053 0)
(0.0874669 0.00326803 0)
(0.0871983 0.00359944 0)
(0.0869404 0.00398159 0)
(0.0867008 0.0044218 0)
(0.0864896 0.00492751 0)
(0.0863205 0.00550558 0)
(0.0862112 0.00616114 0)
(0.0861834 0.00689575 0)
(0.0862632 0.00770478 0)
(0.0864792 0.00857372 0)
(0.0868594 0.00947403 0)
(0.0874252 0.0103593 0)
(0.0881821 0.0111642 0)
(0.0891082 0.0118111 0)
(0.099999 6.07783e-05 0)
(0.0999748 0.000187583 0)
(0.0999052 0.000329165 0)
(0.099785 0.000429711 0)
(0.0996262 0.000467516 0)
(0.0994478 0.000458154 0)
(0.0992665 0.000430132 0)
(0.099091 0.00040478 0)
(0.0989242 0.000390808 0)
(0.098765 0.000388086 0)
(0.0986112 0.000393037 0)
(0.0984608 0.000402044 0)
(0.0983124 0.000412682 0)
(0.0981649 0.000423703 0)
(0.0980179 0.000434641 0)
(0.097871 0.000445438 0)
(0.0977239 0.000456203 0)
(0.0975765 0.000467093 0)
(0.0974286 0.000478254 0)
(0.0972801 0.000489818 0)
(0.0971309 0.000501892 0)
(0.0969808 0.000514568 0)
(0.0968297 0.000527922 0)
(0.0966776 0.000542021 0)
(0.0965242 0.000556921 0)
(0.0963694 0.000572665 0)
(0.0962133 0.000589288 0)
(0.0960557 0.000606812 0)
(0.0958965 0.000625251 0)
(0.0957356 0.000644609 0)
(0.0955731 0.000664886 0)
(0.0954089 0.000686076 0)
(0.0952429 0.000708175 0)
(0.0950751 0.000731181 0)
(0.0949055 0.000755095 0)
(0.094734 0.000779928 0)
(0.0945607 0.000805698 0)
(0.0943856 0.000832435 0)
(0.0942086 0.000860182 0)
(0.0940298 0.000888994 0)
(0.093849 0.000918944 0)
(0.0936664 0.00095012 0)
(0.0934818 0.00098263 0)
(0.0932953 0.0010166 0)
(0.0931069 0.00105219 0)
(0.0929164 0.00108957 0)
(0.0927238 0.00112895 0)
(0.0925291 0.00117057 0)
(0.0923323 0.00121471 0)
(0.0921333 0.00126171 0)
(0.0919319 0.00131193 0)
(0.0917282 0.00136582 0)
(0.0915221 0.0014239 0)
(0.0913134 0.00148673 0)
(0.0911021 0.00155503 0)
(0.0908883 0.00162957 0)
(0.0906718 0.00171129 0)
(0.0904527 0.00180126 0)
(0.0902311 0.00190071 0)
(0.0900071 0.00201111 0)
(0.0897811 0.00213411 0)
(0.0895534 0.00227166 0)
(0.0893248 0.00242597 0)
(0.0890964 0.00259961 0)
(0.0888694 0.00279546 0)
(0.0886459 0.00301679 0)
(0.0884286 0.00326722 0)
(0.088221 0.00355068 0)
(0.0880278 0.00387132 0)
(0.0878553 0.00423334 0)
(0.0877113 0.00464068 0)
(0.0876057 0.00509661 0)
(0.0875507 0.00560305 0)
(0.0875608 0.00615964 0)
(0.0876526 0.00676254 0)
(0.087844 0.00740286 0)
(0.0881528 0.00806501 0)
(0.0885944 0.00872507 0)
(0.0891775 0.00935018 0)
(0.0899001 0.00989972 0)
(0.0907442 0.0103299 0)
(0.0999994 6.43661e-05 0)
(0.0999815 0.000201984 0)
(0.0999255 0.000359447 0)
(0.0998225 0.000476265 0)
(0.0996795 0.000526167 0)
(0.0995126 0.000523086 0)
(0.0993378 0.000496644 0)
(0.0991655 0.000470325 0)
(0.0990001 0.000454675 0)
(0.098842 0.000450598 0)
(0.0986898 0.000454872 0)
(0.0985416 0.000463865 0)
(0.098396 0.000475002 0)
(0.0982519 0.00048688 0)
(0.0981086 0.00049892 0)
(0.0979656 0.000510994 0)
(0.0978226 0.000523174 0)
(0.0976794 0.000535598 0)
(0.0975358 0.000548407 0)
(0.0973915 0.000561728 0)
(0.0972465 0.000575671 0)
(0.0971005 0.000590327 0)
(0.0969536 0.000605776 0)
(0.0968055 0.000622083 0)
(0.0966562 0.000639303 0)
(0.0965056 0.00065748 0)
(0.0963536 0.000676646 0)
(0.0962 0.000696822 0)
(0.096045 0.000718017 0)
(0.0958884 0.000740236 0)
(0.0957302 0.000763473 0)
(0.0955703 0.000787723 0)
(0.0954089 0.000812979 0)
(0.0952457 0.000839238 0)
(0.0950809 0.000866501 0)
(0.0949145 0.000894777 0)
(0.0947464 0.000924088 0)
(0.0945767 0.000954463 0)
(0.0944054 0.000985948 0)
(0.0942324 0.0010186 0)
(0.0940578 0.0010525 0)
(0.0938816 0.00108773 0)
(0.0937039 0.00112442 0)
(0.0935245 0.00116269 0)
(0.0933436 0.0012027 0)
(0.093161 0.00124464 0)
(0.0929769 0.00128873 0)
(0.0927913 0.0013352 0)
(0.0926041 0.00138435 0)
(0.0924153 0.0014365 0)
(0.092225 0.00149205 0)
(0.0920333 0.00155143 0)
(0.0918401 0.00161514 0)
(0.0916455 0.00168376 0)
(0.0914496 0.00175795 0)
(0.0912527 0.00183849 0)
(0.0910547 0.00192622 0)
(0.0908562 0.00202216 0)
(0.0906574 0.00212743 0)
(0.0904588 0.00224332 0)
(0.0902611 0.00237127 0)
(0.0900652 0.00251293 0)
(0.0898723 0.0026701 0)
(0.0896839 0.0028448 0)
(0.0895019 0.0030392 0)
(0.0893288 0.00325562 0)
(0.0891679 0.00349648 0)
(0.089023 0.00376415 0)
(0.0888992 0.00406088 0)
(0.0888023 0.00438855 0)
(0.0887396 0.00474838 0)
(0.0887194 0.00514053 0)
(0.0887516 0.00556365 0)
(0.0888468 0.00601426 0)
(0.0890162 0.00648606 0)
(0.0892711 0.00696926 0)
(0.0896213 0.00744997 0)
(0.0900738 0.00790995 0)
(0.0906306 0.00832697 0)
(0.0912868 0.00867624 0)
(0.0920289 0.00893313 0)
(0.0999997 6.71145e-05 0)
(0.0999866 0.000214027 0)
(0.0999419 0.000386453 0)
(0.0998543 0.00051998 0)
(0.0997266 0.000583595 0)
(0.0995717 0.000588776 0)
(0.0994049 0.000565526 0)
(0.0992375 0.000539183 0)
(0.0990751 0.000522188 0)
(0.0989194 0.000516698 0)
(0.0987696 0.000520063 0)
(0.0986242 0.000528779 0)
(0.0984819 0.000540191 0)
(0.0983414 0.000552768 0)
(0.0982021 0.000565816 0)
(0.0980633 0.000579129 0)
(0.0979247 0.000592729 0)
(0.0977858 0.000606724 0)
(0.0976466 0.000621241 0)
(0.0975068 0.000636401 0)
(0.0973662 0.000652307 0)
(0.0972247 0.00066905 0)
(0.0970821 0.000686704 0)
(0.0969384 0.000705334 0)
(0.0967935 0.000724992 0)
(0.0966473 0.000745716 0)
(0.0964997 0.000767535 0)
(0.0963506 0.000790467 0)
(0.0962002 0.000814517 0)
(0.0960482 0.000839686 0)
(0.0958947 0.000865965 0)
(0.0957397 0.000893346 0)
(0.0955833 0.00092182 0)
(0.0954253 0.000951381 0)
(0.0952659 0.000982029 0)
(0.095105 0.00101377 0)
(0.0949427 0.00104663 0)
(0.094779 0.00108064 0)
(0.0946139 0.00111584 0)
(0.0944475 0.00115229 0)
(0.0942798 0.00119007 0)
(0.0941108 0.00122927 0)
(0.0939406 0.00127 0)
(0.0937692 0.0013124 0)
(0.0935967 0.00135663 0)
(0.0934231 0.00140288 0)
(0.0932485 0.00145134 0)
(0.0930729 0.00150227 0)
(0.0928964 0.00155594 0)
(0.0927191 0.00161269 0)
(0.0925412 0.00167286 0)
(0.0923627 0.00173688 0)
(0.0921839 0.00180522 0)
(0.0920049 0.00187842 0)
(0.091826 0.00195708 0)
(0.0916475 0.00204188 0)
(0.0914698 0.00213359 0)
(0.0912935 0.00223306 0)
(0.0911191 0.00234125 0)
(0.0909474 0.0024592 0)
(0.0907795 0.00258806 0)
(0.0906165 0.00272908 0)
(0.0904598 0.00288358 0)
(0.0903114 0.00305295 0)
(0.0901735 0.00323857 0)
(0.0900487 0.00344183 0)
(0.0899403 0.00366396 0)
(0.0898523 0.00390598 0)
(0.089789 0.00416855 0)
(0.0897557 0.00445174 0)
(0.0897583 0.00475485 0)
(0.0898034 0.00507611 0)
(0.0898979 0.00541238 0)
(0.0900491 0.00575887 0)
(0.0902637 0.00610881 0)
(0.090548 0.00645327 0)
(0.0909065 0.00678111 0)
(0.0913414 0.00707917 0)
(0.0918515 0.0073329 0)
(0.0924311 0.00752734 0)
(0.0930704 0.0076486 0)
(0.0999998 6.92218e-05 0)
(0.0999902 0.000224063 0)
(0.0999545 0.000410482 0)
(0.09988 0.000560872 0)
(0.0997662 0.000639458 0)
(0.0996236 0.000654634 0)
(0.0994661 0.00063612 0)
(0.099305 0.000610769 0)
(0.0991472 0.000592901 0)
(0.0989951 0.00058608 0)
(0.0988486 0.000588413 0)
(0.0987067 0.000596659 0)
(0.0985681 0.000608164 0)
(0.0984316 0.000621303 0)
(0.0982965 0.000635275 0)
(0.098162 0.000649789 0)
(0.0980279 0.00066481 0)
(0.0978936 0.00068041 0)
(0.0977589 0.000696694 0)
(0.0976236 0.000713767 0)
(0.0974876 0.000731725 0)
(0.0973507 0.000750651 0)
(0.0972128 0.000770613 0)
(0.0970737 0.000791671 0)
(0.0969335 0.000813868 0)
(0.0967919 0.000837239 0)
(0.096649 0.000861806 0)
(0.0965048 0.000887581 0)
(0.0963592 0.000914564 0)
(0.0962122 0.000942749 0)
(0.0960639 0.000972126 0)
(0.0959142 0.00100268 0)
(0.0957632 0.0010344 0)
(0.0956109 0.00106728 0)
(0.0954574 0.00110131 0)
(0.0953026 0.0011365 0)
(0.0951466 0.00117288 0)
(0.0949895 0.00121046 0)
(0.0948313 0.00124929 0)
(0.0946721 0.00128942 0)
(0.094512 0.00133094 0)
(0.0943509 0.00137393 0)
(0.094189 0.00141849 0)
(0.0940264 0.00146476 0)
(0.0938632 0.00151289 0)
(0.0936994 0.00156305 0)
(0.0935351 0.00161543 0)
(0.0933706 0.00167027 0)
(0.0932059 0.00172782 0)
(0.0930412 0.00178838 0)
(0.0928768 0.00185227 0)
(0.0927128 0.00191986 0)
(0.0925496 0.00199157 0)
(0.0923874 0.00206786 0)
(0.0922267 0.00214924 0)
(0.092068 0.00223627 0)
(0.0919118 0.00232957 0)
(0.0917588 0.00242981 0)
(0.0916098 0.00253771 0)
(0.0914658 0.00265402 0)
(0.091328 0.00277955 0)
(0.0911977 0.00291511 0)
(0.0910767 0.00306149 0)
(0.0909668 0.00321945 0)
(0.0908703 0.00338965 0)
(0.0907898 0.0035726 0)
(0.0907283 0.00376856 0)
(0.0906892 0.00397746 0)
(0.0906764 0.00419878 0)
(0.0906939 0.00443142 0)
(0.0907463 0.0046735 0)
(0.090838 0.0049223 0)
(0.0909738 0.00517402 0)
(0.0911579 0.00542372 0)
(0.091394 0.00566527 0)
(0.091685 0.00589133 0)
(0.0920323 0.00609352 0)
(0.0924354 0.00626278 0)
(0.0928918 0.00638976 0)
(0.0933964 0.00646555 0)
(0.0939417 0.00648232 0)
(0.0999998 7.09026e-05 0)
(0.0999924 0.000232538 0)
(0.0999635 0.000431996 0)
(0.0998998 0.000599147 0)
(0.0997985 0.000693571 0)
(0.0996679 0.000720148 0)
(0.0995203 0.000707766 0)
(0.099367 0.00068444 0)
(0.0992151 0.000666284 0)
(0.0990677 0.000658356 0)
(0.0989254 0.000659657 0)
(0.0987876 0.000667331 0)
(0.0986531 0.000678807 0)
(0.0985209 0.000692403 0)
(0.0983902 0.000707231 0)
(0.0982602 0.000722917 0)
(0.0981306 0.000739363 0)
(0.0980009 0.000756599 0)
(0.097871 0.000774701 0)
(0.0977404 0.000793756 0)
(0.0976091 0.000813845 0)
(0.097477 0.000835039 0)
(0.0973438 0.000857398 0)
(0.0972096 0.000880971 0)
(0.0970742 0.000905793 0)
(0.0969376 0.000931891 0)
(0.0967997 0.000959278 0)
(0.0966606 0.000987957 0)
(0.0965202 0.00101792 0)
(0.0963786 0.00104916 0)
(0.0962358 0.00108166 0)
(0.0960919 0.0011154 0)
(0.0959468 0.00115036 0)
(0.0958006 0.00118652 0)
(0.0956534 0.00122389 0)
(0.0955052 0.00126247 0)
(0.0953561 0.00130226 0)
(0.0952061 0.00134329 0)
(0.0950554 0.00138561 0)
(0.0949041 0.00142925 0)
(0.0947521 0.00147428 0)
(0.0945997 0.00152079 0)
(0.0944469 0.00156887 0)
(0.0942938 0.00161863 0)
(0.0941406 0.00167021 0)
(0.0939874 0.00172376 0)
(0.0938345 0.00177945 0)
(0.0936819 0.00183749 0)
(0.0935299 0.00189808 0)
(0.0933788 0.00196148 0)
(0.0932288 0.00202797 0)
(0.0930803 0.00209783 0)
(0.0929336 0.00217141 0)
(0.0927893 0.00224906 0)
(0.0926477 0.00233117 0)
(0.0925095 0.00241814 0)
(0.0923755 0.00251043 0)
(0.0922463 0.00260846 0)
(0.092123 0.00271271 0)
(0.0920066 0.00282363 0)
(0.0918984 0.00294163 0)
(0.0917997 0.0030671 0)
(0.0917124 0.00320035 0)
(0.0916381 0.00334156 0)
(0.091579 0.00349076 0)
(0.0915375 0.00364777 0)
(0.091516 0.0038121 0)
(0.0915174 0.00398295 0)
(0.0915445 0.00415904 0)
(0.0916005 0.0043386 0)
(0.0916883 0.00451926 0)
(0.0918109 0.00469801 0)
(0.0919711 0.00487111 0)
(0.092171 0.00503415 0)
(0.0924123 0.00518205 0)
(0.0926958 0.00530919 0)
(0.0930211 0.00540958 0)
(0.0933868 0.00547715 0)
(0.0937899 0.00550606 0)
(0.0942262 0.00549107 0)
(0.09469 0.00542782 0)
(0.0999998 7.23522e-05 0)
(0.0999937 0.000239912 0)
(0.0999696 0.000451525 0)
(0.0999145 0.000635134 0)
(0.0998242 0.000745888 0)
(0.099705 0.000784923 0)
(0.0995677 0.000779865 0)
(0.099423 0.000759558 0)
(0.099278 0.000741775 0)
(0.0991364 0.000733085 0)
(0.0989991 0.000733475 0)
(0.0988659 0.000740574 0)
(0.098736 0.000751966 0)
(0.0986083 0.00076596 0)
(0.0984821 0.000781602 0)
(0.0983568 0.000798442 0)
(0.0982319 0.000816321 0)
(0.098107 0.000835222 0)
(0.0979817 0.00085519 0)
(0.097856 0.000876285 0)
(0.0977296 0.000898571 0)
(0.0976023 0.000922104 0)
(0.0974741 0.00094693 0)
(0.0973448 0.000973085 0)
(0.0972145 0.00100059 0)
(0.0970831 0.00102947 0)
(0.0969505 0.00105972 0)
(0.0968168 0.00109134 0)
(0.096682 0.0011243 0)
(0.0965462 0.0011586 0)
(0.0964093 0.0011942 0)
(0.0962714 0.00123109 0)
(0.0961327 0.00126923 0)
(0.095993 0.00130862 0)
(0.0958526 0.00134923 0)
(0.0957115 0.00139106 0)
(0.0955698 0.00143412 0)
(0.0954276 0.00147842 0)
(0.095285 0.00152399 0)
(0.095142 0.00157087 0)
(0.0949989 0.0016191 0)
(0.0948557 0.00166876 0)
(0.0947126 0.00171993 0)
(0.0945698 0.00177268 0)
(0.0944273 0.00182714 0)
(0.0942856 0.00188342 0)
(0.0941446 0.00194166 0)
(0.0940048 0.00200202 0)
(0.0938663 0.00206465 0)
(0.0937295 0.00212975 0)
(0.0935948 0.00219751 0)
(0.0934625 0.00226815 0)
(0.0933331 0.00234189 0)
(0.0932071 0.00241898 0)
(0.0930852 0.00249964 0)
(0.0929679 0.00258413 0)
(0.0928561 0.00267267 0)
(0.0927507 0.00276549 0)
(0.0926525 0.00286277 0)
(0.0925627 0.00296466 0)
(0.0924826 0.00307124 0)
(0.0924134 0.00318251 0)
(0.0923568 0.00329834 0)
(0.0923143 0.00341846 0)
(0.0922878 0.00354241 0)
(0.0922791 0.00366951 0)
(0.0922903 0.00379881 0)
(0.0923234 0.00392904 0)
(0.0923806 0.00405857 0)
(0.0924638 0.00418539 0)
(0.092575 0.00430704 0)
(0.0927158 0.00442068 0)
(0.0928875 0.00452301 0)
(0.0930911 0.0046104 0)
(0.093327 0.00467891 0)
(0.0935946 0.00472443 0)
(0.0938931 0.00474284 0)
(0.0942205 0.00473023 0)
(0.0945741 0.00468301 0)
(0.0949505 0.00459817 0)
(0.0953455 0.00447337 0)
(0.0999997 7.3728e-05 0)
(0.0999944 0.000246597 0)
(0.0999736 0.000469593 0)
(0.0999251 0.000669217 0)
(0.0998444 0.000796471 0)
(0.0997357 0.000848682 0)
(0.0996088 0.000851912 0)
(0.0994731 0.000835537 0)
(0.0993359 0.00081882 0)
(0.0992007 0.000809806 0)
(0.0990691 0.000809513 0)
(0.0989411 0.000816125 0)
(0.0988161 0.000827449 0)
(0.0986932 0.00084183 0)
(0.0985718 0.000858272 0)
(0.0984512 0.000876265 0)
(0.0983311 0.000895591 0)
(0.098211 0.000916186 0)
(0.0980907 0.000938058 0)
(0.0979699 0.000961241 0)