/*--------------------------------*- C++ -*----------------------------------*\
  =========                 |
  \\      /  F ield         | OpenFOAM: The Open Source CFD Toolbox
   \\    /   O peration     | Website:  https://openfoam.org
    \\  /    A nd           | Version:  7
     \\/     M anipulation  |
\*---------------------------------------------------------------------------*/
FoamFile
{
    version     2.0;
    format      ascii;
    class       volVectorField;
    location    "4.14";
    object      U;
}
// * * * * * * * * * * * * * * * * * * * * * * * * * * * * * * * * * * * * * //

dimensions      [0 1 -1 0 0 0 0];

internalField   nonuniform List<vector> 
12013
(
(0.100506 -0.000143009 0)
(0.102622 -0.000270196 0)
(0.106114 -0.000390152 0)
(0.110677 -0.000501244 0)
(0.116211 -0.000604786 0)
(0.122609 -0.000701177 0)
(0.129764 -0.000790431 0)
(0.137578 -0.000872534 0)
(0.145956 -0.000947449 0)
(0.154808 -0.00101517 0)
(0.164049 -0.00107573 0)
(0.173599 -0.00112923 0)
(0.183384 -0.00117583 0)
(0.193334 -0.00121575 0)
(0.203387 -0.00124927 0)
(0.213485 -0.0012767 0)
(0.223577 -0.00129839 0)
(0.233616 -0.00131474 0)
(0.243564 -0.00132611 0)
(0.253385 -0.00133295 0)
(0.263049 -0.00133564 0)
(0.272532 -0.00133459 0)
(0.281813 -0.00133022 0)
(0.290875 -0.00132288 0)
(0.299706 -0.00131297 0)
(0.308297 -0.00130082 0)
(0.31664 -0.00128675 0)
(0.324733 -0.0012711 0)
(0.332573 -0.00125413 0)
(0.340161 -0.0012361 0)
(0.347499 -0.00121726 0)
(0.354592 -0.00119784 0)
(0.361445 -0.00117801 0)
(0.368064 -0.00115794 0)
(0.374457 -0.00113785 0)
(0.380631 -0.00111783 0)
(0.386595 -0.00109798 0)
(0.392359 -0.00107841 0)
(0.397931 -0.00105924 0)
(0.403323 -0.00104054 0)
(0.408543 -0.00102231 0)
(0.413602 -0.00100458 0)
(0.418511 -0.000987379 0)
(0.423278 -0.000970734 0)
(0.427915 -0.000954611 0)
(0.432431 -0.000938946 0)
(0.436835 -0.000923666 0)
(0.441138 -0.000908695 0)
(0.445349 -0.000893936 0)
(0.449475 -0.000879254 0)
(0.453526 -0.000864478 0)
(0.45751 -0.0008494 0)
(0.461434 -0.000833783 0)
(0.465306 -0.000817356 0)
(0.469133 -0.000799799 0)
(0.47292 -0.000780735 0)
(0.476672 -0.000759718 0)
(0.480395 -0.000736224 0)
(0.484092 -0.000709637 0)
(0.487766 -0.000679235 0)
(0.491419 -0.000644161 0)
(0.49505 -0.000603394 0)
(0.498659 -0.000555703 0)
(0.502242 -0.000499591 0)
(0.505793 -0.000433216 0)
(0.509304 -0.000354282 0)
(0.512762 -0.000259892 0)
(0.516148 -0.000146331 0)
(0.519439 -8.73663e-06 0)
(0.522599 0.000159719 0)
(0.525582 0.000368737 0)
(0.528319 0.000632179 0)
(0.530714 0.000970785 0)
(0.532625 0.00141703 0)
(0.533835 0.0020243 0)
(0.534007 0.00288503 0)
(0.532587 0.00416901 0)
(0.528599 0.00621388 0)
(0.520296 0.00981941 0)
(0.504643 0.0178112 0)
(0.488378 0.0488809 0)
(0.100471 -0.000436841 0)
(0.102581 -0.000828162 0)
(0.106064 -0.00119595 0)
(0.110621 -0.00153608 0)
(0.116149 -0.00185289 0)
(0.122543 -0.00214763 0)
(0.129694 -0.00242039 0)
(0.137505 -0.00267115 0)
(0.145881 -0.00289986 0)
(0.154731 -0.0031065 0)
(0.16397 -0.00329122 0)
(0.173519 -0.00345436 0)
(0.183303 -0.00359642 0)
(0.193252 -0.0037181 0)
(0.203304 -0.00382024 0)
(0.213401 -0.0039038 0)
(0.223491 -0.00396989 0)
(0.23353 -0.00401965 0)
(0.243476 -0.00405431 0)
(0.253296 -0.00407511 0)
(0.262959 -0.00408329 0)
(0.27244 -0.0040801 0)
(0.281719 -0.00406675 0)
(0.290779 -0.0040444 0)
(0.299607 -0.00401417 0)
(0.308195 -0.00397713 0)
(0.316535 -0.00393426 0)
(0.324624 -0.00388651 0)
(0.332459 -0.00383475 0)
(0.340043 -0.00377977 0)
(0.347376 -0.00372228 0)
(0.354464 -0.00366298 0)
(0.36131 -0.00360245 0)
(0.367922 -0.00354123 0)
(0.374307 -0.0034798 0)
(0.380473 -0.00341856 0)
(0.386428 -0.00335789 0)
(0.392182 -0.00329812 0)
(0.397744 -0.00323947 0)
(0.403123 -0.00318211 0)
(0.408331 -0.0031262 0)
(0.413376 -0.00307187 0)
(0.418269 -0.00301917 0)
(0.42302 -0.00296807 0)
(0.427639 -0.00291845 0)
(0.432135 -0.00287018 0)
(0.436519 -0.00282309 0)
(0.440799 -0.00277692 0)
(0.444984 -0.00273135 0)
(0.449084 -0.00268593 0)
(0.453107 -0.00264014 0)
(0.45706 -0.00259337 0)
(0.460951 -0.00254491 0)
(0.464787 -0.00249394 0)
(0.468575 -0.00243945 0)
(0.472321 -0.00238028 0)
(0.47603 -0.00231506 0)
(0.479706 -0.0022422 0)
(0.483353 -0.00215984 0)
(0.486975 -0.00206577 0)
(0.490572 -0.0019574 0)
(0.494145 -0.00183162 0)
(0.497692 -0.00168469 0)
(0.501212 -0.00151208 0)
(0.504698 -0.00130822 0)
(0.508143 -0.0010662 0)
(0.511534 -0.00077729 0)
(0.514856 -0.000430354 0)
(0.518087 -1.08034e-05 0)
(0.521194 0.000501387 0)
(0.524138 0.00113399 0)
(0.526862 0.00192636 0)
(0.529288 0.00293633 0)
(0.531307 0.00425209 0)
(0.532765 0.00601358 0)
(0.533447 0.00845196 0)
(0.533052 0.0119649 0)
(0.531156 0.0172654 0)
(0.527217 0.0257043 0)
(0.521168 0.0398925 0)
(0.520528 0.0645124 0)
(0.100437 -0.000743989 0)
(0.10253 -0.00142225 0)
(0.105994 -0.00205596 0)
(0.110536 -0.00264175 0)
(0.116053 -0.00318727 0)
(0.122437 -0.00369468 0)
(0.12958 -0.00416418 0)
(0.137384 -0.00459579 0)
(0.145754 -0.0049894 0)
(0.154599 -0.00534503 0)
(0.163834 -0.00566292 0)
(0.173379 -0.00594366 0)
(0.183159 -0.00618812 0)
(0.193106 -0.0063975 0)
(0.203155 -0.00657324 0)
(0.213249 -0.00671703 0)
(0.223337 -0.00683072 0)
(0.233373 -0.00691633 0)
(0.243316 -0.00697593 0)
(0.253133 -0.00701167 0)
(0.262792 -0.0070257 0)
(0.272269 -0.00702013 0)
(0.281543 -0.00699706 0)
(0.290599 -0.00695849 0)
(0.299422 -0.00690634 0)
(0.308003 -0.00684245 0)
(0.316337 -0.00676851 0)
(0.324418 -0.00668614 0)
(0.332245 -0.00659683 0)
(0.339819 -0.00650194 0)
(0.347143 -0.00640272 0)
(0.354219 -0.00630032 0)
(0.361054 -0.00619577 0)
(0.367653 -0.00608998 0)
(0.374023 -0.00598376 0)
(0.380173 -0.00587783 0)
(0.386111 -0.00577285 0)
(0.391847 -0.00566929 0)
(0.397388 -0.00556757 0)
(0.402746 -0.00546803 0)
(0.40793 -0.00537095 0)
(0.41295 -0.00527649 0)
(0.417815 -0.00518466 0)
(0.422537 -0.00509541 0)
(0.427123 -0.0050086 0)
(0.431585 -0.00492404 0)
(0.435931 -0.00484139 0)
(0.44017 -0.00476018 0)
(0.444312 -0.00467979 0)
(0.448365 -0.00459948 0)
(0.452337 -0.00451838 0)
(0.456236 -0.00443546 0)
(0.46007 -0.00434947 0)
(0.463844 -0.00425897 0)
(0.467566 -0.00416224 0)
(0.471242 -0.00405728 0)
(0.474875 -0.00394175 0)
(0.478472 -0.00381297 0)
(0.482035 -0.00366776 0)
(0.485568 -0.00350241 0)
(0.489072 -0.00331251 0)
(0.492548 -0.00309286 0)
(0.495994 -0.00283719 0)
(0.49941 -0.00253796 0)
(0.50279 -0.00218596 0)
(0.506127 -0.00176982 0)
(0.509413 -0.00127533 0)
(0.512634 -0.000684429 0)
(0.515772 2.63038e-05 0)
(0.518805 0.000888127 0)
(0.521702 0.00194333 0)
(0.524425 0.00325032 0)
(0.526925 0.00489185 0)
(0.529144 0.00698822 0)
(0.531015 0.00971854 0)
(0.532472 0.0133553 0)
(0.533484 0.0183198 0)
(0.534126 0.0252681 0)
(0.534757 0.0352278 0)
(0.536476 0.0497083 0)
(0.543033 0.0699001 0)
(0.100405 -0.00106285 0)
(0.102475 -0.00205247 0)
(0.10591 -0.00297126 0)
(0.110432 -0.00382104 0)
(0.115931 -0.00461213 0)
(0.1223 -0.00534778 0)
(0.129431 -0.0060284 0)
(0.137225 -0.00665405 0)
(0.145585 -0.00722459 0)
(0.154423 -0.00774005 0)
(0.163652 -0.0082008 0)
(0.173192 -0.00860769 0)
(0.182968 -0.00896198 0)
(0.19291 -0.00926539 0)
(0.202955 -0.00952003 0)
(0.213046 -0.00972833 0)
(0.223131 -0.009893 0)
(0.233163 -0.0100169 0)
(0.243102 -0.0101031 0)
(0.252914 -0.0101547 0)
(0.262568 -0.0101748 0)
(0.27204 -0.0101665 0)
(0.281308 -0.0101328 0)
(0.290357 -0.0100765 0)
(0.299172 -0.0100006 0)
(0.307745 -0.00990754 0)
(0.316068 -0.00979991 0)
(0.324139 -0.00968002 0)
(0.331954 -0.00955001 0)
(0.339515 -0.00941184 0)
(0.346824 -0.00926735 0)
(0.353885 -0.00911817 0)
(0.360702 -0.00896578 0)
(0.367283 -0.00881151 0)
(0.373633 -0.00865654 0)
(0.379761 -0.0085019 0)
(0.385675 -0.00834844 0)
(0.391385 -0.00819692 0)
(0.396898 -0.00804798 0)
(0.402226 -0.00790209 0)
(0.407377 -0.00775955 0)
(0.412362 -0.00762054 0)
(0.41719 -0.00748514 0)
(0.42187 -0.00735332 0)
(0.426413 -0.00722487 0)
(0.430827 -0.00709944 0)
(0.435123 -0.00697649 0)
(0.439308 -0.00685531 0)
(0.443392 -0.00673505 0)
(0.447382 -0.00661465 0)
(0.451288 -0.00649284 0)
(0.455116 -0.0063681 0)
(0.458873 -0.00623861 0)
(0.462567 -0.00610227 0)
(0.466203 -0.00595662 0)
(0.469788 -0.00579883 0)
(0.473326 -0.00562558 0)
(0.476821 -0.00543304 0)
(0.480278 -0.00521671 0)
(0.483699 -0.00497137 0)
(0.487087 -0.00469084 0)
(0.490443 -0.00436785 0)
(0.493766 -0.00399377 0)
(0.497055 -0.00355824 0)
(0.500308 -0.00304875 0)
(0.503521 -0.00245002 0)
(0.506687 -0.00174313 0)
(0.509798 -0.000904425 0)
(0.512843 9.62358e-05 0)
(0.515809 0.00129776 0)
(0.51868 0.0027511 0)
(0.521442 0.00452393 0)
(0.524078 0.00670747 0)
(0.526581 0.00942592 0)
(0.528961 0.0128494 0)
(0.531266 0.0172104 0)
(0.533624 0.0228205 0)
(0.536308 0.0300797 0)
(0.539851 0.0394506 0)
(0.545185 0.051309 0)
(0.553896 0.0653331 0)
(0.100374 -0.00139462 0)
(0.102419 -0.00271955 0)
(0.105821 -0.00394376 0)
(0.110315 -0.00507715 0)
(0.115792 -0.00613197 0)
(0.122142 -0.0071126 0)
(0.129258 -0.00801978 0)
(0.137039 -0.00885361 0)
(0.145389 -0.00961394 0)
(0.154218 -0.0103008 0)
(0.163441 -0.0109148 0)
(0.172975 -0.0114569 0)
(0.182746 -0.0119289 0)
(0.192684 -0.012333 0)
(0.202726 -0.0126722 0)
(0.212814 -0.0129495 0)
(0.222895 -0.0131686 0)
(0.232923 -0.0133334 0)
(0.242859 -0.0134479 0)
(0.252666 -0.0135163 0)
(0.262315 -0.0135426 0)
(0.271781 -0.0135309 0)
(0.281042 -0.0134854 0)
(0.290082 -0.0134098 0)
(0.298888 -0.0133079 0)
(0.30745 -0.0131832 0)
(0.315762 -0.013039 0)
(0.323819 -0.0128783 0)
(0.331619 -0.0127041 0)
(0.339164 -0.0125189 0)
(0.346455 -0.0123252 0)
(0.353496 -0.0121251 0)
(0.360292 -0.0119206 0)
(0.366849 -0.0117135 0)
(0.373173 -0.0115052 0)
(0.379274 -0.0112972 0)
(0.385158 -0.0110907 0)
(0.390835 -0.0108865 0)
(0.396314 -0.0106855 0)
(0.401604 -0.0104883 0)
(0.406715 -0.0102952 0)
(0.411656 -0.0101067 0)
(0.416437 -0.00992268 0)
(0.421067 -0.00974314 0)
(0.425556 -0.00956773 0)
(0.429913 -0.00939593 0)
(0.434147 -0.00922703 0)
(0.438267 -0.00906012 0)
(0.442281 -0.00889404 0)
(0.446197 -0.00872737 0)
(0.450023 -0.00855839 0)
(0.453767 -0.00838506 0)
(0.457435 -0.008205 0)
(0.461035 -0.00801546 0)
(0.464571 -0.00781322 0)
(0.468051 -0.00759459 0)
(0.471478 -0.00735527 0)
(0.474858 -0.00709028 0)
(0.478194 -0.00679388 0)
(0.48149 -0.00645935 0)
(0.484748 -0.00607892 0)
(0.487971 -0.00564344 0)
(0.491159 -0.00514219 0)
(0.494314 -0.00456243 0)
(0.497434 -0.00388895 0)
(0.500518 -0.00310343 0)
(0.503565 -0.00218362 0)
(0.506572 -0.00110225 0)
(0.509536 0.000174417 0)
(0.512455 0.00168835 0)
(0.515329 0.00349222 0)
(0.518165 0.00565262 0)
(0.520975 0.00825381 0)
(0.523792 0.0114018 0)
(0.526673 0.0152278 0)
(0.529721 0.0198889 0)
(0.533111 0.025561 0)
(0.537119 0.0324143 0)
(0.542159 0.0405542 0)
(0.548786 0.0498955 0)
(0.557647 0.059923 0)
(0.100343 -0.00174057 0)
(0.102366 -0.00342465 0)
(0.105731 -0.00497588 0)
(0.110195 -0.00641386 0)
(0.115646 -0.007752 0)
(0.121975 -0.00899574 0)
(0.129074 -0.0101462 0)
(0.136841 -0.0112035 0)
(0.14518 -0.0121676 0)
(0.154001 -0.0130385 0)
(0.163217 -0.0138168 0)
(0.172747 -0.014504 0)
(0.182515 -0.0151022 0)
(0.192451 -0.0156143 0)
(0.202491 -0.0160439 0)
(0.212577 -0.0163951 0)
(0.222656 -0.0166725 0)
(0.232683 -0.0168809 0)
(0.242616 -0.0170254 0)
(0.25242 -0.0171113 0)
(0.262064 -0.0171439 0)
(0.271524 -0.0171283 0)
(0.280779 -0.0170696 0)
(0.28981 -0.0169728 0)
(0.298606 -0.0168425 0)
(0.307157 -0.0166831 0)
(0.315455 -0.016499 0)
(0.323497 -0.0162939 0)
(0.331281 -0.0160714 0)
(0.338806 -0.015835 0)
(0.346076 -0.0155875 0)
(0.353094 -0.0153318 0)
(0.359864 -0.0150704 0)
(0.366393 -0.0148054 0)
(0.372687 -0.0145388 0)
(0.378755 -0.0142723 0)
(0.384604 -0.0140073 0)
(0.390242 -0.013745 0)
(0.39568 -0.0134864 0)
(0.400926 -0.0132323 0)
(0.405989 -0.0129831 0)
(0.410879 -0.0127392 0)
(0.415606 -0.0125007 0)
(0.420178 -0.0122674 0)
(0.424605 -0.0120387 0)
(0.428896 -0.0118142 0)
(0.433059 -0.0115928 0)
(0.437104 -0.0113735 0)
(0.441038 -0.0111547 0)
(0.44487 -0.0109345 0)
(0.448607 -0.010711 0)
(0.452256 -0.0104814 0)
(0.455825 -0.0102428 0)
(0.459319 -0.00999187 0)
(0.462745 -0.0097246 0)
(0.466109 -0.00943642 0)
(0.469416 -0.00912211 0)
(0.47267 -0.00877562 0)
(0.475877 -0.00839003 0)
(0.479039 -0.00795737 0)
(0.482161 -0.00746845 0)
(0.485246 -0.00691258 0)
(0.488296 -0.00627738 0)
(0.491314 -0.00554834 0)
(0.494302 -0.00470843 0)
(0.497262 -0.00373756 0)
(0.500197 -0.00261187 0)
(0.503112 -0.00130288 0)
(0.50601 0.000223307 0)
(0.508901 0.00200706 0)
(0.511798 0.00409646 0)
(0.514723 0.00654883 0)
(0.517709 0.00943127 0)
(0.520809 0.0128205 0)
(0.5241 0.0168 0)
(0.527694 0.0214537 0)
(0.531749 0.0268515 0)
(0.536475 0.0330239 0)
(0.542128 0.0399213 0)
(0.548992 0.047355 0)
(0.55729 0.0549273 0)
(0.100313 -0.00210213 0)
(0.102316 -0.00416955 0)
(0.105646 -0.00607077 0)
(0.110078 -0.00783563 0)
(0.115502 -0.00947825 0)
(0.121809 -0.0110048 0)
(0.12889 -0.0124167 0)
(0.136645 -0.0137143 0)
(0.144975 -0.0148972 0)
(0.15379 -0.0159657 0)
(0.163002 -0.0169206 0)
(0.172531 -0.0177635 0)
(0.182299 -0.0184972 0)
(0.192236 -0.0191252 0)
(0.202278 -0.0196518 0)
(0.212365 -0.020082 0)
(0.222447 -0.0204215 0)
(0.232474 -0.0206763 0)
(0.242407 -0.0208526 0)
(0.25221 -0.0209569 0)
(0.261853 -0.0209956 0)
(0.271309 -0.0209752 0)
(0.280557 -0.0209017 0)
(0.289582 -0.0207813 0)
(0.298368 -0.0206198 0)
(0.306907 -0.0204225 0)
(0.315191 -0.0201946 0)
(0.323217 -0.0199408 0)
(0.330982 -0.0196656 0)
(0.338487 -0.019373 0)
(0.345733 -0.0190668 0)
(0.352724 -0.0187502 0)
(0.359466 -0.0184263 0)
(0.365963 -0.0180978 0)
(0.372223 -0.0177669 0)
(0.378253 -0.0174359 0)
(0.384061 -0.0171064 0)
(0.389657 -0.0167798 0)
(0.395047 -0.0164573 0)
(0.400243 -0.0161399 0)
(0.405252 -0.0158281 0)
(0.410085 -0.0155222 0)
(0.41475 -0.0152223 0)
(0.419256 -0.0149282 0)
(0.423613 -0.0146392 0)
(0.42783 -0.0143547 0)
(0.431915 -0.0140735 0)
(0.435876 -0.0137941 0)
(0.439722 -0.0135147 0)
(0.443461 -0.013233 0)
(0.4471 -0.0129466 0)
(0.450646 -0.0126522 0)
(0.454106 -0.0123465 0)
(0.457487 -0.0120253 0)
(0.460795 -0.0116839 0)
(0.464035 -0.0113171 0)
(0.467215 -0.0109186 0)
(0.470337 -0.0104815 0)
(0.473409 -0.00999805 0)
(0.476434 -0.00945908 0)
(0.479416 -0.00885434 0)
(0.482362 -0.00817206 0)
(0.485274 -0.00739877 0)
(0.488157 -0.00651901 0)
(0.491017 -0.005515 0)
(0.49386 -0.00436626 0)
(0.496693 -0.00304915 0)
(0.499526 -0.00153644 0)
(0.50237 0.00020305 0)
(0.505241 0.00220395 0)
(0.508164 0.00450563 0)
(0.511168 0.0071514 0)
(0.514297 0.0101874 0)
(0.517607 0.01366 0)
(0.521175 0.0176107 0)
(0.525095 0.0220688 0)
(0.529487 0.027039 0)
(0.534483 0.0324856 0)
(0.540224 0.0383119 0)
(0.546827 0.0443408 0)
(0.554335 0.0503066 0)
(0.100283 -0.00248102 0)
(0.102271 -0.00495672 0)
(0.105568 -0.00723236 0)
(0.109969 -0.00934787 0)
(0.115367 -0.0113177 0)
(0.121654 -0.0131484 0)
(0.128721 -0.0148415 0)
(0.136465 -0.0163974 0)
(0.14479 -0.0178159 0)
(0.153603 -0.0190969 0)
(0.162816 -0.0202416 0)
(0.172348 -0.0212519 0)
(0.182122 -0.0221311 0)
(0.192065 -0.0228833 0)
(0.202114 -0.0235139 0)
(0.21221 -0.0240287 0)
(0.222298 -0.0244346 0)
(0.232331 -0.0247387 0)
(0.242269 -0.0249485 0)
(0.252076 -0.0250719 0)
(0.261719 -0.0251165 0)
(0.271175 -0.0250899 0)
(0.28042 -0.0249997 0)
(0.289439 -0.0248531 0)
(0.298217 -0.0246569 0)
(0.306745 -0.0244177 0)
(0.315016 -0.0241416 0)
(0.323025 -0.0238344 0)
(0.33077 -0.0235012 0)
(0.338253 -0.0231469 0)
(0.345474 -0.022776 0)
(0.352436 -0.0223925 0)
(0.359146 -0.0219998 0)
(0.365608 -0.0216013 0)
(0.37183 -0.0211996 0)
(0.377818 -0.0207972 0)
(0.383582 -0.0203962 0)
(0.389128 -0.0199983 0)
(0.394466 -0.0196048 0)
(0.399606 -0.0192167 0)
(0.404555 -0.0188348 0)
(0.409323 -0.0184592 0)
(0.41392 -0.0180903 0)
(0.418354 -0.0177275 0)
(0.422634 -0.0173703 0)
(0.426769 -0.0170177 0)
(0.430768 -0.0166682 0)
(0.434638 -0.0163202 0)
(0.438388 -0.0159715 0)
(0.442026 -0.0156194 0)
(0.44556 -0.015261 0)
(0.448995 -0.0148927 0)
(0.45234 -0.0145104 0)
(0.455601 -0.0141095 0)
(0.458784 -0.0136846 0)
(0.461896 -0.0132297 0)
(0.464943 -0.012738 0)
(0.46793 -0.0122017 0)
(0.470863 -0.0116124 0)
(0.473748 -0.0109601 0)
(0.476591 -0.0102339 0)
(0.479397 -0.00942151 0)
(0.482173 -0.00850906 0)
(0.484926 -0.00748101 0)
(0.487664 -0.00631991 0)
(0.490395 -0.00500627 0)
(0.493132 -0.0035184 0)
(0.495888 -0.00183231 0)
(0.49868 7.82303e-05 0)
(0.501528 0.00224017 0)
(0.504461 0.00468192 0)
(0.507513 0.00743186 0)
(0.510725 0.0105163 0)
(0.514151 0.0139564 0)
(0.517853 0.0177633 0)
(0.5219 0.0219328 0)
(0.526369 0.0264376 0)
(0.531336 0.0312199 0)
(0.536862 0.0361837 0)
(0.542984 0.0411929 0)
(0.549673 0.0460804 0)
(0.100252 -0.00287936 0)
(0.102231 -0.00578937 0)
(0.105499 -0.00846555 0)
(0.109874 -0.0109571 0)
(0.11525 -0.0132787 0)
(0.12152 -0.0154365 0)
(0.128576 -0.0174324 0)
(0.136316 -0.0192665 0)
(0.144641 -0.0209384 0)
(0.153458 -0.0224483 0)
(0.16268 -0.0237973 0)
(0.172223 -0.0249877 0)
(0.182009 -0.0260232 0)
(0.191968 -0.0269089 0)
(0.202032 -0.0276508 0)
(0.212142 -0.0282561 0)
(0.222244 -0.0287328 0)
(0.23229 -0.0290892 0)
(0.242239 -0.0293343 0)
(0.252054 -0.0294772 0)
(0.261704 -0.029527 0)
(0.271163 -0.0294928 0)
(0.280409 -0.0293834 0)
(0.289425 -0.0292072 0)
(0.298198 -0.0289725 0)
(0.306717 -0.0286868 0)
(0.314975 -0.0283574 0)
(0.322968 -0.0279911 0)
(0.330694 -0.0275939 0)
(0.338153 -0.0271716 0)
(0.345346 -0.0267294 0)
(0.352279 -0.0262719 0)
(0.358954 -0.0258033 0)
(0.365378 -0.0253273 0)
(0.371558 -0.0248472 0)
(0.3775 -0.0243658 0)
(0.383214 -0.0238854 0)
(0.388707 -0.023408 0)
(0.393987 -0.0229352 0)
(0.399065 -0.0224682 0)
(0.403948 -0.0220076 0)
(0.408646 -0.021554 0)
(0.413167 -0.0211072 0)
(0.417522 -0.020667 0)
(0.421718 -0.0202326 0)
(0.425765 -0.0198026 0)
(0.42967 -0.0193756 0)
(0.433443 -0.0189494 0)
(0.43709 -0.0185218 0)
(0.44062 -0.0180895 0)
(0.444041 -0.0176494 0)
(0.447359 -0.0171972 0)
(0.450583 -0.0167285 0)
(0.453718 -0.016238 0)
(0.456772 -0.01572 0)
(0.45975 -0.0151678 0)
(0.462661 -0.0145741 0)
(0.465509 -0.0139306 0)
(0.468302 -0.0132284 0)
(0.471047 -0.0124572 0)
(0.47375 -0.0116059 0)
(0.476418 -0.0106622 0)
(0.479061 -0.0096126 0)
(0.481686 -0.00844223 0)
(0.484305 -0.00713504 0)
(0.486928 -0.00567367 0)
(0.48957 -0.00403961 0)
(0.492247 -0.00221342 0)
(0.494979 -0.000175175 0)
(0.497789 0.00209426 0)
(0.500703 0.00461227 0)
(0.503755 0.00739407 0)
(0.506981 0.0104501 0)
(0.510423 0.0137836 0)
(0.514127 0.0173875 0)
(0.518138 0.0212409 0)
(0.5225 0.0253056 0)
(0.527248 0.0295238 0)
(0.532403 0.0338171 0)
(0.537958 0.0380891 0)
(0.543869 0.0422376 0)
(0.100219 -0.00329959 0)
(0.102196 -0.00667147 0)
(0.105443 -0.00977625 0)
(0.109795 -0.0126711 0)
(0.115154 -0.0153708 0)
(0.121415 -0.0178809 0)
(0.128468 -0.020203 0)
(0.13621 -0.0223369 0)
(0.144543 -0.0242821 0)
(0.153374 -0.0260386 0)
(0.162614 -0.0276076 0)
(0.172178 -0.0289919 0)
(0.181987 -0.0301956 0)
(0.19197 -0.0312246 0)
(0.202059 -0.032086 0)
(0.212193 -0.0327881 0)
(0.222318 -0.03334 0)
(0.232386 -0.0337518 0)
(0.242354 -0.0340337 0)
(0.252185 -0.0341964 0)
(0.261848 -0.0342505 0)
(0.271316 -0.0342065 0)
(0.280568 -0.0340747 0)
(0.289585 -0.0338651 0)
(0.298355 -0.033587 0)
(0.306867 -0.0332495 0)
(0.315114 -0.0328608 0)
(0.323092 -0.0324289 0)
(0.330798 -0.0319607 0)
(0.338233 -0.031463 0)
(0.345398 -0.0309418 0)
(0.352298 -0.0304023 0)
(0.358936 -0.0298496 0)
(0.365319 -0.0292877 0)
(0.371453 -0.0287205 0)
(0.377346 -0.0281512 0)
(0.383005 -0.0275825 0)
(0.388439 -0.0270166 0)
(0.393656 -0.0264552 0)
(0.398666 -0.0258998 0)
(0.403477 -0.0253512 0)
(0.408098 -0.0248097 0)
(0.412538 -0.0242754 0)
(0.416807 -0.0237477 0)
(0.420912 -0.0232258 0)
(0.424863 -0.0227083 0)
(0.428669 -0.0221933 0)
(0.432336 -0.0216787 0)
(0.435874 -0.0211616 0)
(0.43929 -0.0206387 0)
(0.442592 -0.0201062 0)
(0.445788 -0.0195597 0)
(0.448884 -0.0189942 0)
(0.451889 -0.0184042 0)
(0.454808 -0.0177834 0)
(0.45765 -0.0171249 0)
(0.460421 -0.0164209 0)
(0.463129 -0.0156631 0)
(0.465781 -0.0148422 0)
(0.468385 -0.0139481 0)
(0.470948 -0.0129701 0)
(0.47348 -0.0118962 0)
(0.47599 -0.010714 0)
(0.47849 -0.00941009 0)
(0.480989 -0.00797053 0)
(0.483503 -0.00638085 0)
(0.486046 -0.00462641 0)
(0.488635 -0.0026928 0)
(0.49129 -0.000566426 0)
(0.494035 0.00176435 0)
(0.496893 0.00430786 0)
(0.499891 0.00706904 0)
(0.503059 0.0100475 0)
(0.506427 0.0132359 0)
(0.510025 0.0166179 0)
(0.513879 0.0201672 0)
(0.51801 0.023846 0)
(0.52243 0.0276052 0)
(0.527136 0.0313859 0)
(0.532109 0.0351228 0)
(0.537302 0.0387536 0)
(0.100184 -0.00374447 0)
(0.102166 -0.00760784 0)
(0.1054 -0.0111715 0)
(0.109737 -0.0144991 0)
(0.115087 -0.0176057 0)
(0.121346 -0.0204953 0)
(0.128405 -0.0231691 0)
(0.13616 -0.0256265 0)
(0.144513 -0.0278666 0)
(0.153369 -0.0298892 0)
(0.162638 -0.0316955 0)
(0.172235 -0.0332887 0)
(0.182081 -0.0346735 0)
(0.1921 -0.0358565 0)
(0.202226 -0.036846 0)
(0.212396 -0.0376514 0)
(0.222556 -0.0382834 0)
(0.232655 -0.0387534 0)
(0.242651 -0.0390733 0)
(0.252507 -0.0392556 0)
(0.262191 -0.0393124 0)
(0.271675 -0.0392559 0)
(0.280937 -0.039098 0)
(0.289961 -0.03885 0)
(0.298732 -0.038523 0)
(0.30724 -0.0381272 0)
(0.315477 -0.0376722 0)
(0.32344 -0.037167 0)
(0.331127 -0.0366198 0)
(0.338537 -0.0360382 0)
(0.345673 -0.0354291 0)
(0.352537 -0.0347985 0)
(0.359136 -0.0341521 0)
(0.365474 -0.0334947 0)
(0.371558 -0.0328305 0)
(0.377396 -0.0321632 0)
(0.382996 -0.0314959 0)
(0.388366 -0.030831 0)
(0.393514 -0.0301707 0)
(0.39845 -0.0295163 0)
(0.403182 -0.0288687 0)
(0.40772 -0.0282285 0)
(0.412073 -0.0275955 0)
(0.416248 -0.0269693 0)
(0.420256 -0.0263487 0)
(0.424105 -0.0257324 0)
(0.427803 -0.0251183 0)
(0.431359 -0.0245038 0)
(0.434781 -0.0238859 0)
(0.438076 -0.023261 0)
(0.441254 -0.0226251 0)
(0.444321 -0.0219733 0)
(0.447286 -0.0213005 0)
(0.450155 -0.0206008 0)
(0.452937 -0.0198677 0)
(0.455639 -0.0190941 0)
(0.458268 -0.0182723 0)
(0.460834 -0.0173938 0)
(0.463343 -0.0164497 0)
(0.465806 -0.0154303 0)
(0.468229 -0.0143255 0)
(0.470625 -0.0131245 0)
(0.473002 -0.0118162 0)
(0.475373 -0.0103892 0)
(0.477751 -0.00883213 0)
(0.480149 -0.00713378 0)
(0.482582 -0.00528349 0)
(0.485068 -0.00327171 0)
(0.487625 -0.00109046 0)
(0.490274 0.00126593 0)
(0.493033 0.00379899 0)
(0.495924 0.00650682 0)
(0.498969 0.00938258 0)
(0.502188 0.0124137 0)
(0.505598 0.0155813 0)
(0.509211 0.0188593 0)
(0.513034 0.0222153 0)
(0.517067 0.025611 0)
(0.521297 0.0290039 0)
(0.525702 0.0323504 0)
(0.53024 0.035613 0)
(0.100146 -0.00421715 0)
(0.102142 -0.00860421 0)
(0.105371 -0.0126598 0)
(0.109701 -0.0164522 0)
(0.115053 -0.0199968 0)
(0.121321 -0.0232958 0)
(0.128398 -0.0263493 0)
(0.136179 -0.0291561 0)
(0.144565 -0.0317148 0)
(0.153461 -0.0340249 0)
(0.162774 -0.0360876 0)
(0.17242 -0.0379061 0)
(0.182316 -0.0394859 0)
(0.192387 -0.0408344 0)
(0.202564 -0.041961 0)
(0.212784 -0.0428766 0)
(0.222991 -0.0435933 0)
(0.233134 -0.0441242 0)
(0.243169 -0.0444832 0)
(0.25306 -0.0446842 0)
(0.262772 -0.0447414 0)
(0.272279 -0.0446687 0)
(0.281559 -0.0444798 0)
(0.290594 -0.0441877 0)
(0.29937 -0.0438049 0)
(0.307876 -0.0433431 0)
(0.316106 -0.0428135 0)
(0.324055 -0.0422261 0)
(0.331722 -0.0415904 0)
(0.339106 -0.0409151 0)
(0.34621 -0.0402077 0)
(0.353037 -0.0394755 0)
(0.359592 -0.0387245 0)
(0.365881 -0.0379604 0)
(0.371912 -0.037188 0)
(0.37769 -0.0364112 0)
(0.383225 -0.0356336 0)
(0.388524 -0.0348581 0)
(0.393597 -0.0340868 0)
(0.398453 -0.0333213 0)
(0.4031 -0.0325628 0)
(0.407547 -0.0318116 0)
(0.411804 -0.0310677 0)
(0.41588 -0.0303306 0)
(0.419783 -0.0295991 0)
(0.423522 -0.0288717 0)
(0.427106 -0.028146 0)
(0.430543 -0.0274193 0)
(0.433843 -0.0266885 0)
(0.437012 -0.0259496 0)
(0.440059 -0.0251985 0)
(0.442993 -0.0244301 0)
(0.445821 -0.0236392 0)
(0.448551 -0.0228196 0)
(0.451191 -0.0219649 0)
(0.45375 -0.021068 0)
(0.456236 -0.0201214 0)
(0.458658 -0.0191169 0)
(0.461023 -0.0180462 0)
(0.463342 -0.0169002 0)
(0.465625 -0.0156698 0)
(0.467882 -0.0143458 0)
(0.470123 -0.0129188 0)
(0.472362 -0.0113795 0)
(0.474611 -0.00971932 0)
(0.476883 -0.00793014 0)
(0.479193 -0.00600505 0)
(0.481557 -0.00393864 0)
(0.483989 -0.00172742 0)
(0.486509 0.000630166 0)
(0.489129 0.00313127 0)
(0.491866 0.00576982 0)
(0.494735 0.00853604 0)
(0.497746 0.011416 0)
(0.500909 0.0143913 0)
(0.504228 0.0174397 0)
(0.507701 0.020535 0)
(0.511322 0.0236486 0)
(0.515076 0.0267506 0)
(0.518941 0.0298122 0)
(0.522884 0.0328109 0)
(0.100105 -0.0047212 0)
(0.102122 -0.00966738 0)
(0.105358 -0.0142508 0)
(0.109692 -0.0185433 0)
(0.115056 -0.0225601 0)
(0.121347 -0.0263012 0)
(0.128456 -0.0297653 0)
(0.136279 -0.0329501 0)
(0.144715 -0.0358536 0)
(0.153667 -0.0384747 0)
(0.163043 -0.0408144 0)
(0.172755 -0.0428762 0)
(0.18272 -0.0446661 0)
(0.19286 -0.0461924 0)
(0.203105 -0.0474657 0)
(0.213391 -0.0484984 0)
(0.223659 -0.0493043 0)
(0.23386 -0.0498985 0)
(0.243947 -0.0502967 0)
(0.253882 -0.0505148 0)
(0.263633 -0.0505691 0)
(0.273171 -0.0504754 0)
(0.282475 -0.0502494 0)
(0.291526 -0.0499058 0)
(0.30031 -0.049459 0)
(0.308817 -0.0489222 0)
(0.317041 -0.048308 0)
(0.324976 -0.0476279 0)
(0.332622 -0.0468926 0)
(0.339978 -0.0461119 0)
(0.347047 -0.0452945 0)
(0.353833 -0.0444483 0)
(0.36034 -0.0435804 0)
(0.366576 -0.0426969 0)
(0.372546 -0.0418032 0)
(0.378259 -0.040904 0)
(0.383722 -0.040003 0)
(0.388944 -0.0391034 0)
(0.393935 -0.0382077 0)
(0.398702 -0.0373177 0)
(0.403256 -0.0364345 0)
(0.407605 -0.0355588 0)
(0.411759 -0.0346905 0)
(0.415727 -0.0338289 0)
(0.419517 -0.0329729 0)
(0.423139 -0.0321208 0)
(0.426602 -0.0312701 0)
(0.429914 -0.0304181 0)
(0.433085 -0.0295613 0)
(0.436121 -0.0286959 0)
(0.439033 -0.0278174 0)
(0.441827 -0.0269209 0)
(0.444514 -0.0260008 0)
(0.447101 -0.0250513 0)
(0.449596 -0.024066 0)
(0.452009 -0.023038 0)
(0.454349 -0.0219602 0)
(0.456623 -0.0208251 0)
(0.458842 -0.019625 0)
(0.461016 -0.0183519 0)
(0.463155 -0.016998 0)
(0.465269 -0.0155555 0)
(0.46737 -0.0140169 0)
(0.46947 -0.0123753 0)
(0.47158 -0.0106243 0)
(0.473713 -0.00875878 0)
(0.475883 -0.00677486 0)
(0.478103 -0.0046703 0)
(0.480386 -0.00244483 0)
(0.482744 -0.000100072 0)
(0.485191 0.00235968 0)
(0.487735 0.00492611 0)
(0.490386 0.00758879 0)
(0.493149 0.0103345 0)
(0.496028 0.0131474 0)
(0.499023 0.0160093 0)
(0.502127 0.0189002 0)
(0.505332 0.0217992 0)
(0.508624 0.0246855 0)
(0.511985 0.0275401 0)
(0.515387 0.0303497 0)
(0.10006 -0.00526071 0)
(0.102108 -0.0108054 0)
(0.105362 -0.0159565 0)
(0.109712 -0.0207879 0)
(0.115102 -0.0253144 0)
(0.121432 -0.0295338 0)
(0.128591 -0.0334425 0)
(0.136473 -0.0370371 0)
(0.144979 -0.0403143 0)
(0.154009 -0.0432723 0)
(0.163469 -0.0459118 0)
(0.173268 -0.0482364 0)
(0.183322 -0.0502526 0)
(0.193551 -0.0519697 0)
(0.203884 -0.0533996 0)
(0.214253 -0.0545563 0)
(0.2246 -0.0554557 0)
(0.234872 -0.0561147 0)
(0.245024 -0.0565513 0)
(0.255016 -0.0567837 0)
(0.264814 -0.0568304 0)
(0.274391 -0.0567095 0)
(0.283725 -0.0564385 0)
(0.292796 -0.0560345 0)
(0.301592 -0.0555134 0)
(0.310101 -0.0548906 0)
(0.318319 -0.05418 0)
(0.326239 -0.0533948 0)
(0.333861 -0.052547 0)
(0.341187 -0.0516475 0)
(0.348217 -0.0507062 0)
(0.354956 -0.0497319 0)
(0.361411 -0.0487326 0)
(0.367586 -0.0477151 0)
(0.373489 -0.0466855 0)
(0.379128 -0.0456488 0)
(0.384512 -0.0446094 0)
(0.389649 -0.0435707 0)
(0.394549 -0.0425355 0)
(0.39922 -0.0415059 0)
(0.403672 -0.0404831 0)
(0.407914 -0.0394678 0)
(0.411957 -0.0384601 0)
(0.415808 -0.0374591 0)
(0.419478 -0.0364638 0)
(0.422975 -0.0354724 0)
(0.426309 -0.0344824 0)
(0.429488 -0.0334909 0)
(0.432522 -0.0324946 0)
(0.43542 -0.0314895 0)
(0.438189 -0.0304711 0)
(0.44084 -0.0294345 0)
(0.443381 -0.0283743 0)
(0.44582 -0.0272849 0)
(0.448167 -0.0261601 0)
(0.45043 -0.0249936 0)
(0.452619 -0.0237788 0)
(0.454744 -0.0225089 0)
(0.456813 -0.0211771 0)
(0.458838 -0.0197767 0)
(0.460828 -0.018301 0)
(0.462794 -0.016744 0)
(0.464747 -0.0150998 0)
(0.466698 -0.0133635 0)
(0.468659 -0.0115311 0)
(0.47064 -0.00959949 0)
(0.472653 -0.00756714 0)
(0.474709 -0.005434 0)
(0.476818 -0.00320176 0)
(0.478989 -0.00087392 0)
(0.481234 0.00154451 0)
(0.483555 0.00404526 0)
(0.485959 0.00661865 0)
(0.488448 0.00925319 0)
(0.491023 0.0119358 0)
(0.493679 0.0146524 0)
(0.496411 0.017388 0)
(0.499209 0.0201277 0)
(0.502063 0.022857 0)
(0.504955 0.0255633 0)
(0.507866 0.0282391 0)
(0.10001 -0.0058404 0)
(0.102098 -0.0120278 0)
(0.105385 -0.0177906 0)
(0.109765 -0.023204 0)
(0.115197 -0.0282823 0)
(0.121584 -0.03302 0)
(0.128813 -0.0374112 0)
(0.136778 -0.0414506 0)
(0.145377 -0.0451335 0)
(0.154509 -0.048457 0)
(0.164077 -0.0514214 0)
(0.173988 -0.0540299 0)
(0.184155 -0.0562898 0)
(0.194497 -0.0582113 0)
(0.204938 -0.0598078 0)
(0.215411 -0.0610952 0)
(0.225854 -0.0620914 0)
(0.236214 -0.0628157 0)
(0.246443 -0.0632886 0)
(0.256503 -0.0635309 0)
(0.266358 -0.0635635 0)
(0.275981 -0.0634069 0)
(0.285349 -0.0630811 0)
(0.294445 -0.0626054 0)
(0.303253 -0.0619978 0)
(0.311765 -0.0612756 0)
(0.319974 -0.0604546 0)
(0.327877 -0.0595496 0)
(0.335472 -0.0585739 0)
(0.342761 -0.05754 0)
(0.349747 -0.0564587 0)
(0.356433 -0.0553401 0)
(0.362826 -0.0541928 0)
(0.368933 -0.0530247 0)
(0.374761 -0.0518423 0)
(0.380318 -0.0506514 0)
(0.385613 -0.0494567 0)
(0.390655 -0.0482621 0)
(0.395454 -0.0470706 0)
(0.400019 -0.0458846 0)
(0.40436 -0.0447055 0)
(0.408485 -0.043534 0)
(0.412406 -0.0423702 0)
(0.416132 -0.0412137 0)
(0.419672 -0.0400631 0)
(0.423036 -0.0389166 0)
(0.426232 -0.0377721 0)
(0.429272 -0.0366264 0)
(0.432162 -0.0354762 0)
(0.434914 -0.0343177 0)
(0.437536 -0.0331464 0)
(0.440036 -0.0319576 0)
(0.442425 -0.0307463 0)
(0.444712 -0.029507 0)
(0.446905 -0.0282341 0)
(0.449015 -0.0269219 0)
(0.45105 -0.0255643 0)
(0.45302 -0.0241555 0)
(0.454936 -0.0226897 0)
(0.456806 -0.0211612 0)
(0.458642 -0.0195649 0)
(0.460453 -0.0178959 0)
(0.46225 -0.0161502 0)
(0.464042 -0.0143244 0)
(0.465841 -0.0124161 0)
(0.467655 -0.010424 0)
(0.469494 -0.008348 0)
(0.471368 -0.00618948 0)
(0.473283 -0.00395113 0)
(0.475248 -0.00163712 0)
(0.477268 0.00074763 0)
(0.479346 0.00319586 0)
(0.481486 0.00569908 0)
(0.483687 0.00824782 0)
(0.485948 0.0108318 0)
(0.488265 0.0134404 0)
(0.490632 0.0160627 0)
(0.493041 0.018688 0)
(0.495481 0.0213064 0)
(0.497942 0.0239093 0)
(0.500407 0.0264931 0)
(0.0999537 -0.00646582 0)
(0.102095 -0.0133457 0)