/*--------------------------------*- C++ -*----------------------------------*\
  =========                 |
  \\      /  F ield         | OpenFOAM: The Open Source CFD Toolbox
   \\    /   O peration     | Website:  https://openfoam.org
    \\  /    A nd           | Version:  7
     \\/     M anipulation  |
\*---------------------------------------------------------------------------*/
FoamFile
{
    version     2.0;
    format      ascii;
    class       volVectorField;
    location    "5.84";
    object      U;
}
// * * * * * * * * * * * * * * * * * * * * * * * * * * * * * * * * * * * * * //

dimensions      [0 1 -1 0 0 0 0];

internalField   nonuniform List<vector> 
12013
(
(0.100744 -0.000201916 0)
(0.103688 -0.000358562 0)
(0.108259 -0.000498016 0)
(0.114031 -0.000623704 0)
(0.120882 -0.000740126 0)
(0.128698 -0.000850299 0)
(0.137387 -0.000956385 0)
(0.146881 -0.00105994 0)
(0.157128 -0.00116189 0)
(0.168081 -0.00126249 0)
(0.179696 -0.00136141 0)
(0.191924 -0.00145776 0)
(0.20471 -0.00155024 0)
(0.217989 -0.00163728 0)
(0.231685 -0.00171723 0)
(0.245714 -0.00178854 0)
(0.259984 -0.00184986 0)
(0.2744 -0.00190016 0)
(0.288866 -0.00193878 0)
(0.303287 -0.0019654 0)
(0.317573 -0.00198008 0)
(0.331642 -0.00198313 0)
(0.345419 -0.00197515 0)
(0.358837 -0.00195688 0)
(0.37184 -0.00192923 0)
(0.384383 -0.00189314 0)
(0.396429 -0.00184961 0)
(0.407949 -0.00179962 0)
(0.418924 -0.00174415 0)
(0.429341 -0.00168409 0)
(0.439194 -0.00162031 0)
(0.448483 -0.00155359 0)
(0.457213 -0.00148466 0)
(0.465393 -0.00141415 0)
(0.473035 -0.00134266 0)
(0.480156 -0.00127071 0)
(0.486772 -0.00119875 0)
(0.492905 -0.00112715 0)
(0.498575 -0.00105628 0)
(0.503805 -0.000986448 0)
(0.508619 -0.00091789 0)
(0.513039 -0.000850803 0)
(0.517091 -0.000785356 0)
(0.520798 -0.000721689 0)
(0.524185 -0.000659898 0)
(0.527277 -0.00060004 0)
(0.530096 -0.000542136 0)
(0.532666 -0.000486178 0)
(0.53501 -0.000432125 0)
(0.53715 -0.000379897 0)
(0.539108 -0.000329378 0)
(0.540904 -0.000280405 0)
(0.542559 -0.000232775 0)
(0.544091 -0.000186235 0)
(0.545519 -0.000140479 0)
(0.546859 -9.51446e-05 0)
(0.548128 -4.98013e-05 0)
(0.549341 -3.94416e-06 0)
(0.55051 4.3046e-05 0)
(0.551648 9.18913e-05 0)
(0.552767 0.00014346 0)
(0.553873 0.000198818 0)
(0.554974 0.000259243 0)
(0.556075 0.000326293 0)
(0.557175 0.000401892 0)
(0.558273 0.00048844 0)
(0.559361 0.00058898 0)
(0.560427 0.000707441 0)
(0.561449 0.00084901 0)
(0.562398 0.0010207 0)
(0.563229 0.00123229 0)
(0.563875 0.00149785 0)
(0.564244 0.00183844 0)
(0.564192 0.00228695 0)
(0.563505 0.00289734 0)
(0.561845 0.0037629 0)
(0.558654 0.00505485 0)
(0.552953 0.00711343 0)
(0.542986 0.0107435 0)
(0.525686 0.0187983 0)
(0.508 0.0504662 0)
(0.10068 -0.00061555 0)
(0.103611 -0.00109794 0)
(0.10816 -0.00152527 0)
(0.113915 -0.00190982 0)
(0.120752 -0.00226581 0)
(0.128555 -0.00260245 0)
(0.137232 -0.00292639 0)
(0.146717 -0.00324245 0)
(0.156956 -0.00355344 0)
(0.167904 -0.00386019 0)
(0.179516 -0.00416169 0)
(0.191745 -0.00445526 0)
(0.204534 -0.00473692 0)
(0.217819 -0.00500193 0)
(0.231524 -0.00524531 0)
(0.245564 -0.00546231 0)
(0.259849 -0.00564888 0)
(0.274282 -0.00580192 0)
(0.288767 -0.00591941 0)
(0.303208 -0.00600044 0)
(0.317516 -0.00604514 0)
(0.331606 -0.00605453 0)
(0.345404 -0.00603038 0)
(0.358843 -0.00597499 0)
(0.371867 -0.00589103 0)
(0.38443 -0.00578142 0)
(0.396494 -0.00564916 0)
(0.408031 -0.00549722 0)
(0.419021 -0.00532851 0)
(0.429453 -0.00514582 0)
(0.439318 -0.00495171 0)
(0.448619 -0.00474858 0)
(0.457358 -0.00453862 0)
(0.465546 -0.00432379 0)
(0.473195 -0.00410586 0)
(0.480321 -0.0038864 0)
(0.486941 -0.00366679 0)
(0.493076 -0.00344824 0)
(0.498747 -0.00323182 0)
(0.503976 -0.00301842 0)
(0.508787 -0.00280879 0)
(0.513203 -0.00260357 0)
(0.517249 -0.00240329 0)
(0.520949 -0.00220835 0)
(0.524328 -0.00201903 0)
(0.527408 -0.00183551 0)
(0.530215 -0.00165787 0)
(0.53277 -0.00148611 0)
(0.535098 -0.00132008 0)
(0.53722 -0.00115954 0)
(0.539157 -0.00100413 0)
(0.54093 -0.000853349 0)
(0.542559 -0.000706587 0)
(0.544063 -0.000563069 0)
(0.545459 -0.00042186 0)
(0.546766 -0.00028184 0)
(0.547997 -0.000141684 0)
(0.54917 1.48646e-07 0)
(0.550295 0.00014555 0)
(0.551387 0.000296672 0)
(0.552454 0.000456172 0)
(0.553507 0.000627261 0)
(0.554551 0.000813816 0)
(0.555592 0.00102055 0)
(0.556629 0.00125325 0)
(0.557662 0.00151911 0)
(0.558684 0.00182722 0)
(0.559685 0.00218923 0)
(0.560645 0.00262043 0)
(0.561539 0.0031413 0)
(0.562328 0.00378003 0)
(0.562959 0.00457663 0)
(0.563354 0.00558975 0)
(0.563406 0.00690866 0)
(0.562961 0.00867462 0)
(0.561805 0.0111207 0)
(0.559631 0.0146475 0)
(0.556013 0.0199734 0)
(0.550405 0.0284604 0)
(0.54272 0.0427528 0)
(0.540613 0.0676788 0)
(0.100611 -0.00104397 0)
(0.103502 -0.00188198 0)
(0.108006 -0.00261859 0)
(0.113724 -0.00328111 0)
(0.120529 -0.00389433 0)
(0.128305 -0.00447412 0)
(0.136959 -0.00503203 0)
(0.146425 -0.00557641 0)
(0.156649 -0.00611214 0)
(0.167587 -0.00664072 0)
(0.179194 -0.00716041 0)
(0.191423 -0.00766659 0)
(0.204219 -0.00815241 0)
(0.217517 -0.00860966 0)
(0.231241 -0.00902972 0)
(0.245308 -0.00940439 0)
(0.259623 -0.00972665 0)
(0.274092 -0.0099911 0)
(0.288615 -0.0101942 0)
(0.303098 -0.0103345 0)
(0.317449 -0.0104121 0)
(0.331583 -0.0104287 0)
(0.345425 -0.0103875 0)
(0.358907 -0.0102923 0)
(0.371973 -0.0101478 0)
(0.384575 -0.00995908 0)
(0.396676 -0.00973123 0)
(0.408248 -0.00946942 0)
(0.41927 -0.00917866 0)
(0.42973 -0.00886374 0)
(0.439622 -0.00852911 0)
(0.448945 -0.00817888 0)
(0.457704 -0.00781683 0)
(0.465909 -0.00744636 0)
(0.473571 -0.00707049 0)
(0.480708 -0.00669192 0)
(0.487336 -0.00631306 0)
(0.493476 -0.00593598 0)
(0.499148 -0.00556248 0)
(0.504377 -0.0051941 0)
(0.509184 -0.00483216 0)
(0.513594 -0.00447775 0)
(0.51763 -0.00413175 0)
(0.521318 -0.00379482 0)
(0.524681 -0.00346745 0)
(0.527743 -0.00314997 0)
(0.530528 -0.0028425 0)
(0.533059 -0.002545 0)
(0.535358 -0.00225721 0)
(0.537448 -0.0019787 0)
(0.539349 -0.00170884 0)
(0.541082 -0.00144678 0)
(0.542668 -0.00119144 0)
(0.544123 -0.000941491 0)
(0.545467 -0.000695304 0)
(0.546716 -0.00045095 0)
(0.547885 -0.000206149 0)
(0.54899 4.17368e-05 0)
(0.550043 0.00029586 0)
(0.551056 0.000559922 0)
(0.552041 0.000838424 0)
(0.553006 0.00113678 0)
(0.553957 0.00146148 0)
(0.5549 0.0018204 0)
(0.555837 0.00222314 0)
(0.556768 0.00268155 0)
(0.557688 0.00321046 0)
(0.558589 0.00382867 0)
(0.559459 0.00456055 0)
(0.560278 0.00543814 0)
(0.561018 0.00650465 0)
(0.561645 0.00781966 0)
(0.562111 0.00946736 0)
(0.562359 0.0115698 0)
(0.562321 0.0143084 0)
(0.561933 0.0179588 0)
(0.561161 0.0229466 0)
(0.560077 0.0299348 0)
(0.559042 0.0399622 0)
(0.55915 0.0545634 0)
(0.564191 0.0750082 0)
(0.100538 -0.00148242 0)
(0.103376 -0.00270772 0)
(0.107813 -0.00377659 0)
(0.113475 -0.00473848 0)
(0.120233 -0.00562854 0)
(0.127967 -0.00646991 0)
(0.136587 -0.00727959 0)
(0.146024 -0.00806978 0)
(0.156227 -0.0088477 0)
(0.167151 -0.00961559 0)
(0.178752 -0.010371 0)
(0.190985 -0.0111071 0)
(0.203795 -0.011814 0)
(0.217117 -0.0124797 0)
(0.230876 -0.0130915 0)
(0.244987 -0.0136375 0)
(0.259355 -0.0141073 0)
(0.273883 -0.014493 0)
(0.288472 -0.0147895 0)
(0.303024 -0.0149944 0)
(0.317446 -0.0151079 0)
(0.331653 -0.0151328 0)
(0.345566 -0.0150733 0)
(0.359118 -0.0149353 0)
(0.37225 -0.0147255 0)
(0.384916 -0.0144513 0)
(0.397077 -0.0141201 0)
(0.408704 -0.0137395 0)
(0.419776 -0.0133168 0)
(0.430281 -0.0128589 0)
(0.440213 -0.0123724 0)
(0.449572 -0.0118632 0)
(0.458362 -0.0113368 0)
(0.466592 -0.0107982 0)
(0.474276 -0.0102516 0)
(0.481429 -0.00970116 0)
(0.48807 -0.00915019 0)
(0.494217 -0.00860172 0)
(0.499893 -0.00805838 0)
(0.505121 -0.00752239 0)
(0.509923 -0.00699564 0)
(0.514324 -0.00647968 0)
(0.518348 -0.00597574 0)
(0.522019 -0.00548481 0)
(0.525361 -0.00500759 0)
(0.528398 -0.0045445 0)
(0.531153 -0.00409569 0)
(0.53365 -0.00366107 0)
(0.535911 -0.00324026 0)
(0.537958 -0.00283262 0)
(0.539811 -0.00243722 0)
(0.541491 -0.00205282 0)
(0.543019 -0.00167782 0)
(0.544411 -0.00131029 0)
(0.545686 -0.000947881 0)
(0.54686 -0.000587801 0)
(0.547949 -0.000226784 0)
(0.548967 0.000138915 0)
(0.549928 0.000513696 0)
(0.550844 0.000902859 0)
(0.551725 0.00131275 0)
(0.552581 0.00175092 0)
(0.55342 0.0022264 0)
(0.554247 0.00275001 0)
(0.555065 0.00333483 0)
(0.555878 0.00399684 0)
(0.556684 0.00475576 0)
(0.557479 0.00563623 0)
(0.558258 0.00666944 0)
(0.559011 0.0078955 0)
(0.559725 0.00936676 0)
(0.560389 0.0111526 0)
(0.560987 0.013346 0)
(0.561515 0.0160738 0)
(0.561981 0.0195088 0)
(0.562434 0.023887 0)
(0.563001 0.029525 0)
(0.563955 0.0368283 0)
(0.565828 0.0462675 0)
(0.569546 0.0582306 0)
(0.576707 0.0724272 0)
(0.100464 -0.00193053 0)
(0.103242 -0.00357313 0)
(0.107598 -0.00499848 0)
(0.113189 -0.00628273 0)
(0.119884 -0.00747093 0)
(0.127565 -0.008594 0)
(0.13614 -0.0096749 0)
(0.145541 -0.0107302 0)
(0.155717 -0.0117695 0)
(0.166626 -0.0127962 0)
(0.178224 -0.0138069 0)
(0.190469 -0.0147926 0)
(0.203305 -0.0157399 0)
(0.216668 -0.0166327 0)
(0.230484 -0.0174537 0)
(0.244664 -0.0181868 0)
(0.259115 -0.0188179 0)
(0.273736 -0.0193363 0)
(0.288425 -0.019735 0)
(0.303082 -0.0200108 0)
(0.317612 -0.020164 0)
(0.331927 -0.0201981 0)
(0.345946 -0.0201191 0)
(0.359601 -0.0199347 0)
(0.372832 -0.0196541 0)
(0.38559 -0.019287 0)
(0.397836 -0.0188437 0)
(0.409542 -0.0183342 0)
(0.420685 -0.0177684 0)
(0.431254 -0.0171555 0)
(0.441243 -0.0165043 0)
(0.45065 -0.0158228 0)
(0.459482 -0.0151183 0)
(0.467748 -0.0143973 0)
(0.47546 -0.0136658 0)
(0.482635 -0.0129291 0)
(0.489291 -0.0121916 0)
(0.495449 -0.0114574 0)
(0.501129 -0.0107299 0)
(0.506355 -0.0100121 0)
(0.511151 -0.00930646 0)
(0.51554 -0.00861504 0)
(0.519546 -0.00793948 0)
(0.523195 -0.00728104 0)
(0.526509 -0.0066406 0)
(0.529513 -0.00601869 0)
(0.532231 -0.00541549 0)
(0.534685 -0.00483083 0)
(0.536897 -0.00426422 0)
(0.53889 -0.00371475 0)
(0.540684 -0.00318117 0)
(0.5423 -0.00266178 0)
(0.543756 -0.00215447 0)
(0.545072 -0.00165667 0)
(0.546264 -0.00116526 0)
(0.54735 -0.000676595 0)
(0.548344 -0.000186413 0)
(0.549262 0.000310085 0)
(0.550117 0.000818566 0)
(0.550921 0.00134587 0)
(0.551685 0.00190008 0)
(0.552421 0.00249073 0)
(0.553135 0.0031291 0)
(0.553836 0.00382855 0)
(0.55453 0.00460504 0)
(0.555221 0.00547774 0)
(0.555913 0.00646992 0)
(0.556608 0.00760994 0)
(0.557308 0.00893283 0)
(0.558014 0.0104821 0)
(0.558731 0.0123122 0)
(0.559465 0.0144918 0)
(0.560234 0.0171076 0)
(0.561068 0.020268 0)
(0.562028 0.0241074 0)
(0.563216 0.0287864 0)
(0.564806 0.0344848 0)
(0.567074 0.0413774 0)
(0.57043 0.0495743 0)
(0.575427 0.0589971 0)
(0.582715 0.0691433 0)
(0.100389 -0.00238861 0)
(0.103109 -0.00447699 0)
(0.107375 -0.00628415 0)
(0.112882 -0.00791518 0)
(0.119504 -0.00942468 0)
(0.127122 -0.0108515 0)
(0.135644 -0.0122252 0)
(0.145004 -0.013567 0)
(0.155152 -0.0148896 0)
(0.166047 -0.0161973 0)
(0.177651 -0.017486 0)
(0.189919 -0.0187442 0)
(0.202801 -0.0199547 0)
(0.216231 -0.0210965 0)
(0.230135 -0.0221475 0)
(0.244422 -0.0230866 0)
(0.258997 -0.0238955 0)
(0.273755 -0.0245602 0)
(0.288591 -0.0250717 0)
(0.3034 -0.0254258 0)
(0.318085 -0.0256229 0)
(0.332553 -0.0256674 0)
(0.346722 -0.025567 0)
(0.36052 -0.0253319 0)
(0.373886 -0.0249737 0)
(0.38677 -0.0245051 0)
(0.399132 -0.0239391 0)
(0.410943 -0.0232887 0)
(0.422181 -0.0225665 0)
(0.432834 -0.0217844 0)
(0.442895 -0.0209536 0)
(0.452366 -0.0200842 0)
(0.461251 -0.0191856 0)
(0.46956 -0.0182662 0)
(0.477307 -0.0173334 0)
(0.484508 -0.0163938 0)
(0.491182 -0.0154533 0)
(0.49735 -0.014517 0)
(0.503034 -0.0135891 0)
(0.508256 -0.0126733 0)
(0.513041 -0.0117729 0)
(0.517413 -0.0108903 0)
(0.521396 -0.0100276 0)
(0.525014 -0.00918625 0)
(0.528293 -0.00836744 0)
(0.531256 -0.00757176 0)
(0.533925 -0.00679942 0)
(0.536326 -0.00605016 0)
(0.538479 -0.00532328 0)
(0.540406 -0.00461764 0)
(0.542129 -0.0039316 0)
(0.543668 -0.00326303 0)
(0.545041 -0.00260926 0)
(0.546267 -0.00196705 0)
(0.547364 -0.00133254 0)
(0.548348 -0.000701173 0)
(0.549235 -6.78984e-05 0)
(0.55004 0.000573244 0)
(0.550776 0.00122905 0)
(0.551458 0.00190776 0)
(0.552096 0.00261901 0)
(0.552702 0.003374 0)
(0.553286 0.00418582 0)
(0.553857 0.00506974 0)
(0.554424 0.00604371 0)
(0.554995 0.00712888 0)
(0.555577 0.00835027 0)
(0.556181 0.00973757 0)
(0.556814 0.0113262 0)
(0.55749 0.0131583 0)
(0.558224 0.0152842 0)
(0.559042 0.0177635 0)
(0.559979 0.0206658 0)
(0.561087 0.0240705 0)
(0.562446 0.0280641 0)
(0.564167 0.0327336 0)
(0.566408 0.0381522 0)
(0.569376 0.0443539 0)
(0.573327 0.0512928 0)
(0.578541 0.0587843 0)
(0.585244 0.0664368 0)
(0.100313 -0.00285756 0)
(0.102981 -0.00541911 0)
(0.107155 -0.00763442 0)
(0.112571 -0.00963795 0)
(0.119112 -0.0114938 0)
(0.12666 -0.0132486 0)
(0.135125 -0.0149389 0)
(0.144443 -0.0165914 0)
(0.154566 -0.0182221 0)
(0.165456 -0.0198366 0)
(0.177078 -0.02143 0)
(0.189392 -0.022988 0)
(0.202348 -0.0244891 0)
(0.215883 -0.0259067 0)
(0.229918 -0.0272129 0)
(0.244364 -0.0283808 0)
(0.259118 -0.0293873 0)
(0.274073 -0.0302147 0)
(0.289116 -0.0308514 0)
(0.304138 -0.0312922 0)
(0.319036 -0.0315375 0)
(0.333713 -0.031593 0)
(0.348083 -0.0314685 0)
(0.362072 -0.0311766 0)
(0.375617 -0.0307321 0)
(0.388665 -0.0301509 0)
(0.401176 -0.0294492 0)
(0.413121 -0.0286433 0)
(0.424478 -0.0277488 0)
(0.435235 -0.0267806 0)
(0.445387 -0.0257524 0)
(0.454933 -0.0246769 0)
(0.463881 -0.0235655 0)
(0.472241 -0.0224287 0)
(0.480027 -0.0212755 0)
(0.487257 -0.0201142 0)
(0.493949 -0.0189518 0)
(0.500125 -0.0177945 0)
(0.505808 -0.0166475 0)
(0.511021 -0.0155155 0)
(0.515789 -0.0144021 0)
(0.520136 -0.0133104 0)
(0.524087 -0.0122428 0)
(0.527666 -0.0112013 0)
(0.530899 -0.010187 0)
(0.533808 -0.00920076 0)
(0.536419 -0.00824265 0)
(0.538754 -0.00731236 0)
(0.540835 -0.00640899 0)
(0.542684 -0.00553111 0)
(0.544322 -0.00467671 0)
(0.545769 -0.0038432 0)
(0.547045 -0.00302735 0)
(0.548168 -0.00222527 0)
(0.549156 -0.00143231 0)
(0.550026 -0.000643114 0)
(0.550793 0.00014815 0)
(0.551473 0.0009482 0)
(0.552081 0.00176505 0)
(0.55263 0.00260813 0)
(0.553133 0.00348832 0)
(0.553603 0.00441805 0)
(0.554051 0.00541162 0)
(0.554489 0.00648544 0)
(0.554928 0.00765838 0)
(0.55538 0.00895212 0)
(0.555858 0.0103916 0)
(0.556374 0.0120054 0)
(0.556947 0.0138261 0)
(0.557595 0.015891 0)
(0.558346 0.0182417 0)
(0.559231 0.0209237 0)
(0.560297 0.0239859 0)
(0.5616 0.0274772 0)
(0.563218 0.0314419 0)
(0.565246 0.0359121 0)
(0.567801 0.0408955 0)
(0.571016 0.0463591 0)
(0.575028 0.0522092 0)
(0.579955 0.0582716 0)
(0.585837 0.0642841 0)
(0.100235 -0.00333902 0)
(0.102861 -0.00640044 0)
(0.106945 -0.00905122 0)
(0.112268 -0.0114543 0)
(0.118725 -0.0136833 0)
(0.126202 -0.0157926 0)
(0.13461 -0.0178263 0)
(0.143888 -0.0198169 0)
(0.153993 -0.0217843 0)
(0.164893 -0.0237359 0)
(0.176557 -0.0256658 0)
(0.188949 -0.0275568 0)
(0.202021 -0.0293818 0)
(0.215713 -0.031108 0)
(0.229942 -0.0327003 0)
(0.244615 -0.0341249 0)
(0.259623 -0.035353 0)
(0.27485 -0.0363623 0)
(0.290176 -0.0371384 0)
(0.305486 -0.0376748 0)
(0.320668 -0.0379724 0)
(0.33562 -0.0380384 0)
(0.350251 -0.0378849 0)
(0.364485 -0.0375278 0)
(0.378255 -0.0369853 0)
(0.391508 -0.0362771 0)
(0.404204 -0.0354232 0)
(0.416312 -0.0344436 0)
(0.427812 -0.0333573 0)
(0.438692 -0.0321823 0)
(0.448947 -0.0309355 0)
(0.45858 -0.0296321 0)
(0.467598 -0.028286 0)
(0.476013 -0.0269096 0)
(0.48384 -0.025514 0)
(0.491096 -0.0241089 0)
(0.497803 -0.0227027 0)
(0.503983 -0.0213029 0)
(0.509659 -0.0199156 0)
(0.514855 -0.0185463 0)
(0.519596 -0.0171993 0)
(0.523908 -0.0158782 0)
(0.527816 -0.0145859 0)
(0.531344 -0.0133246 0)
(0.534518 -0.0120956 0)
(0.537361 -0.0108997 0)
(0.539899 -0.0097372 0)
(0.542153 -0.0086075 0)
(0.544147 -0.00750953 0)
(0.545903 -0.00644157 0)
(0.547442 -0.00540123 0)
(0.548784 -0.00438546 0)
(0.549948 -0.00339046 0)
(0.550954 -0.0024117 0)
(0.551819 -0.00144386 0)
(0.55256 -0.000480943 0)
(0.553195 0.000483606 0)
(0.553739 0.00145708 0)
(0.554207 0.00244855 0)
(0.554614 0.00346839 0)
(0.554974 0.00452826 0)
(0.555301 0.00564133 0)
(0.555608 0.00682242 0)
(0.555909 0.0080882 0)
(0.556218 0.00945733 0)
(0.55655 0.0109507 0)
(0.556921 0.0125913 0)
(0.557349 0.0144049 0)
(0.557855 0.0164189 0)
(0.558465 0.0186633 0)
(0.559209 0.0211687 0)
(0.560122 0.0239662 0)
(0.56125 0.0270845 0)
(0.562645 0.0305471 0)
(0.56437 0.0343681 0)
(0.566496 0.0385457 0)
(0.569099 0.0430554 0)
(0.572251 0.0478416 0)
(0.576014 0.0528112 0)
(0.580421 0.0578304 0)
(0.585446 0.0627341 0)
(0.100154 -0.00383528 0)
(0.102749 -0.00742308 0)
(0.10675 -0.0105378 0)
(0.111983 -0.0133688 0)
(0.118357 -0.0159998 0)
(0.125765 -0.0184928 0)
(0.13412 -0.0208996 0)
(0.143367 -0.0232596 0)
(0.15347 -0.0255974 0)
(0.164403 -0.0279224 0)
(0.176142 -0.0302278 0)
(0.188659 -0.0324925 0)
(0.20191 -0.0346831 0)
(0.21583 -0.0367586 0)
(0.230337 -0.038675 0)
(0.245327 -0.0403903 0)
(0.260683 -0.0418683 0)
(0.276278 -0.0430817 0)
(0.291981 -0.0440126 0)
(0.307666 -0.0446536 0)
(0.323212 -0.045006 0)
(0.338512 -0.0450791 0)
(0.35347 -0.0448884 0)
(0.368004 -0.0444535 0)
(0.382047 -0.0437969 0)
(0.395545 -0.0429428 0)
(0.408457 -0.0419156 0)
(0.420753 -0.0407393 0)
(0.432415 -0.039437 0)
(0.443433 -0.0380304 0)
(0.453802 -0.0365394 0)
(0.463528 -0.0349822 0)
(0.472618 -0.0333755 0)
(0.481087 -0.0317337 0)
(0.488951 -0.0300699 0)
(0.496229 -0.0283956 0)
(0.502944 -0.0267207 0)
(0.509118 -0.0250536 0)
(0.514777 -0.0234018 0)
(0.519945 -0.0217714 0)
(0.524648 -0.0201674 0)
(0.528912 -0.0185941 0)
(0.532762 -0.0170546 0)
(0.536225 -0.0155514 0)
(0.539325 -0.0140861 0)
(0.542087 -0.0126595 0)
(0.544536 -0.0112717 0)
(0.546695 -0.0099221 0)
(0.548587 -0.00860947 0)
(0.550234 -0.00733175 0)
(0.551657 -0.00608616 0)
(0.552878 -0.0048692 0)
(0.553916 -0.00367655 0)
(0.55479 -0.00250308 0)
(0.555518 -0.00134282 0)
(0.556117 -0.00018971 0)
(0.556607 0.000963449 0)
(0.557003 0.00212483 0)
(0.557322 0.00330418 0)
(0.557577 0.00451236 0)
(0.557786 0.00576139 0)
(0.557962 0.00706456 0)
(0.558122 0.00843652 0)
(0.558281 0.00989333 0)
(0.558454 0.0114525 0)
(0.55866 0.0131328 0)
(0.558916 0.0149544 0)
(0.559245 0.0169384 0)
(0.559669 0.0191065 0)
(0.560215 0.0214801 0)
(0.560913 0.0240795 0)
(0.561798 0.0269224 0)
(0.562908 0.0300218 0)
(0.564286 0.0333834 0)
(0.565978 0.0370026 0)
(0.56803 0.040861 0)
(0.570485 0.044923 0)
(0.573375 0.0491332 0)
(0.576721 0.0534153 0)
(0.580516 0.0576756 0)
(0.584714 0.0618134 0)
(0.100068 -0.00434911 0)
(0.102647 -0.00849026 0)
(0.106576 -0.0120987 0)
(0.111722 -0.0153878 0)
(0.118019 -0.0184519 0)
(0.125364 -0.0213604 0)
(0.133676 -0.0241741 0)
(0.142908 -0.02694 0)
(0.153032 -0.0296884 0)
(0.164033 -0.0324312 0)
(0.1759 -0.0351606 0)
(0.188609 -0.0378505 0)
(0.20212 -0.040459 0)
(0.216368 -0.0429346 0)
(0.231261 -0.0452221 0)
(0.246684 -0.0472687 0)
(0.262505 -0.0490297 0)
(0.278581 -0.0504713 0)
(0.294767 -0.0515724 0)
(0.310925 -0.0523246 0)
(0.326923 -0.0527307 0)
(0.342646 -0.0528031 0)
(0.357993 -0.0525614 0)
(0.372879 -0.0520302 0)
(0.387237 -0.0512374 0)
(0.401011 -0.0502123 0)
(0.414164 -0.0489844 0)
(0.426666 -0.0475828 0)
(0.438501 -0.0460348 0)
(0.449661 -0.0443662 0)
(0.460146 -0.0426004 0)
(0.469962 -0.040759 0)
(0.47912 -0.0388612 0)
(0.487635 -0.036924 0)
(0.495527 -0.0349625 0)
(0.502816 -0.03299 0)
(0.509526 -0.0310177 0)
(0.515682 -0.0290555 0)
(0.521309 -0.0271117 0)
(0.526435 -0.0251935 0)
(0.531084 -0.0233064 0)
(0.535284 -0.0214552 0)
(0.539062 -0.0196435 0)
(0.542443 -0.0178739 0)
(0.545454 -0.0161482 0)
(0.548119 -0.0144673 0)
(0.550463 -0.0128312 0)
(0.552511 -0.0112393 0)
(0.554285 -0.00968993 0)
(0.555808 -0.00818089 0)
(0.557101 -0.00670902 0)
(0.558187 -0.00527041 0)
(0.559084 -0.00386029 0)
(0.559812 -0.00247306 0)
(0.56039 -0.00110233 0)
(0.560837 0.000258269 0)
(0.561171 0.00161587 0)
(0.561409 0.00297961 0)
(0.561567 0.00435962 0)
(0.561663 0.00576687 0)
(0.561712 0.00721324 0)
(0.56173 0.00871161 0)
(0.561735 0.0102758 0)
(0.561743 0.0119206 0)
(0.561772 0.0136615 0)
(0.561842 0.0155146 0)
(0.561971 0.0174963 0)
(0.562182 0.0196227 0)
(0.562498 0.0219094 0)
(0.562944 0.0243702 0)
(0.563549 0.0270165 0)
(0.564342 0.0298558 0)
(0.565353 0.0328901 0)
(0.566614 0.0361145 0)
(0.568154 0.0395154 0)
(0.570001 0.0430687 0)
(0.572173 0.0467394 0)
(0.574683 0.0504806 0)
(0.577526 0.0542358 0)
(0.580681 0.057942 0)
(0.584104 0.0615387 0)
(0.0999771 -0.00488372 0)
(0.102552 -0.00960632 0)
(0.106423 -0.01374 0)
(0.111491 -0.0175193 0)
(0.11772 -0.0210501 0)
(0.125014 -0.02441 0)
(0.133298 -0.0276691 0)
(0.142538 -0.0308842 0)
(0.152719 -0.0340925 0)
(0.163842 -0.037309 0)
(0.175908 -0.0405242 0)
(0.188903 -0.0437048 0)
(0.202789 -0.0467976 0)
(0.217493 -0.0497367 0)
(0.23291 -0.0524519 0)
(0.248907 -0.0548773 0)
(0.265329 -0.0569572 0)
(0.282013 -0.0586511 0)
(0.298797 -0.0599349 0)
(0.315526 -0.0608 0)
(0.332058 -0.0612521 0)
(0.348271 -0.0613083 0)
(0.36406 -0.0609937 0)
(0.379338 -0.0603395 0)
(0.394038 -0.0593801 0)
(0.408108 -0.058151 0)
(0.421511 -0.0566879 0)
(0.434222 -0.0550252 0)
(0.446227 -0.0531954 0)
(0.457524 -0.0512285 0)
(0.468114 -0.049152 0)
(0.478007 -0.0469907 0)
(0.487217 -0.0447668 0)
(0.495762 -0.0424999 0)
(0.503665 -0.0402072 0)
(0.510947 -0.0379035 0)
(0.517635 -0.035602 0)
(0.523754 -0.0333135 0)
(0.529332 -0.0310474 0)
(0.534396 -0.0288116 0)
(0.538974 -0.0266125 0)
(0.543094 -0.0244552 0)
(0.546782 -0.0223437 0)
(0.550065 -0.0202808 0)
(0.55297 -0.0182684 0)
(0.555522 -0.0163075 0)
(0.557747 -0.0143981 0)
(0.559669 -0.0125392 0)
(0.561311 -0.0107293 0)
(0.562696 -0.00896564 0)
(0.563846 -0.00724489 0)
(0.564783 -0.00556278 0)
(0.565527 -0.0039142 0)
(0.566099 -0.00229318 0)
(0.566516 -0.000693554 0)
(0.566802 0.000891665 0)
(0.566971 0.00246994 0)
(0.567043 0.00405064 0)
(0.567034 0.00564389 0)
(0.566962 0.00726039 0)
(0.566845 0.0089115 0)
(0.566699 0.0106092 0)
(0.566541 0.0123661 0)
(0.566391 0.014195 0)
(0.566265 0.0161091 0)
(0.566185 0.0181214 0)
(0.566169 0.0202444 0)
(0.566239 0.0224895 0)
(0.566416 0.0248668 0)
(0.566724 0.0273841 0)
(0.567186 0.0300458 0)
(0.567825 0.0328528 0)
(0.568664 0.0358007 0)
(0.569723 0.0388796 0)
(0.57102 0.042073 0)
(0.572569 0.0453575 0)
(0.574375 0.0487033 0)
(0.576436 0.0520744 0)
(0.578739 0.0554309 0)
(0.581262 0.0587314 0)
(0.583964 0.0619403 0)
(0.099878 -0.00544267 0)
(0.102464 -0.0107767 0)
(0.106292 -0.0154694 0)
(0.111295 -0.0197736 0)
(0.117468 -0.0238081 0)
(0.124726 -0.0276596 0)
(0.133007 -0.0314098 0)
(0.142289 -0.0351269 0)
(0.15258 -0.0388572 0)
(0.163901 -0.0426192 0)
(0.176269 -0.0464001 0)
(0.189679 -0.0501558 0)
(0.204088 -0.0538164 0)
(0.219411 -0.0572964 0)
(0.235519 -0.0605057 0)
(0.25225 -0.0633615 0)
(0.269422 -0.0657962 0)
(0.286845 -0.0677623 0)
(0.304336 -0.0692337 0)
(0.321723 -0.070204 0)
(0.338858 -0.0706839 0)
(0.355609 -0.0706971 0)
(0.371871 -0.0702768 0)
(0.387559 -0.0694622 0)
(0.402607 -0.0682957 0)
(0.416968 -0.0668204 0)
(0.43061 -0.065079 0)
(0.443513 -0.0631119 0)
(0.455669 -0.060957 0)
(0.467079 -0.0586494 0)
(0.477749 -0.0562206 0)
(0.487693 -0.0536988 0)
(0.496929 -0.0511094 0)
(0.505478 -0.0484744 0)
(0.513365 -0.0458132 0)
(0.520616 -0.0431424 0)
(0.527256 -0.0404765 0)
(0.533316 -0.0378276 0)
(0.538822 -0.0352062 0)
(0.543805 -0.0326208 0)
(0.548292 -0.0300783 0)
(0.552312 -0.0275844 0)
(0.555892 -0.0251433 0)
(0.559061 -0.0227581 0)
(0.561845 -0.0204308 0)
(0.56427 -0.0181623 0)
(0.566362 -0.0159526 0)
(0.568145 -0.0138006 0)
(0.569643 -0.0117046 0)
(0.57088 -0.00966158 0)
(0.571878 -0.00766807 0)
(0.572658 -0.00571952 0)
(0.573242 -0.00381051 0)
(0.573649 -0.00193485 0)
(0.573901 -8.69399e-05 0)
(0.574019 0.00174028 0)
(0.574019 0.00355517 0)
(0.57392 0.00536713 0)
(0.573741 0.00718587 0)
(0.573498 0.00902145 0)
(0.57321 0.0108843 0)
(0.572894 0.0127853 0)
(0.572568 0.0147353 0)
(0.572251 0.0167452 0)
(0.57196 0.0188255 0)
(0.571716 0.0209861 0)
(0.571537 0.0232362 0)
(0.571441 0.025583 0)
(0.57145 0.0280325 0)
(0.571582 0.0305877 0)
(0.571855 0.0332489 0)
(0.572287 0.0360131 0)
(0.572894 0.0388729 0)
(0.573689 0.0418172 0)
(0.574679 0.0448302 0)
(0.575871 0.0478922 0)
(0.577261 0.0509796 0)
(0.578843 0.0540666 0)
(0.580602 0.0571257 0)
(0.582514 0.0601304 0)
(0.584549 0.0630603 0)
(0.0997691 -0.00602993 0)
(0.102383 -0.0120083 0)
(0.106184 -0.0172962 0)
(0.111136 -0.0221635 0)
(0.11727 -0.0267431 0)
(0.124516 -0.0311329 0)
(0.132826 -0.0354292 0)
(0.142203 -0.0397151 0)
(0.15268 -0.0440479 0)
(0.164307 -0.0484497 0)
(0.177117 -0.0529005 0)
(0.191111 -0.057339 0)
(0.206234 -0.0616708 0)
(0.222371 -0.0657823 0)
(0.239359 -0.0695583 0)
(0.256996 -0.0728958 0)
(0.275063 -0.0757148 0)
(0.293342 -0.0779622 0)
(0.311627 -0.0796128 0)
(0.329735 -0.0806656 0)
(0.347508 -0.0811396 0)
(0.364813 -0.0810684 0)
(0.381548 -0.0804955 0)
(0.397631 -0.0794704 0)
(0.413004 -0.078045 0)
(0.427625 -0.0762711 0)
(0.44147 -0.0741992 0)
(0.454526 -0.0718764 0)
(0.466791 -0.0693467 0)
(0.478271 -0.06665 0)
(0.48898 -0.063822 0)
(0.498935 -0.0608948 0)
(0.508158 -0.0578965 0)
(0.516674 -0.0548516 0)
(0.524511 -0.0517816 0)
(0.531696 -0.0487049 0)
(0.53826 -0.0456372 0)
(0.544231 -0.0425918 0)
(0.54964 -0.03958 0)
(0.554517 -0.0366109 0)
(0.558892 -0.0336921 0)
(0.562793 -0.0308295 0)
(0.566249 -0.0280276 0)
(0.569288 -0.0252897 0)
(0.571937 -0.0226178 0)
(0.574223 -0.0200128 0)
(0.576172 -0.0174745 0)
(0.577807 -0.015002 0)
(0.579155 -0.0125933 0)
(0.580237 -0.0102453 0)
(0.581077 -0.00795431 0)
(0.581697 -0.00571572 0)
(0.582119 -0.00352409 0)
(0.582361 -0.00137343 0)
(0.58245 0.000742518 0)
(0.5824 0.00283013 0)
(0.582231 0.00489835 0)
(0.581962 0.00695628 0)
(0.581611 0.00901297 0)
(0.581197 0.0110777 0)
(0.580738 0.0131597 0)
(0.580251 0.0152685 0)
(0.579753 0.0174132 0)
(0.579264 0.0196027 0)
(0.578801 0.0218451 0)
(0.578381 0.0241477 0)
(0.578022 0.0265165 0)
(0.577741 0.028956 0)
(0.577556 0.0314689 0)
(0.57748 0.0340556 0)
(0.577529 0.0367139 0)
(0.577715 0.0394391 0)
(0.578049 0.0422235 0)
(0.578536 0.0450566 0)
(0.579181 0.0479252 0)
(0.579984 0.0508138 0)
(0.580939 0.0537052 0)
(0.582037 0.0565812 0)
(0.583263 0.0594238 0)
(0.584599 0.0622163 0)
(0.58602 0.0649474 0)
(0.0996484 -0.00664997 0)
(0.102307 -0.0133092 0)
(0.106102 -0.0192321 0)
(0.111019 -0.024705 0)
(0.117135 -0.029877 0)
(0.124401 -0.0348612 0)
(0.132789 -0.0397727 0)
(0.142334 -0.0447143 0)
(0.153108 -0.0497568 0)
(0.16519 -0.0549231 0)
(0.178632 -0.0601792 0)
(0.193426 -0.0654354 0)
(0.209488 -0.0705603 0)
(0.226658 -0.0754032 0)
(0.24472 -0.0798174 0)
(0.263423 -0.0836784 0)
(0.282508 -0.0868953 0)
(0.301726 -0.0894139 0)
(0.320855 -0.0912146 0)
(0.339701 -0.0923067 0)
(0.358104 -0.0927217 0)
(0.375938 -0.0925067 0)
(0.393104 -0.0917185 0)
(0.409531 -0.0904187 0)
(0.425169 -0.0886705 0)
(0.439988 -0.0865354 0)
(0.453972 -0.0840722 0)
(0.467116 -0.0813353 0)
(0.479427 -0.0783748 0)
(0.490917 -0.0752355 0)
(0.501606 -0.0719576 0)
(0.511516 -0.0685764 0)
(0.520675 -0.0651229 0)
(0.529111 -0.0616241 0)
(0.536853 -0.0581032 0)
(0.543934 -0.0545802 0)
(0.550384 -0.0510719 0)
(0.556234 -0.0475927 0)
(0.561517 -0.0441545 0)
(0.566263 -0.0407669 0)
(0.570503 -0.0374381 0)
(0.574266 -0.034174 0)
(0.577581 -0.0309795 0)
(0.580476 -0.0278578 0)
(0.58298 -0.024811 0)
(0.585118 -0.02184 0)
(0.586917 -0.0189447 0)
(0.588401 -0.0161238 0)
(0.589594 -0.0133754 0)
(0.590522 -0.0106964 0)
(0.591205 -0.00808305 0)
(0.591667 -0.00553056 0)
(0.591928 -0.00303361 0)
(0.592009 -0.000587528 0)
(0.591939 0.00181498 0)
(0.591727 0.00418117 0)
(0.591395 0.00651953 0)
(0.590963 0.00883834 0)
(0.590449 0.0111459 0)
(0.58987 0.0134503 0)
(0.589245 0.0157599 0)
(0.58859 0.0180826 0)
(0.587923 0.0204259 0)
(0.587262 0.0227967 0)
(0.586623 0.0252013 0)
(0.586021 0.0276448 0)
(0.585473 0.030131 0)
(0.584994 0.0326623 0)
(0.584597 0.0352397 0)
(0.584295 0.0378619 0)
(0.584097 0.040526 0)
(0.584014 0.0432271 0)
(0.58405 0.0459583 0)
(0.58421 0.048711 0)
(0.584494 0.051475 0)
(0.584899 0.0542389 0)
(0.58542 0.0569907 0)
(0.586047 0.0597183 0)
(0.586768 0.0624102 0)
(0.587568 0.065056 0)
(0.588429 0.0676505 0)
(0.0995132 -0.0073079 0)
(0.102235 -0.0146894 0)
(0.106045 -0.0212916 0)
(0.110949 -0.0274186 0)
(0.117077 -0.0332391 0)
(0.124406 -0.0388873 0)
(0.132941 -0.0445043 0)
(0.142762 -0.0502183 0)
(0.153987 -0.0561145 0)
(0.166729 -0.0622104 0)
(0.181044 -0.0684436 0)
(0.196896 -0.0746786 0)
(0.214147 -0.0807315 0)
(0.23257 -0.0864038 0)
(0.251881 -0.0915138 0)
(0.271774 -0.0959177 0)
(0.29195 -0.0995195 0)
(0.312137 -0.102271 0)
(0.3321 -0.104165 0)
(0.351645 -0.105227 0)
(0.370618 -0.105508 0)
(0.388903 -0.10507 0)
(0.406415 -0.103987 0)
(0.423094 -0.102335 0)
(0.438904 -0.100189 0)
(0.453827 -0.0976204 0)
(0.467857 -0.0946977 0)
(0.481001 -0.0914824 0)
(0.493273 -0.0880304 0)
(0.504694 -0.0843917 0)
(0.515289 -0.0806102 0)
(0.525087 -0.0767246 0)
(0.534119 -0.0727685 0)
(0.542417 -0.0687708 0)
(0.550014 -0.0647564 0)
(0.556943 -0.0607466 0)
(0.563238 -0.0567591 0)
(0.568932 -0.0528089 0)
(0.574057 -0.0489086 0)
(0.578645 -0.0450683 0)
(0.582727 -0.041296 0)
(0.586333 -0.0375983 0)
(0.589492 -0.0339797 0)
(0.592232 -0.0304438 0)
(0.594581 -0.0269924 0)
(0.596566 -0.0236266 0)
(0.598212 -0.0203461 0)
(0.599544 -0.0171497 0)
(0.600587 -0.0140353 0)
(0.601363 -0.011 0)
(0.601896 -0.00804 0)
(0.602209 -0.0051508 0)
(0.602321 -0.00232726 0)
(0.602259 0.000435938 0)
(0.602037 0.00314483 0)
(0.601675 0.00580779 0)
(0.601193 0.0084328 0)
(0.60061 0.0110273 0)
(0.599943 0.0135987 0)
(0.599211 0.0161542 0)
(0.598429 0.0187008 0)
(0.597616 0.0212452 0)
(0.596788 0.0237935 0)
(0.59596 0.026351 0)
(0.595148 0.0289224 0)
(0.594366 0.0315113 0)
(0.593628 0.0341201 0)
(0.592947 0.03675 0)
(0.592333 0.0394009 0)
(0.591796 0.0420713 0)
(0.591345 0.0447584 0)
(0.590985 0.0474579 0)
(0.590719 0.0501644 0)
(0.590551 0.0528714 0)
(0.590477 0.0555716 0)
(0.590496 0.0582574 0)
(0.590602 0.0609207 0)
(0.590787 0.0635538 0)
(0.59104 0.0661497 0)
(0.591351 0.0687025 0)
(0.591706 0.0712107 0)
(0.0993606 -0.0080097 0)
(0.102167 -0.016161 0)
(0.106018 -0.0234931 0)
(0.110936 -0.0303309 0)
(0.117112 -0.036869 0)
(0.124567 -0.0432713 0)
(0.13335 -0.0497156 0)
(0.143599 -0.0563616 0)
(0.155488 -0.0633057 0)
(0.169153 -0.0705445 0)