/*--------------------------------*- C++ -*----------------------------------*\
  =========                 |
  \\      /  F ield         | OpenFOAM: The Open Source CFD Toolbox
   \\    /   O peration     | Website:  https://openfoam.org
    \\  /    A nd           | Version:  7
     \\/     M anipulation  |
\*---------------------------------------------------------------------------*/
FoamFile
{
    version     2.0;
    format      ascii;
    class       volScalarField;
    location    "0.4";
    object      p;
}
// * * * * * * * * * * * * * * * * * * * * * * * * * * * * * * * * * * * * * //

dimensions      [0 2 -2 0 0 0 0];

internalField   nonuniform List<scalar> 
2790
(
77.1018
77.0075
77.2708
77.836
78.6087
79.5576
80.6806
81.9775
83.4444
85.076
86.867
88.8111
90.9002
93.1234
95.466
97.9089
100.427
102.989
105.557
108.083
110.517
112.8
114.876
116.692
118.207
119.4
120.276
120.867
121.215
121.404
76.8996
76.9156
77.204
77.7662
78.5351
79.4808
80.5994
81.8903
83.3498
84.9731
86.7548
88.6888
90.7672
92.9794
95.3113
97.7443
100.254
102.811
105.377
107.907
110.351
112.652
114.753
116.602
118.157
119.397
120.327
120.982
121.411
121.689
76.7019
76.7879
77.0953
77.6474
78.4033
79.3364
80.4402
81.713
83.1514
84.7504
86.5047
88.408
90.4524
92.6276
94.9201
97.3122
99.7813
102.299
104.832
107.337
109.769
112.077
114.209
116.115
117.758
119.115
120.185
120.988
121.546
121.925
76.4785
76.5953
76.9154
77.4589
78.2002
79.117
80.2012
81.4502
82.8602
84.4262
86.1426
88.003
89.9994
92.1216
94.3566
96.6876
99.0939
101.55
104.024
106.482
108.881
111.179
113.331
115.295
117.036
118.532
119.771
120.755
121.475
121.993
76.2198
76.3507
76.6792
77.2152
77.9401
78.836
79.8947
81.1126
82.4859
84.0092
85.6769
87.4822
89.4171
91.4715
93.6327
95.8851
98.2096
100.583
102.979
105.366
107.712
109.979
112.132
114.137
115.963
117.585
118.984
120.141
121.015
121.671
75.9215
76.0581
76.3889
76.9151
77.6202
78.4901
79.5174
80.6978
82.0268
83.499
85.1084
86.848
88.7095
90.6829
92.756
94.914
97.1394
99.412
101.708
104.003
106.27
108.479
110.603
112.616
114.491
116.204
117.726
119.025
120.026
120.804
75.582
75.7196
76.0474
76.5605
77.2429
78.0828
79.0735
80.2102
81.4879
82.9009
84.4429
86.1065
87.8832
89.7631
91.7341
93.7823
95.8916
98.044
100.219
102.397
104.555
106.672
108.727
110.702
112.576
114.325
115.918
117.313
118.406
119.288
75.2009
75.3365
75.6571
76.154
76.8105
77.6164
78.5656
79.6528
80.8726
82.2189
83.6848
85.2627
86.9438
88.718
90.5734
92.4965
94.4723
96.4843
98.5151
100.547
102.563
104.546
106.483
108.361
110.166
111.881
113.476
114.91
116.054
117.026
74.7788
74.9105
75.2206
75.6979
76.3256
77.0938
77.9969
79.0292
80.185
81.4574
82.8393
84.3226
85.8979
87.5547
89.2812
91.064
92.8884
94.7388
96.5991
98.4536
100.288
102.089
103.847
105.555
107.207
108.795
110.299
111.693
112.835
113.885
74.3168
74.4432
74.7401
75.1952
75.7909
76.5181
77.3708
78.3435
79.4295
80.6218
81.9124
83.2926
84.7527
86.2813
87.8663
89.4937
91.1487
92.8155
94.4781
96.1208
97.7291
99.2914
100.799
102.248
103.64
104.977
106.258
107.489
108.543
109.649
73.8165
73.9366
74.2182
74.6484
75.2096
75.8925
76.6912
77.5999
78.6112
79.7176
80.9104
82.1802
83.5163
84.9068
86.3384
87.7963
89.2645
90.726
92.1631
93.5581
94.8939
96.1555
97.3312
98.4149
99.4082
100.324
101.186
102.051
102.847
103.955
73.2798
73.3928
73.6574
74.0605
74.5847
75.2206
75.9621
76.8029
77.7353
78.7508
79.8401
80.993
82.1977
83.4412
84.7089
85.9845
87.2499
88.4858
89.6709
90.783
91.7989
92.6956
93.451
94.0469
94.4737
94.7399
94.8824
95.0243
95.209
96.1485
72.7089
72.8141
73.0603
73.4344
73.9196
74.5061
75.1877
75.9574
76.8072
77.7277
78.7089
79.7394
80.8065
81.8956
82.9906
84.0729
85.122
86.1144
87.0241
87.8219
88.4746
88.9453
89.1926
89.1718
88.8387
88.1623
87.1457
85.9359
84.7279
84.9403
72.106
72.203
72.4296
72.7734
73.2177
73.7529
74.3723
75.0685
75.8327
76.655
77.5244
78.4284
79.353
80.2822
81.1976
82.0784
82.9004
83.6358
84.2521
84.7108
84.9658
84.9605
84.6248
83.87
82.5847
80.6347
77.8715
74.2618
69.9096
67.4024
71.4737
71.5621
71.7684
72.0805
72.4826
72.9649
73.5203
74.141
74.8176
75.5393
76.2942
77.0688
77.8477
78.6131
79.3446
80.0185
80.6069
81.0769
81.3886
81.4935
81.3303
80.8195
79.8553
78.2909
75.9155
72.4153
67.2947
59.8225
48.6322
35.2622
-62.1192
-62.9935
-64.6701
-67.3028
-70.9444
-75.5934
-81.1969
-87.6494
-94.7878
-102.386
-110.152
-117.723
-124.673
-130.527
-134.79
-136.974
-136.645
-133.475
-127.298
-118.192
-106.482
-92.6914
-77.4944
-61.6628
-46.004
-31.3132
-18.4041
-8.22203
-1.56262
4.04369
-62.0438
-63.0319
-64.7742
-67.4719
-71.1803
-75.9015
-81.5844
-88.124
-95.3575
-103.059
-110.932
-118.613
-125.67
-131.623
-135.969
-138.219
-137.942
-134.803
-128.63
-119.522
-107.81
-94.0165
-78.8135
-62.9719
-47.3019
-32.6099
-19.7134
-9.50722
-2.65005
2.82192
-62.8007
-63.9681
-65.8536
-68.6801
-72.4924
-77.2997
-83.0585
-89.6714
-96.9821
-104.769
-112.74
-120.528
-127.697
-133.756
-138.193
-140.505
-140.252
-137.108
-130.887
-121.712
-109.928
-96.0619
-80.7888
-64.8832
-49.1624
-34.4471
-21.5509
-11.2749
-4.07859
1.64891
-64.4805
-65.7603
-67.7441
-70.6785
-74.5851
-79.4762
-85.3149
-92.0121
-99.4192
-107.32
-115.425
-123.364
-130.694
-136.91
-141.48
-143.885
-143.671
-140.506
-134.204
-124.916
-113.005
-99.0037
-83.5915
-67.5494
-51.7038
-36.8892
-23.905
-13.4253
-5.72728
0.572229
-66.9288
-68.235
-70.2535
-73.2563
-77.2357
-82.2031
-88.1242
-94.9162
-102.437
-110.477
-118.747
-126.874
-134.404
-140.817
-145.555
-148.072
-147.888
-144.696
-138.285
-128.853
-116.781
-102.607
-87.0115
-70.7826
-54.7553
-39.7717
-26.6033
-15.7698
-7.44846
-0.383951
-69.8878
-71.1675
-73.1817
-76.2205
-80.2513
-85.2865
-91.2929
-98.1928
-105.85
-114.06
-122.534
-130.895
-138.675
-145.331
-150.276
-152.923
-152.757
-149.512
-142.958
-133.35
-121.087
-106.711
-90.8951
-74.4347
-58.1717
-42.9493
-29.4944
-18.1528
-9.12319
-1.22877
-73.0609
-74.288
-76.2813
-79.3376
-83.4065
-88.5055
-94.6028
-101.625
-109.441
-117.85
-126.562
-135.194
-143.264
-150.203
-155.385
-158.176
-158.047
-154.687
-147.964
-138.162
-125.699
-111.11
-95.0544
-78.3343
-61.7952
-46.2734
-32.4314
-20.4735
-10.6629
-1.97418
-76.1434
-77.3096
-79.2814
-82.3506
-86.4556
-91.6221
-97.8197
-104.979
-112.974
-121.603
-130.58
-139.512
-147.904
-155.158
-160.601
-163.54
-163.406
-159.929
-153.022
-143.025
-130.372
-115.58
-99.2879
-82.3009
-65.4642
-49.5924
-35.2556
-22.6479
-12.0795
-2.62407
-78.8489
-79.9599
-81.9211
-85.0096
-89.1583
-94.4023
-100.712
-108.021
-116.206
-125.071
-134.325
-143.572
-152.302
-159.891
-165.609
-168.693
-168.536
-164.931
-157.836
-147.661
-134.848
-119.892
-103.393
-86.1537
-69.0191
-52.7508
-37.8627
-24.628
-13.3702
-3.19538
-80.9351
-82.0066
-83.9746
-87.0956
-91.3014
-96.6357
-103.067
-110.533
-118.911
-128.007
-137.533
-147.087
-156.149
-164.071
-170.068
-173.29
-173.113
-169.378
-162.11
-151.794
-138.876
-123.819
-107.185
-89.7281
-72.31
-55.6093
-40.191
-26.414
-14.5042
-3.70179
-82.2263
-83.2766
-85.2704
-88.4393
-92.7172
-98.1542
-104.714
-112.333
-120.891
-130.194
-139.961
-149.784
-159.142
-167.369
-173.633
-176.989
-176.804
-172.954
-165.571
-155.188
-142.249
-127.172
-110.498
-92.8911
-75.1746
-58.0868
-42.2119
-27.9537
-15.4635
-4.15466
-82.6281
-83.6713
-85.717
-88.9487
-93.317
-98.8677
-105.553
-113.304
-122.001
-131.448
-141.403
-151.419
-160.991
-169.445
-175.917
-179.388
-179.232
-175.34
-167.988
-157.686
-144.844
-129.832
-113.155
-95.4531
-77.4995
-60.0944
-43.8598
-29.2091
-16.2397
-4.56255
-82.1029
-83.1797
-85.288
-88.5924
-93.0773
-98.7613
-105.574
-113.438
-122.235
-131.782
-141.816
-151.931
-161.613
-170.19
-176.784
-180.355
-180.28
-176.452
-169.228
-159.118
-146.467
-131.603
-114.98
-97.2345
-79.1594
-61.5625
-45.0869
-30.1561
-16.8307
-4.93141
-80.6863
-81.8922
-84.035
-87.4113
-92.0537
-97.8986
-104.84
-112.791
-121.637
-131.199
-141.216
-151.306
-160.962
-169.522
-176.111
-179.711
-179.721
-176.047
-169.068
-159.266
-146.923
-132.306
-115.842
-98.1729
-80.1036
-62.4499
-45.8666
-30.7845
-17.2404
-5.26476
-78.4354
-80.0908
-82.0453
-85.5038
-90.3925
-96.4361
-103.498
-111.5
-120.333
-129.824
-139.721
-149.654
-159.131
-167.503
-173.922
-177.449
-177.543
-174.127
-167.538
-158.167
-146.225
-131.94
-115.729
-98.248
-80.3133
-62.7429
-46.1934
-31.0974
-17.4775
-5.56293
70.802
70.8813
71.0662
71.3453
71.7034
72.1307
72.6198
73.1624
73.7483
74.3661
75.0031
75.6444
76.2733
76.8704
77.4129
77.8742
78.2226
78.4199
78.4191
78.1613
77.5699
76.5429
74.9384
72.5499
69.0594
63.9402
56.2142
43.8274
20.3394
-43.9086
70.0832
70.1529
70.3154
70.5597
70.8718
71.2418
71.662
72.1233
72.6153
73.1258
73.6409
74.1449
74.6196
75.0438
75.3927
75.6369
75.7411
75.6623
75.347
74.7274
73.7148
72.1897
69.9848
66.8561
62.4278
56.0858
46.7471
32.5853
12.2375
-17.1526
69.3227
69.3825
69.5216
69.7301
69.9946
70.3056
70.6549
71.0331
71.4291
71.8299
72.221
72.5857
72.9043
73.1544
73.309
73.3365
73.1985
72.8485
72.2282
71.2641
69.8607
67.8912
65.1831
61.4961
56.4907
49.696
40.5103
28.302
13.7608
-2.80417
68.5219
68.5716
68.6868
68.8584
69.0744
69.3252
69.6024
69.8962
70.1949
70.4851
70.7516
70.9766
71.1397
71.2168
71.1799
70.9955
70.6232
70.0144
69.1086
67.8304
66.0843
63.7473
60.6606
56.6194
51.3668
44.6025
36.029
25.321
12.4378
-3.06077
67.6828
67.7221
67.8129
67.9472
68.1138
68.3038
68.5084
68.7172
68.9185
69.0984
69.2409
69.3278
69.3378
69.2462
69.0239
68.6366
68.0432
67.1946
66.0308
64.4785
62.4477
59.8272
56.4809
52.2456
46.932
40.3315
32.234
22.3825
10.5834
-2.98291
66.8075
66.8364
66.9026
66.9992
67.1164
67.2454
67.3773
67.5016
67.6063
67.6771
67.6979
67.6499
67.5116
67.2578
66.8594
66.2819
65.4849
64.4205
63.0316
61.2502
58.9951
56.1707
52.6652
48.3517
43.091
36.7367
29.1523
20.2195
9.90596
-1.39133
65.8989
65.9173
65.9589
66.0179
66.0858
66.1542
66.2142
66.2552
66.265
66.2294
66.132
65.9541
65.6741
65.2672
64.7045
63.9526
62.9729
61.7201
60.1418
58.1771
55.756
52.7992
49.2184
44.9189
39.8037
33.7818
26.7844
18.7817
9.79434
0.136518
64.9601
64.9681
64.9854
65.0072
65.0264
65.0352
65.0247
64.9844
64.9021
64.7637
64.5531
64.2517
63.8386
63.2894
62.5765
61.6684
60.5288
59.1167
57.3852
55.2819
52.7485
49.7217
46.1346
41.9201
37.0153
31.3694
24.953
17.7689
9.8438
1.43002
63.9948
63.9926
63.986
63.9713
63.9429
63.8937
63.8148
63.6959
63.5252
63.2888
62.9711
62.5542
62.0178
61.3389
60.4916
59.4466
58.1712
56.6289
54.7795
52.579
49.9807
46.9359
43.3962
39.3162
34.6582
29.3966
23.5242
17.0588
10.0344
2.66439
63.007
62.9949
62.965
62.9149
62.8405
62.7353
62.5907
62.3969
62.1422
61.8136
61.3961
60.8725
60.2239
59.4289
58.4637
57.302
55.9148
54.2708
52.3362
50.0756
47.4527
44.4315
40.9787
37.0657
32.672
27.7888
22.4225
16.599
10.3561
3.86923
62.0014
61.9797
61.9275
61.8433
61.7248
61.566
61.3591
61.0944
60.7612
60.3469
59.8375
59.2171
58.4682
57.5714
56.5053
55.2468
53.771
52.0518
50.0616
47.7729
45.1585
42.1933
38.8554
35.1289
31.0054
26.4868
21.5873
16.3358
10.769
5.02901
60.9829
60.9521
60.8785
60.7619
60.6015
60.3923
60.1267
59.796
59.39
58.8971
58.3045
57.5977
56.7608
55.7766
54.6264
53.2904
51.7479
49.9774
47.9576
45.6677
43.0883
40.2028
36.9986
33.4685
29.6126
25.4391
20.9661
16.2222
11.2414
6.13903
59.9568
59.9174
59.8236
59.6766
59.4769
59.2205
58.9005
58.509
58.0365
57.4727
56.8059
56.0232
55.1107
54.0533
52.8352
51.4398
49.8503
48.05
46.0226
43.7533
41.2292
38.4403
35.381
32.0502
28.4532
24.6021
20.5163
16.2227
11.7521
7.19813
58.9289
58.8813
58.7688
58.5933
58.3572
58.0573
57.6875
57.2406
56.7083
56.0813
55.3495
54.5016
53.5255
52.4086
51.1377
49.6995
48.0808
46.2689
44.2522
42.0207
39.5668
36.8857
33.9764
30.8424
27.4921
23.9394
20.2035
16.3094
12.2843
8.20418
57.9051
57.8501
57.7202
57.5186
57.249
56.9094
56.4946
55.998
55.4126
54.7304
53.9427
53.0399
52.0119
50.8482
49.5385
48.0723
46.4396
44.6314
42.64
40.4595
38.086
35.5189
32.7605
29.8171
26.6989
23.4203
19.9998
16.4598
12.8242
9.15503
56.8918
56.83
56.6842
56.4589
56.1591
55.7838
55.3287
54.7882
54.1565
53.4269
52.592
51.6441
50.5749
49.3764
48.0402
46.5588
44.9251
43.1332
41.1785
39.0581
36.7717
34.321
31.7109
28.9493
26.0472
23.0189
19.8816
16.6553
13.361
10.049
55.8956
55.8276
55.6676
55.4209
55.094
54.687
54.1965
53.6179
52.9465
52.1768
51.3032
50.3194
49.2191
47.996
46.6444
45.1588
43.5347
41.7688
39.859
37.8051
35.6089
33.2741
30.8072
28.2169
25.5144
22.7134
19.8298
16.8811
13.8858
10.8847
54.9233
54.8497
54.677
54.4114
54.0607
53.626
53.1048
52.4935
51.7887
50.9861
50.0815
49.0701
47.9475
46.7092
45.3514
43.8706
42.2645
40.5319
38.6729
36.689
34.5836
32.3619
30.0312
27.6006
25.0811
22.4856
19.8284
17.125
14.3916
11.6615
53.9818
53.9034
53.7195
53.4373
53.0658
52.6073
52.0599
51.4213
50.6889
49.8599
48.9313
47.9
46.7628
45.5171
44.1607
42.692
41.1103
39.4162
37.6113
35.6986
33.6826
31.5694
29.3667
27.0836
24.7307
22.32
19.8642
17.3772
14.8729
12.3787
53.0783
52.9957
52.8021
52.5056
52.1163
51.6375
51.0683
50.4071
49.6526
48.8031
47.8569
46.812
45.6669
44.4203
43.0714
41.6202
40.0675
38.415
36.6657
34.8236
32.8939
30.8833
28.7994
26.6514
24.4492
22.2037
19.9265
17.6298
15.3256
13.0365
52.2201
52.1339
51.932
51.6233
51.219
50.7232
50.136
49.4568
48.685
47.8202
46.8617
45.8088
44.6612
43.4188
42.0821
40.6524
39.1314
37.5221
35.8282
34.0544
32.2066
30.2916
28.317
26.2916
24.2246
22.126
20.0063
17.8762
15.7463
13.635
51.4147
51.3254
51.1164
50.7974
50.3805
49.8708
49.2691
48.5757
47.791
46.9153
45.9491
44.8928
43.7469
42.5127
41.1915
39.7856
38.2977
36.7315
35.0914
33.3827
31.6113
29.7842
27.9088
25.9935
24.0469
22.0781
20.0965
18.1116
16.1326
14.1749
50.6697
50.5777
50.3628
50.035
49.6077
49.0868
48.4737
47.7695
46.9753
46.0925
45.1222
44.0659
42.9251
41.7016
40.3979
39.0169
37.5622
36.0378
34.4488
32.8006
31.0993
29.3519
27.5655
25.748
23.9075
22.0523
20.1908
18.3314
16.4825
14.6565
49.9931
49.8987
49.6785
49.3433
48.9074
48.3775
47.7556
47.0434
46.2428
45.3558
44.3845
43.3308
42.1972
40.9861
39.7008
38.3447
36.9219
35.4371
33.8953
32.3023
30.6642
28.9878
27.2801
25.5484
23.8003
22.0433
20.2852
18.5334
16.7953
15.0815
49.393
49.2964
49.0712
48.7294
48.2864
47.7492
47.1206
46.4027
45.5979
44.7089
43.7383
42.6889
41.5636
40.3655
39.0983
37.766
36.373
34.9242
33.425
31.8811
30.2988
28.6845
27.0449
25.3871
23.718
22.0447
20.3741
18.7131
17.0681
15.4481
48.8779
48.7789
48.5487
48.2007
47.7516
47.209
46.5756
45.8539
45.0467
44.1574
43.1891
42.145
41.0284
39.843
38.5928
37.2822
35.9159
34.499
33.037
31.5357
30.0012
28.4397
26.8578
25.2621
23.6591
22.0555
20.4576
18.8717
17.3037
15.7612
48.4576
48.3552
48.1182
47.7633
47.3086
46.7612
46.124
45.3994
44.5909
43.7021
42.7366
41.6978
40.5895
39.4156
38.1806
36.8889
35.5454
34.1555
32.7247
31.2586
29.7634
28.2452
26.7102
25.1648
23.6151
22.0673
20.5275
19.0013
17.4942
16.0126
48.1432
48.0351
47.7895
47.4286
46.9699
46.4193
45.7792
45.0527
44.2435
43.3557
42.3928
41.3587
40.2575
39.0932
37.8705
36.594
35.2689
33.9004
32.4941
31.0557
29.5912
28.1065
26.6077
25.101
23.5922
22.0872
20.5917
19.1112
17.6507
16.2161
47.9489
47.8175
47.5551
47.1889
46.7286
46.1762
45.5345
44.8072
43.9985
43.1121
42.1519
41.1219
40.0262
38.8692
37.6556
36.3901
35.078
33.7245
32.3352
30.9159
29.4723
28.0105
26.5363
25.0556
23.5742
22.0978
20.6319
19.1815
17.7517
16.3474
47.9354
47.7393
47.4488
47.0764
46.6136
46.0584
45.4143
44.6857
43.8767
42.9909
42.0323
41.0048
39.9126
38.7602
37.5523
36.2936
34.9894
33.6449
32.2657
30.8576
29.4261
27.9773
26.517
25.0508
23.5847
22.1239
20.6739
19.2397
17.8261
16.4373
-136.35
-116.007
-92.558
-37.5481
-43.256
-51.2709
-19.9137
-31.4755
-41.59
-19.8002
-30.5315
-38.6529
-16.1879
-24.9493
-32.1047
-12.1378
-19.6042
-26.037
-9.09886
-15.5893
-21.229
-6.58607
-12.217
-17.1006
-4.31208
-9.21264
-13.4479
-2.23927
-6.52979
-10.2209
-0.349538
-4.12463
-7.35717
1.38229
-1.95314
-4.79784
2.97472
0.0163924
-2.49871
4.44039
1.80709
-0.426325
5.78893
3.43691
1.44532
7.02793
4.91994
3.13664
8.16352
6.26754
4.66399
9.20087
7.48912
6.04085
10.1445
8.59274
7.27859
10.9987
9.58554
8.38711
11.767
10.4736
9.37485
12.4532
11.263
10.2496
13.0598
11.9578
11.0173
13.5911
12.5637
11.6847
14.0462
13.0812
12.2537
14.4326
13.5187
12.733
14.741
13.8678
13.1158
14.9893
14.1466
13.419
15.1494
14.328
13.6181
15.2623
14.4577
13.7571
-75.5259
-78.4278
-79.505
-83.119
-88.3566
-94.6015
-101.745
-109.739
-118.479
-127.797
-137.452
-147.092
-156.239
-164.266
-170.387
-173.772
-173.96
-170.871
-164.762
-155.894
-144.407
-130.509
-114.63
-97.4451
-79.776
-62.4345
-46.0675
-31.1013
-17.5531
-5.82707
-63.8001
-71.0542
-75.2817
-80.4554
-86.312
-92.7238
-99.8459
-107.712
-116.233
-125.25
-134.528
-143.731
-152.403
-159.959
-165.698
-168.914
-169.211
-166.477
-160.86
-152.491
-141.457
-127.969
-112.487
-95.7039
-78.4403
-61.4855
-45.463
-30.7826
-17.4608
-6.05024
-55.766
-66.2726
-72.232
-78.0017
-84.2623
-90.9178
-98.031
-105.682
-113.854
-122.427
-131.188
-139.822
-147.904
-154.903
-160.214
-163.253
-163.654
-161.227
-156.012
-148.05
-137.405
-124.321
-109.292
-93.0241
-76.3134
-59.909
-44.395
-30.1559
-17.2102
-6.22583
-49.7228
-60.9774
-68.9073
-75.7435
-82.39
-89.1276
-96.1645
-103.6
-111.411
-119.491
-127.659
-135.638
-143.051
-149.436
-154.284
-157.123
-157.568
-155.303
-150.305
-142.588
-132.241
-119.556
-105.054
-89.4286
-73.4284
-57.7402
-42.8955
-29.2452
-16.8128
-6.3461
-42.1399
-53.429
-63.0225
-71.4466
-79.1389
-86.4383
-93.6571
-101.004
-108.537
-116.195
-123.822
-131.176
-137.934
-143.706
-148.081
-150.63
-150.926
-148.588
-143.591
-135.978
-125.89
-113.658
-99.8049
-84.9786
-69.8556
-55.0451
-41.0173
-28.0867
-16.2845
-6.40323
-34.8829
-45.4021
-55.6327
-65.1045
-73.7462
-81.7862
-89.4833
-97.0239
-104.496
-111.89
-119.101
-125.935
-132.121
-137.328
-141.215
-143.306
-143.174
-140.582
-135.51
-128.019
-118.29
-106.666
-93.6401
-79.7911
-65.7089
-51.9199
-38.8328
-26.727
-15.6446
-6.39039
-28.7196
-38.0263
-48.0056
-57.7216
-66.7586
-75.2201
-83.2811
-91.0496
-98.5707
-105.831
-112.748
-119.166
-124.852
-129.515
-132.821
-134.327
-133.718
-130.912
-125.891
-118.711
-109.557
-98.7593
-86.7575
-74.0525
-61.1465
-48.4876
-36.4287
-25.2191
-14.9149
-6.30356
-23.424
-31.4943
-40.7253
-50.0783
-58.9732
-67.4147
-75.5052
-83.2823
-90.7351
-97.8198
-104.448
-110.474
-115.689
-119.822
-122.539
-123.517
-122.607
-119.797
-115.053
-108.415
-100.059
-90.2791
-79.4539
-68.0057
-56.3563
-44.885
-33.8975
-23.6182
-14.1179
-6.14337
-18.8383
-25.8044
-34.0847
-42.7185
-51.09
-59.1416
-66.9244
-74.4273
-81.5962
-88.3567
-94.606
-100.2
-104.944
-108.594
-110.85
-111.51
-110.537
-107.928
-103.643
-97.7157
-90.2984
-81.6412
-72.0597
-61.9038
-51.5248
-41.2434
-31.3254
-21.975
-13.2758
-5.91603
-14.864
-20.8874
-28.1964
-35.9632
-43.6037
-51.0307
-58.2641
-65.2667
-71.9597
-78.249
-84.0227
-89.1402
-93.4262
-96.6711
-98.6348
-99.1873
-98.3256
-96.0475
-92.3219
-87.1784
-80.7425
-73.218
-64.8623
-55.9618
-46.8075
-37.6707
-28.7834
-20.3318
-12.4087
-5.63286
-11.3923
-16.6248
-23.0364
-29.9281
-36.7733
-43.4755
-50.0387
-56.4158
-62.5194
-68.2489
-73.4925
-78.1199
-81.9786
-84.8978
-86.6959
-87.2716
-86.6165
-84.7267
-81.585
-77.2187
-71.7273
-65.2732
-58.0629
-50.3296
-42.3134
-34.2436
-26.3229
-18.7203
-11.5338
-5.30843
-8.3306
-12.9018
-18.5234
-24.6047
-30.68
-36.6545
-42.5252
-48.2442
-53.7263
-58.8743
-63.5837
-67.7388
-71.2113
-73.8647
-75.5639
-76.2189
-75.8011
-74.302
-71.7158
-68.0683
-63.4374
-57.9504
-51.772
-45.0908
-38.105
-31.008
-23.9764
-17.1627
-10.6657
-4.95801
-5.61096
-9.62746
-14.5681
-19.9302
-25.3042
-30.6016
-35.817
-40.9066
-45.7923
-50.3854
-54.5928
-58.3146
-61.4444
-63.8733
-65.4989
-66.2387
-66.0471
-64.9075
-62.8205
-59.8098
-55.9361
-51.2987
-46.0284
-40.2774
-34.209
-27.9862
-21.7621
-15.6733
-9.81607
-4.59548
-3.18341
-6.73213
-11.0901
-15.8265
-20.5813
-25.2737
-29.8983
-34.4169
-38.7605
-42.8506
-46.6062
-49.9425
-52.7713
-55.0045
-56.5617
-57.3685
-57.3716
-56.5456
-54.8917
-52.431
-49.2107
-45.3079
-40.8262
-35.8884
-30.629
-25.1849
-19.6885
-14.261
-8.99415
-4.23205
-1.00992
-4.16241
-8.02275
-12.2194
-16.4356
-20.5985
-24.7037
-28.7187
-32.5836
-36.2303
-39.5889
-42.5878
-45.1532
-47.213
-48.7011
-49.5525
-49.7137
-49.1521
-47.8665
-45.8742
-43.2117
-39.9387
-36.1372
-31.9062
-27.3562
-22.6025
-17.7586
-12.9315
-8.20711
-3.87606
0.938998
-1.87673
-5.31183
-9.04452
-12.7957
-16.5001
-20.1542
-23.7312
-27.1795
-30.4405
-33.4542
-36.1597
-38.4953
-40.4002
-41.819
-42.6959
-42.9817
-42.6384
-41.662
-40.0654
-37.8765
-35.1414
-31.9246
-28.3061
-24.3766
-20.2327
-15.9719
-11.6879
-7.46028
-3.53331
2.68679
0.157996
-2.91349
-6.24799
-9.59909
-12.9082
-16.1733
-19.372
-22.4604
-25.388
-28.1034
-30.5547
-32.6895
-34.4561
-35.8067
-36.6976
-37.079
-36.9133
-36.1943
-34.9305
-33.1425
-30.8656
-28.1506
-25.0618
-21.6738
-18.0674
-14.3261
-10.5319
-6.75748
-3.20769
4.25263
1.96873
-0.79172
-3.78474
-6.7923
-9.76196
-12.6926
-15.5659
-18.3445
-20.9848
-23.4429
-25.6742
-27.6339
-29.2778
-30.5642
-31.4561
-31.9106
-31.8898
-31.3847
-30.4002
-28.9511
-27.0642
-24.7791
-22.1478
-19.2314
-16.0977
-12.8179
-9.46381
-6.10128
-2.90175
5.65254
3.57783
1.08344
-1.61701
-4.33009
-7.00876
-9.65267
-12.2469
-14.7595
-17.153
-19.3895
-21.4307
-23.238
-24.7733
-26.0003
-26.8866
-27.3953
-27.4916
-27.1636
-26.4129
-25.2497
-23.6939
-21.7768
-19.5398
-17.0333
-14.3141
-11.4432
-8.48307
-5.49327
-2.61708
6.90017
5.0042
2.73721
0.287071
-2.17404
-4.60385
-7.00255
-9.35798
-11.6428
-13.8247
-15.8707
-17.748
-19.423
-20.8626
-22.0351
-22.9117
-23.4605
-23.651
-23.4692
-22.9137
-21.9911
-20.7162
-19.1131
-17.2154
-15.0643
-12.7076
-10.1974
-7.58849
-4.93431
-2.35467
8.00713
6.26371
4.19077
1.95433
-0.291733
-2.50926
-4.69888
-6.85063
-8.94102
-10.9419
-12.8249
-14.5612
-16.1217
-17.4774
-18.6003
-19.4648
-20.0433
-20.3093
-20.2477
-19.8548
-19.1342
-18.0967
-16.7611
-15.1542
-13.3102
-11.2692
-9.07607
-6.77851
-4.42475
-2.11505
8.98374
7.3702
5.46235
3.40772
1.34456
-0.692569
-2.70456
-4.68323
-6.60828
-8.45515
-10.1989
-11.8145
-13.2763
-14.5589
-15.6373
-16.4886
-17.0889
-17.4152
-17.4521
-17.194
-16.6424
-15.805
-14.6962
-13.3378
-11.758
-9.99063
-8.0744
-6.05124
-3.9645
-1.89839
9.83806
8.33462
6.56652
4.66578
2.75732
0.872684
-0.989227
-2.82166
-4.60691
-6.32336
-7.94907
-9.46191
-10.8393
-12.0586
-13.0976
-13.9356
-14.5517
-14.9261
-15.0431
-14.8962
-14.4853
-13.8156
-12.8982
-11.7507
-10.3966
-8.86473
-7.18858
-5.40516
-3.55358
-1.70489
10.5784
9.16756
7.51687
5.74534
3.96669
2.20991
0.473774
-1.23608
-2.90408
-4.51105
-6.03745
-7.46362
-8.76944
-9.93461
-10.9392
-11.7643
-12.3915
-12.804
-12.9858
-12.9301
-12.6355
-12.1053
-11.3481
-10.3782
-9.21538
-7.88432
-6.41428
-4.83815
-3.19133
-1.53421
11.2086
9.87471
8.3214
6.657
4.98592
3.33499
1.70297
0.0945656
-1.47635
-2.99256
-4.43653
-5.79056
-7.03656
-8.15617
-9.1313
-9.94472
-10.5806
-11.0219
-11.2554
-11.2735
-11.0737
-10.6582
-10.0333
-9.211
-8.20789
-7.04554
-5.74974
-4.34992
-2.87838
-1.38679
11.737
10.4658
8.99181
7.41455
5.83088
4.26594
2.71843
1.19239
-0.299673
-1.74213
-3.11899
-4.41418
-5.61119
-6.69323
-7.6437
-8.44668
-9.08748
-9.55158
-9.82595
-9.90296
-9.77955
-9.45665
-8.93942
-8.23762
-7.36568
-6.34255
-5.19128
-3.93854
-2.61397
-1.26226
12.1599
10.9382
9.52654
8.01787
6.50303
5.00576
3.52476
2.06354
0.633535
-0.750813
-2.07476
-3.32343
-4.48158
-5.53365
-6.4642
-7.25836
-7.90239
-8.38294
-8.68824
-8.81054
-8.74627
-8.4956
-8.06263
-7.45571
-6.68754
-5.77511
-4.73938
-3.60484
-2.39904
-1.16102
12.4911
11.3058
9.94081
8.48331
7.01969
5.57272
4.14114
2.72807
1.34417
0.00298946
-1.28162
-2.49571
-3.62491
-4.65458
-5.57013
-6.35744
-7.00345
-7.49616
-7.82449
-7.9808
-7.96109
-7.76494
-7.39566
-6.86059
-6.1712
-5.34304
-4.39556
-3.35171
-2.23745
-1.08708
12.7111
11.5493
10.2151
8.79239
7.36345
5.95031
4.55189
3.17118
1.81832
0.50625
-0.751784
-1.94241
-3.05188
-4.06613
-4.97108
-5.75295
-6.39875
-6.89704
-7.23843
-7.41554
-7.42411
-7.26333
-6.936
-6.44879
-5.81233
-5.04125
-4.15399
-3.17259
-2.12248
-1.03642
12.853
11.6949
10.3756
8.97135
7.56017
6.16374
4.78154
3.41661
2.07882
0.780781
-0.464514
-1.64397
-2.74416
-3.75139
-4.65204
-5.43312
-6.0825
-6.58821
-6.93978
-7.13015
-7.15538
-7.01465
-6.71055
-6.24942
-5.64144
-4.90072
-4.04515
-3.09613
-2.07834
-1.02073
)
;

boundaryField
{
    inlet
    {
        type            zeroGradient;
    }
    outlet
    {
        type            fixedValue;
        value           uniform 0;
    }
    flap
    {
        type            zeroGradient;
    }
    upperWall
    {
        type            zeroGradient;
    }
    lowerWall
    {
        type            zeroGradient;
    }
    frontAndBack
    {
        type            empty;
    }
}


// ************************************************************************* //
