/*--------------------------------*- C++ -*----------------------------------*\
  =========                 |
  \\      /  F ield         | OpenFOAM: The Open Source CFD Toolbox
   \\    /   O peration     | Website:  https://openfoam.org
    \\  /    A nd           | Version:  7
     \\/     M anipulation  |
\*---------------------------------------------------------------------------*/
FoamFile
{
    version     2.0;
    format      ascii;
    class       volVectorField;
    location    "0.4";
    object      U;
}
// * * * * * * * * * * * * * * * * * * * * * * * * * * * * * * * * * * * * * //

dimensions      [0 1 -1 0 0 0 0];

internalField   nonuniform List<vector> 
2790
(
(9.94409 0.020462 0)
(9.87619 0.0294504 0)
(9.77636 0.0357633 0)
(9.65164 0.0422278 0)
(9.50771 0.0489398 0)
(9.34549 0.0558477 0)
(9.16422 0.0630802 0)
(8.96302 0.0707971 0)
(8.7411 0.0791335 0)
(8.49754 0.0882088 0)
(8.2312 0.0981399 0)
(7.94078 0.109042 0)
(7.62487 0.121026 0)
(7.28203 0.134188 0)
(6.91085 0.1486 0)
(6.51008 0.164288 0)
(6.07877 0.181212 0)
(5.61649 0.199221 0)
(5.12357 0.218009 0)
(4.60147 0.237045 0)
(4.05317 0.255486 0)
(3.48368 0.272054 0)
(2.90058 0.284876 0)
(2.31467 0.291287 0)
(1.74082 0.287591 0)
(1.19889 0.268906 0)
(0.714756 0.229345 0)
(0.32599 0.161667 0)
(0.0336773 0.0651173 0)
(0.010582 -0.0580593 0)
(9.9986 0.0405124 0)
(9.98192 0.0619667 0)
(9.93691 0.0784647 0)
(9.86639 0.0956543 0)
(9.77463 0.11382 0)
(9.66265 0.132806 0)
(9.52984 0.152865 0)
(9.3754 0.17435 0)
(9.19857 0.197565 0)
(8.99841 0.222776 0)
(8.77381 0.250237 0)
(8.52346 0.280189 0)
(8.24592 0.312843 0)
(7.93969 0.348353 0)
(7.60325 0.386785 0)
(7.2352 0.428064 0)
(6.83436 0.471909 0)
(6.39998 0.517746 0)
(5.93197 0.564603 0)
(5.4312 0.610991 0)
(4.89989 0.654763 0)
(4.34194 0.692971 0)
(3.76342 0.721717 0)
(3.17287 0.736022 0)
(2.58155 0.729738 0)
(2.00335 0.695603 0)
(1.45395 0.62563 0)
(0.95303 0.511601 0)
(0.492359 0.348765 0)
(0.200048 0.119737 0)
(9.99569 0.0428841 0)
(9.97601 0.0745735 0)
(9.93293 0.102216 0)
(9.86704 0.130749 0)
(9.78128 0.160879 0)
(9.67678 0.192586 0)
(9.55323 0.226216 0)
(9.41004 0.26227 0)
(9.24657 0.30122 0)
(9.06207 0.343507 0)
(8.85559 0.389557 0)
(8.62598 0.439781 0)
(8.37196 0.494552 0)
(8.09215 0.554165 0)
(7.78507 0.618781 0)
(7.44926 0.688352 0)
(7.08332 0.762513 0)
(6.68609 0.840446 0)
(6.25677 0.920718 0)
(5.79522 1.00109 0)
(5.30214 1.0783 0)
(4.77946 1.1479 0)
(4.23063 1.20405 0)
(3.66081 1.23953 0)
(3.077 1.24581 0)
(2.48775 1.21364 0)
(1.90226 1.13429 0)
(1.33257 1.00176 0)
(0.766518 0.819371 0)
(0.32534 0.574128 0)
(9.99413 0.0490519 0)
(9.97226 0.0922405 0)
(9.929 0.132013 0)
(9.86436 0.171977 0)
(9.78038 0.213444 0)
(9.67812 0.256818 0)
(9.55752 0.30263 0)
(9.41815 0.35154 0)
(9.25955 0.404203 0)
(9.08115 0.461238 0)
(8.88224 0.523251 0)
(8.66196 0.590828 0)
(8.41932 0.664518 0)
(8.15322 0.744784 0)
(7.8625 0.831942 0)
(7.54591 0.926066 0)
(7.20221 1.02686 0)
(6.83018 1.1335 0)
(6.42873 1.24439 0)
(5.99699 1.35696 0)
(5.53452 1.46739 0)
(5.04144 1.57036 0)
(4.51872 1.65886 0)
(3.96833 1.72424 0)
(3.39336 1.75643 0)
(2.79806 1.74481 0)
(2.18721 1.67981 0)
(1.56933 1.5555 0)
(0.92832 1.37693 0)
(0.395059 1.1237 0)
(9.99341 0.0566421 0)
(9.97038 0.109725 0)
(9.92704 0.160114 0)
(9.86355 0.210502 0)
(9.7814 0.262553 0)
(9.68142 0.317036 0)
(9.56363 0.374628 0)
(9.4277 0.436081 0)
(9.27323 0.502161 0)
(9.09974 0.573603 0)
(8.90665 0.651129 0)
(8.69323 0.735438 0)
(8.45868 0.827194 0)
(8.20212 0.926977 0)
(7.92258 1.03523 0)
(7.61903 1.15213 0)
(7.29038 1.27751 0)
(6.93547 1.41063 0)
(6.55308 1.54997 0)
(6.14193 1.69295 0)
(5.70076 1.83565 0)
(5.22838 1.97248 0)
(4.72383 2.09603 0)
(4.18653 2.197 0)
(3.61653 2.26454 0)
(3.01481 2.28706 0)
(2.3831 2.25399 0)
(1.72848 2.1581 0)
(1.0312 2.00359 0)
(0.436262 1.75974 0)
(9.99312 0.064844 0)
(9.96967 0.127203 0)
(9.92666 0.187699 0)
(9.8646 0.248396 0)
(9.78466 0.310978 0)
(9.68745 0.376434 0)
(9.573 0.445567 0)
(9.44104 0.51922 0)
(9.29123 0.59826 0)
(9.12313 0.683535 0)
(8.9362 0.77588 0)
(8.72983 0.876106 0)
(8.50327 0.984989 0)
(8.25573 1.10322 0)
(7.98633 1.23137 0)
(7.69411 1.36974 0)
(7.378 1.51831 0)
(7.03681 1.67652 0)
(6.66914 1.84304 0)
(6.27339 2.01553 0)
(5.84765 2.19029 0)
(5.38972 2.36194 0)
(4.89716 2.52318 0)
(4.36747 2.66465 0)
(3.79837 2.77513 0)
(3.18843 2.84222 0)
(2.53714 2.85392 0)
(1.85136 2.8006 0)
(1.10774 2.68365 0)
(0.465046 2.45968 0)
(9.99306 0.0732583 0)
(9.9697 0.144553 0)
(9.92745 0.214648 0)
(9.86713 0.285249 0)
(9.78975 0.357969 0)
(9.69579 0.433949 0)
(9.58524 0.514139 0)
(9.45789 0.599486 0)
(9.31345 0.690956 0)
(9.15152 0.789502 0)
(8.97161 0.896064 0)
(8.77313 1.01156 0)
(8.55538 1.13686 0)
(8.3176 1.27279 0)
(8.05891 1.42001 0)
(7.77831 1.57901 0)
(7.47466 1.74993 0)
(7.14662 1.93245 0)
(6.79255 2.12556 0)
(6.41044 2.32732 0)
(5.99778 2.53451 0)
(5.55148 2.74231 0)
(5.0679 2.94394 0)
(4.5429 3.13039 0)
(3.97229 3.29039 0)
(3.35262 3.41079 0)
(2.68138 3.47772 0)
(1.96564 3.47798 0)
(1.17832 3.40824 0)
(0.490896 3.21026 0)
(9.99316 0.0816507 0)
(9.97024 0.161585 0)
(9.92914 0.2408 0)
(9.87087 0.32085 0)
(9.79642 0.403284 0)
(9.70613 0.489351 0)
(9.60002 0.580128 0)
(9.47791 0.676662 0)
(9.33955 0.780011 0)
(9.18459 0.891224 0)
(9.01257 1.01134 0)
(8.82295 1.14139 0)
(8.61507 1.28235 0)
(8.38815 1.43517 0)
(8.14129 1.60067 0)
(7.87344 1.77951 0)
(7.58333 1.97207 0)
(7.26941 2.17835 0)
(6.92975 2.39774 0)
(6.56188 2.62884 0)
(6.16269 2.86915 0)
(5.72822 3.11465 0)
(5.25365 3.35944 0)
(4.73334 3.59524 0)
(4.16115 3.81109 0)
(3.53148 3.99318 0)
(2.83947 4.12545 0)
(2.09193 4.19014 0)
(1.25763 4.17705 0)
(0.520418 4.01048 0)
(9.99335 0.0898713 0)
(9.97115 0.178131 0)
(9.93152 0.266006 0)
(9.87562 0.355031 0)
(9.80443 0.446721 0)
(9.71825 0.542394 0)
(9.61708 0.643234 0)
(9.50078 0.750384 0)
(9.36916 0.864987 0)
(9.22192 0.988188 0)
(9.05865 1.12112 0)
(8.87885 1.26493 0)
(8.6819 1.42071 0)
(8.46703 1.58955 0)
(8.23333 1.77245 0)
(7.9797 1.97028 0)
(7.70476 2.18372 0)
(7.40675 2.41315 0)
(7.08346 2.65848 0)
(6.73199 2.919 0)
(6.34862 3.19308 0)
(5.92857 3.4778 0)
(5.46581 3.76848 0)
(4.95307 4.05803 0)
(4.38201 4.33627 0)
(3.74424 4.58917 0)
(3.0314 4.79848 0)
(2.24863 4.94102 0)
(1.35921 4.99735 0)
(0.559814 4.87017 0)
(9.99362 0.0978165 0)
(9.97233 0.194047 0)
(9.93445 0.290128 0)
(9.88122 0.387633 0)
(9.81362 0.488075 0)
(9.73193 0.592825 0)
(9.63615 0.703155 0)
(9.5262 0.820295 0)
(9.40193 0.945471 0)
(9.26311 1.07991 0)
(9.10938 1.22485 0)
(8.9403 1.38154 0)
(8.7553 1.5512 0)
(8.55367 1.73507 0)
(8.33451 1.93434 0)
(8.0967 2.15015 0)
(7.83879 2.38351 0)
(7.55892 2.63523 0)
(7.25465 2.90587 0)
(6.92276 3.19552 0)
(6.55901 3.50363 0)
(6.15787 3.82865 0)
(5.71216 4.16755 0)
(5.21284 4.51503 0)
(4.64894 4.86252 0)
(4.00829 5.19667 0)
(3.27714 5.49784 0)
(2.45598 5.73719 0)
(1.49929 5.88323 0)
(0.617051 5.81002 0)
(9.99393 0.105411 0)
(9.97372 0.209216 0)
(9.93784 0.313033 0)
(9.88754 0.418504 0)
(9.82382 0.527163 0)
(9.74697 0.640421 0)
(9.657 0.759626 0)
(9.55387 0.886083 0)
(9.43751 1.02109 0)
(9.30772 1.16597 0)
(9.16426 1.32203 0)
(9.00673 1.49062 0)
(8.83466 1.6731 0)
(8.64739 1.87087 0)
(8.44411 2.08533 0)
(8.22372 2.31787 0)
(7.98481 2.56988 0)
(7.72551 2.84268 0)
(7.44329 3.13749 0)
(7.13479 3.45536 0)
(6.79548 3.79699 0)
(6.41927 4.16248 0)
(5.99805 4.55095 0)
(5.52108 4.9597 0)
(4.97445 5.38301 0)
(4.34119 5.81007 0)
(3.59954 6.22198 0)
(2.74038 6.58575 0)
(1.70184 6.85577 0)
(0.705137 6.86566 0)
(9.99429 0.112596 0)
(9.97529 0.223541 0)
(9.94159 0.334605 0)
(9.89446 0.44751 0)
(9.83489 0.563818 0)
(9.76318 0.684983 0)
(9.67938 0.812409 0)
(9.5835 0.947469 0)
(9.47552 1.09153 0)
(9.35534 1.24597 0)
(9.22278 1.41219 0)
(9.07755 1.59163 0)
(8.91927 1.78578 0)
(8.7474 1.99618 0)
(8.56124 2.22443 0)
(8.35982 2.4722 0)
(8.14185 2.74126 0)
(7.90556 3.03343 0)
(7.64857 3.35067 0)
(7.3676 3.69499 0)
(7.05814 4.0685 0)
(6.714 4.47321 0)
(6.32659 4.91085 0)
(5.884 5.38228 0)
(5.3697 5.88635 0)
(4.76139 6.41772 0)
(4.02681 6.96283 0)
(3.13997 7.49037 0)
(2.00732 7.94338 0)
(0.849145 8.0989 0)
(9.99468 0.119327 0)
(9.97698 0.236943 0)
(9.94564 0.354744 0)
(9.90189 0.47453 0)
(9.84669 0.597898 0)
(9.78039 0.726336 0)
(9.70307 0.861297 0)
(9.6148 1.00421 0)
(9.51561 1.15648 0)
(9.40551 1.31957 0)
(9.2844 1.49493 0)
(9.15211 1.68409 0)
(9.00838 1.88864 0)
(8.85283 2.11025 0)
(8.6849 2.35072 0)
(8.50384 2.61197 0)
(8.30858 2.8961 0)
(8.09763 3.20544 0)
(7.86894 3.54262 0)
(7.61961 3.91065 0)
(7.34561 4.31301 0)
(7.04122 4.75375 0)
(6.69826 5.23756 0)
(6.30484 5.76964 0)
(5.84325 6.35529 0)
(5.28725 6.99857 0)
(4.59364 7.69903 0)
(3.71235 8.44136 0)
(2.49073 9.17788 0)
(1.10385 9.62671 0)
(9.9951 0.12557 0)
(9.97879 0.249357 0)
(9.94993 0.373365 0)
(9.90971 0.499463 0)
(9.85909 0.629283 0)
(9.79842 0.76434 0)
(9.72784 0.906126 0)
(9.64746 1.0561 0)
(9.55742 1.21574 0)
(9.45778 1.38651 0)
(9.34857 1.56994 0)
(9.22974 1.76762 0)
(9.10118 1.98122 0)
(8.96269 2.21252 0)
(8.81394 2.46346 0)
(8.65441 2.73618 0)
(8.48338 3.03307 0)
(8.29979 3.35688 0)
(8.10209 3.71082 0)
(7.88814 4.09874 0)
(7.65483 4.52538 0)
(7.39767 4.99667 0)
(7.11007 5.52018 0)
(6.78209 6.10573 0)
(6.39802 6.7662 0)
(5.93254 7.51855 0)
(5.33813 8.38508 0)
(4.54334 9.39203 0)
(3.30265 10.5675 0)
(1.60333 11.7058 0)
(9.99554 0.131295 0)
(9.98067 0.260732 0)
(9.9544 0.390397 0)
(9.91786 0.522217 0)
(9.87197 0.657852 0)
(9.81711 0.798842 0)
(9.75346 0.946703 0)
(9.68121 1.10293 0)
(9.60057 1.269 0)
(9.51169 1.44645 0)
(9.41472 1.63681 0)
(9.30975 1.84173 0)
(9.19683 2.06292 0)
(9.07597 2.30225 0)
(8.94708 2.56176 0)
(8.80999 2.84373 0)
(8.66436 3.15076 0)
(8.50967 3.48589 0)
(8.3451 3.85275 0)
(8.16949 4.25579 0)
(7.98109 4.70066 0)
(7.77738 5.19466 0)
(7.55464 5.74758 0)
(7.30721 6.37297 0)
(7.02598 7.09033 0)
(6.69598 7.9293 0)
(6.28554 8.93869 0)
(5.74417 10.2084 0)
(4.77965 11.9631 0)
(2.72729 15.0012 0)
(-0.344165 0.421945 0)
(-1.04005 0.537797 0)
(-1.95251 0.562754 0)
(-2.9132 0.55942 0)
(-3.90625 0.542885 0)
(-4.91478 0.519257 0)
(-5.92485 0.490848 0)
(-6.92358 0.458562 0)
(-7.89812 0.422715 0)
(-8.83488 0.383358 0)
(-9.71913 0.340418 0)
(-10.5346 0.293789 0)
(-11.2637 0.243421 0)
(-11.8872 0.189337 0)
(-12.3853 0.131782 0)
(-12.7381 0.0710127 0)
(-12.9262 0.00718548 0)
(-12.9319 -0.0598113 0)
(-12.7415 -0.129413 0)
(-12.3471 -0.198494 0)
(-11.7491 -0.264588 0)
(-10.9539 -0.325912 0)
(-9.97334 -0.381213 0)
(-8.82306 -0.429897 0)
(-7.52073 -0.472283 0)
(-6.08253 -0.510409 0)
(-4.51969 -0.551211 0)
(-2.84761 -0.61228 0)
(-1.02703 -0.712833 0)
(2.20051 -0.956189 0)
(-0.514998 1.05583 0)
(-1.28186 1.22112 0)
(-2.21784 1.28879 0)
(-3.17628 1.31741 0)
(-4.15934 1.31881 0)
(-5.15364 1.3003 0)
(-6.14664 1.26552 0)
(-7.12599 1.21617 0)
(-8.07908 1.1528 0)
(-8.99244 1.07528 0)
(-9.8513 0.983096 0)
(-10.6393 0.875608 0)
(-11.3385 0.752362 0)
(-11.9295 0.613382 0)
(-12.3921 0.459419 0)
(-12.7061 0.292096 0)
(-12.8521 0.113784 0)
(-12.8117 -0.0725856 0)
(-12.5802 -0.261143 0)
(-12.1519 -0.443553 0)
(-11.5272 -0.614159 0)
(-10.7125 -0.76889 0)
(-9.71884 -0.904943 0)
(-8.56137 -1.02103 0)
(-7.2573 -1.1181 0)
(-5.82341 -1.20108 0)
(-4.27293 -1.28524 0)
(-2.61869 -1.40809 0)
(-0.849162 -1.61947 0)
(1.90959 -1.99474 0)
(-0.552544 1.89881 0)
(-1.32791 2.08035 0)
(-2.25569 2.16082 0)
(-3.18246 2.19442 0)
(-4.12391 2.18878 0)
(-5.07059 2.15161 0)
(-6.01328 2.08747 0)
(-6.94188 1.99879 0)
(-7.84541 1.88646 0)
(-8.71161 1.75031 0)
(-9.5266 1.58957 0)
(-10.2746 1.4033 0)
(-10.9379 1.19088 0)
(-11.4971 0.952506 0)
(-11.9317 0.689816 0)
(-12.2211 0.406148 0)
(-12.3453 0.106883 0)
(-12.2861 -0.200953 0)
(-12.0413 -0.50957 0)
(-11.6042 -0.80736 0)
(-10.9769 -1.08521 0)
(-10.1666 -1.33634 0)
(-9.18453 -1.55586 0)
(-8.04585 -1.74109 0)
(-6.76833 -1.89299 0)
(-5.37097 -2.01859 0)
(-3.87193 -2.1383 0)
(-2.28332 -2.29939 0)
(-0.64153 -2.56356 0)
(1.69125 -2.98034 0)
(-0.534028 2.7613 0)
(-1.27673 2.93542 0)
(-2.16675 3.00624 0)
(-3.04013 3.02985 0)
(-3.92304 3.00958 0)
(-4.80835 2.952 0)
(-5.69021 2.86117 0)
(-6.561 2.73915 0)
(-7.41149 2.58636 0)
(-8.23049 2.40193 0)
(-9.00463 2.1842 0)
(-9.71803 1.93132 0)
(-10.3524 1.64182 0)
(-10.8872 1.31536 0)
(-11.3006 0.953496 0)
(-11.5706 0.560331 0)
(-11.6758 0.143295 0)
(-11.5976 -0.28689 0)
(-11.339 -0.71573 0)
(-10.8948 -1.12739 0)
(-10.2688 -1.51027 0)
(-9.46877 -1.85576 0)
(-8.50599 -2.15735 0)
(-7.39549 -2.41091 0)
(-6.15568 -2.61711 0)
(-4.8082 -2.78426 0)
(-3.37735 -2.93524 0)
(-1.86839 -3.1177 0)
(-0.375706 -3.39263 0)
(1.59161 -3.77287 0)
(-0.489082 3.57663 0)
(-1.17089 3.73657 0)
(-1.99597 3.79138 0)
(-2.79624 3.80132 0)
(-3.60646 3.76616 0)
(-4.41993 3.69077 0)
(-5.23322 3.57768 0)
(-6.04047 3.42768 0)
(-6.83362 3.23985 0)
(-7.60211 3.01194 0)
(-8.33258 2.74089 0)
(-9.00875 2.42354 0)
(-9.61143 2.05749 0)
(-10.119 1.64206 0)
(-10.5083 1.17946 0)
(-10.7557 0.67581 0)
(-10.8386 0.142523 0)
(-10.7392 -0.403399 0)
(-10.468 -0.945072 0)
(-10.0199 -1.46236 0)
(-9.40099 -1.94175 0)
(-8.61946 -2.3735 0)
(-7.68592 -2.74973 0)
(-6.615 -3.06448 0)
(-5.42552 -3.31775 0)
(-4.14158 -3.51803 0)
(-2.79363 -3.68887 0)
(-1.37721 -3.87036 0)
(-0.0464727 -4.12054 0)
(1.61721 -4.42582 0)
(-0.428599 4.31091 0)
(-1.02823 4.46028 0)
(-1.76604 4.50126 0)
(-2.47601 4.49952 0)
(-3.19999 4.45265 0)
(-3.93043 4.36403 0)
(-4.6656 4.23444 0)
(-5.40073 4.06299 0)
(-6.12858 3.84709 0)
(-6.83901 3.58276 0)
(-7.51872 3.26528 0)
(-8.15113 2.89002 0)
(-8.71644 2.45342 0)
(-9.19203 1.95427 0)
(-9.55336 1.39516 0)
(-9.77503 0.784298 0)
(-9.83244 0.13708 0)
(-9.70965 -0.525355 0)
(-9.42723 -1.17572 0)
(-8.97957 -1.79236 0)
(-8.37526 -2.36135 0)
(-7.62215 -2.87293 0)
(-6.72929 -3.31825 0)
(-5.71043 -3.68887 0)
(-4.58435 -3.98377 0)
(-3.37717 -4.21033 0)
(-2.12323 -4.39129 0)
(-0.811154 -4.554 0)
(0.346293 -4.75216 0)
(1.76529 -4.97007 0)
(-0.357683 4.9423 0)
(-0.857953 5.08813 0)
(-1.49035 5.12058 0)
(-2.09493 5.11201 0)
(-2.71942 5.05869 0)
(-3.35467 4.96281 0)
(-4.00041 4.82332 0)
(-4.65261 4.63748 0)
(-5.3047 4.40072 0)
(-5.94703 4.10707 0)
(-6.56655 3.74983 0)
(-7.14668 3.3226 0)
(-7.66721 2.82041 0)
(-8.10467 2.24122 0)
(-8.43275 1.58801 0)
(-8.62355 0.871634 0)
(-8.65112 0.112964 0)
(-8.50847 -0.659487 0)
(-8.21656 -1.41029 0)
(-7.77554 -2.11648 0)
(-7.19518 -2.76545 0)
(-6.48198 -3.3486 0)
(-5.64224 -3.85654 0)
(-4.68867 -4.27726 0)
(-3.6388 -4.60836 0)
(-2.52127 -4.85448 0)
(-1.36859 -5.03541 0)
(-0.182132 -5.16497 0)
(0.81231 -5.29749 0)
(2.02788 -5.42789 0)
(-0.279622 5.45438 0)
(-0.666207 5.60477 0)
(-1.17829 5.63507 0)
(-1.66411 5.62586 0)
(-2.17639 5.57259 0)
(-2.70398 5.47634 0)
(-3.24811 5.33419 0)
(-3.80533 5.14148 0)
(-4.36975 4.89154 0)
(-4.9324 4.57628 0)
(-5.48083 4.18686 0)
(-5.99886 3.71483 0)
(-6.46648 3.15355 0)
(-6.85971 2.49978 0)
(-7.15046 1.75653 0)
(-7.30731 0.937435 0)
(-7.30082 0.0706729 0)
(-7.13781 -0.803593 0)
(-6.84151 -1.64504 0)
(-6.4152 -2.42912 0)
(-5.86949 -3.14707 0)
(-5.20841 -3.79284 0)
(-4.43416 -4.35679 0)
(-3.55922 -4.8223 0)
(-2.59724 -5.18464 0)
(-1.58106 -5.44381 0)
(-0.533519 -5.61341 0)
(0.487962 -5.69988 0)
(1.36428 -5.77038 0)
(2.39439 -5.81426 0)
(-0.19699 5.83435 0)
(-0.45793 5.99795 0)
(-0.837718 6.03261 0)
(-1.19316 6.02943 0)
(-1.58159 5.98316 0)
(-1.98957 5.89383 0)
(-2.42002 5.75655 0)
(-2.86995 5.56475 0)
(-3.33425 5.30968 0)
(-3.80482 4.98109 0)
(-4.27024 4.56793 0)
(-4.71538 4.05942 0)
(-5.12122 3.44689 0)
(-5.4641 2.72548 0)
(-5.7137 1.89777 0)
(-5.83307 0.980992 0)
(-5.7881 0.0126859 0)
(-5.60724 -0.956045 0)
(-5.31398 -1.87581 0)
(-4.9125 -2.72379 0)
(-4.413 -3.49881 0)
(-3.81605 -4.19818 0)
(-3.11848 -4.81166 0)
(-2.33467 -5.31711 0)
(-1.47036 -5.7061 0)
(-0.564462 -5.97087 0)
(0.352679 -6.1186 0)
(1.21901 -6.16471 0)
(1.99329 -6.1791 0)
(2.85273 -6.13884 0)
(-0.112221 6.07272 0)
(-0.237785 6.25829 0)
(-0.476344 6.30346 0)
(-0.69175 6.31278 0)
(-0.94639 6.28041 0)
(-1.22414 6.20528 0)
(-1.53 6.08037 0)
(-1.86118 5.89723 0)
(-2.21334 5.64514 0)
(-2.57933 5.31175 0)
(-2.94917 4.88406 0)
(-3.30939 4.34868 0)
(-3.64305 3.69474 0)
(-3.9282 2.91505 0)
(-4.13211 2.0105 0)
(-4.20893 1.00118 0)
(-4.1204 -0.063427 0)
(-3.93039 -1.11482 0)
(-3.65217 -2.09638 0)
(-3.28842 -2.99187 0)
(-2.84723 -3.81215 0)
(-2.32525 -4.55764 0)
(-1.71343 -5.21614 0)
(-1.02959 -5.75637 0)
(-0.271521 -6.16683 0)
(0.506637 -6.42715 0)
(1.27483 -6.55137 0)
(2.02318 -6.56629 0)
(2.69062 -6.52733 0)
(3.39042 -6.40792 0)
(-0.0281884 6.16317 0)
(-0.0109154 6.37932 0)
(-0.102475 6.4411 0)
(-0.170438 6.46888 0)
(-0.283596 6.45725 0)
(-0.422586 6.40352 0)
(-0.5951 6.29812 0)
(-0.798124 6.13056 0)
(-1.02788 5.88834 0)
(-1.27774 5.55732 0)
(-1.53943 5.12503 0)
(-1.80133 4.57201 0)
(-2.04961 3.8857 0)
(-2.26666 3.055 0)
(-2.41776 2.07877 0)
(-2.44216 0.981876 0)
(-2.30525 -0.161216 0)
(-2.12528 -1.27351 0)
(-1.8799 -2.29844 0)
(-1.5703 -3.22589 0)
(-1.20008 -4.08101 0)
(-0.761667 -4.86594 0)
(-0.242534 -5.56747 0)
(0.340109 -6.1386 0)
(0.961339 -6.55269 0)
(1.60925 -6.81016 0)
(2.2613 -6.9206 0)
(2.88828 -6.90673 0)
(3.4461 -6.81627 0)
(3.99389 -6.62517 0)
(0.0550736 6.10531 0)
(0.216308 6.35579 0)
(0.277067 6.44078 0)
(0.357778 6.49108 0)
(0.391528 6.5068 0)
(0.396269 6.48206 0)
(0.362815 6.40441 0)
(0.294559 6.26137 0)
(0.194737 6.03959 0)
(0.0721068 5.72381 0)
(-0.0722472 5.29088 0)
(-0.224243 4.73374 0)
(-0.373094 4.03273 0)
(-0.512639 3.17553 0)
(-0.603214 2.15744 0)
(-0.550637 0.993379 0)
(-0.35606 -0.228996 0)
(-0.221084 -1.39939 0)
(-0.0320686 -2.46794 0)
(0.207776 -3.42521 0)
(0.496495 -4.30917 0)
(0.845965 -5.12611 0)
(1.25613 -5.84885 0)
(1.7215 -6.43943 0)
(2.23106 -6.87084 0)
(2.76409 -7.1305 0)
(3.29743 -7.22718 0)
(3.80128 -7.18506 0)
(4.24743 -7.04662 0)
(4.64876 -6.7927 0)
(0.14325 5.89475 0)
(0.445646 6.18934 0)
(0.658182 6.30098 0)
(0.885605 6.37604 0)
(1.06812 6.42512 0)
(1.21577 6.43561 0)
(1.32054 6.39092 0)
(1.3869 6.27645 0)
(1.41898 6.07814 0)
(1.42526 5.78058 0)
(1.40907 5.35962 0)
(1.37854 4.80776 0)
(1.34421 4.10516 0)
(1.31001 3.23507 0)
(1.31845 2.18525 0)
(1.44778 0.977016 0)
(1.63012 -0.285423 0)
(1.72538 -1.47995 0)
(1.83457 -2.55909 0)
(1.9869 -3.54449 0)
(2.18911 -4.46168 0)
(2.44879 -5.31294 0)
(2.76589 -6.06911 0)
(3.13265 -6.68556 0)
(3.53524 -7.12899 0)
(3.95372 -7.3875 0)
(4.36703 -7.46996 0)
(4.74736 -7.40083 0)
(5.08073 -7.21901 0)
(5.34016 -6.9118 0)
(0.24784 5.52121 0)
(0.68075 5.89262 0)
(1.0347 6.02133 0)
(1.40836 6.12226 0)
(1.73983 6.21351 0)
(2.02594 6.26728 0)
(2.26332 6.26153 0)
(2.45902 6.18019 0)
(2.61892 6.00856 0)
(2.75113 5.73082 0)
(2.86079 5.32497 0)
(2.95405 4.77995 0)
(3.03993 4.07751 0)
(3.12428 3.199 0)
(3.23394 2.13756 0)
(3.3979 0.93273 0)
(3.54862 -0.325117 0)
(3.61096 -1.5272 0)
(3.65874 -2.62329 0)
(3.73535 -3.63021 0)
(3.8598 -4.57533 0)
(4.04104 -5.45717 0)
(4.27594 -6.24006 0)
(4.55214 -6.87534 0)
(4.85287 -7.32677 0)
(5.1591 -7.58152 0)
(5.45296 -7.64895 0)
(5.71064 -7.55435 0)
(5.93112 -7.33428 0)
(6.05305 -6.98344 0)
(0.390758 4.97411 0)
(0.926498 5.51089 0)
(1.39158 5.61497 0)
(1.9225 5.74017 0)
(2.40325 5.88284 0)
(2.81868 5.98724 0)
(3.17783 6.02572 0)
(3.49266 5.98173 0)
(3.77086 5.84019 0)
(4.02033 5.58523 0)
(4.24694 5.19743 0)
(4.45588 4.66295 0)
(4.65375 3.96474 0)
(4.8445 3.08596 0)
(5.0334 2.02827 0)
(5.2202 0.840237 0)
(5.35562 -0.387368 0)
(5.39101 -1.56142 0)
(5.39047 -2.65029 0)
(5.40843 -3.67213 0)
(5.47423 -4.64583 0)
(5.59577 -5.55824 0)
(5.76356 -6.36497 0)
(5.95947 -7.01367 0)
(6.16456 -7.46743 0)
(6.3618 -7.71433 0)
(6.53789 -7.76521 0)
(6.67479 -7.64663 0)
(6.78326 -7.3936 0)
(6.77256 -7.00858 0)
(9.99599 0.136574 0)
(9.98265 0.271219 0)
(9.95911 0.406086 0)
(9.92643 0.543143 0)
(9.88549 0.684077 0)
(9.83671 0.830439 0)
(9.78034 0.98376 0)
(9.71662 1.14554 0)
(9.64584 1.3173 0)
(9.56828 1.50054 0)
(9.48419 1.69684 0)
(9.39382 1.90785 0)
(9.29741 2.13531 0)
(9.1952 2.38112 0)
(9.08737 2.64737 0)
(8.97413 2.93641 0)
(8.85561 3.25092 0)
(8.73192 3.59409 0)
(8.60311 3.96974 0)
(8.46918 4.3826 0)
(8.33012 4.83867 0)
(8.18592 5.34584 0)
(8.03673 5.91474 0)
(7.88317 6.5603 0)
(7.72712 7.30442 0)
(7.57471 8.18109 0)
(7.44209 9.2469 0)
(7.42515 10.6006 0)
(7.961 12.3967 0)
(8.24617 15.2437 0)
(9.99647 0.141415 0)
(9.98474 0.280821 0)
(9.96405 0.420411 0)
(9.93539 0.562185 0)
(9.89961 0.707842 0)
(9.85714 0.858938 0)
(9.80829 1.01701 0)
(9.75337 1.18356 0)
(9.69276 1.36008 0)
(9.62684 1.5481 0)
(9.55599 1.74918 0)
(9.48063 1.96495 0)
(9.40119 2.19713 0)
(9.31814 2.44762 0)
(9.23198 2.71848 0)
(9.1433 3.01203 0)
(9.05273 3.33094 0)
(8.96104 3.67834 0)
(8.86918 4.05796 0)
(8.77836 4.47439 0)
(8.69032 4.93336 0)
(8.60757 5.44225 0)
(8.53411 6.01073 0)
(8.47662 6.65174 0)
(8.44705 7.3829 0)
(8.46882 8.22814 0)
(8.58366 9.21818 0)
(8.84919 10.3866 0)
(9.55049 11.6744 0)
(10.101 12.7654 0)
(9.99697 0.145732 0)
(9.98691 0.289376 0)
(9.96918 0.433153 0)
(9.94469 0.579077 0)
(9.91423 0.728849 0)
(9.87826 0.884019 0)
(9.83714 1.04611 0)
(9.79125 1.21661 0)
(9.74105 1.397 0)
(9.68702 1.58876 0)
(9.62967 1.79342 0)
(9.56958 2.01256 0)
(9.50738 2.24787 0)
(9.44377 2.50116 0)
(9.37957 2.7744 0)
(9.31572 3.06981 0)
(9.25335 3.38988 0)
(9.19384 3.73751 0)
(9.13895 4.11607 0)
(9.091 4.52963 0)
(9.05314 4.98304 0)
(9.02985 5.48226 0)
(9.02767 6.03448 0)
(9.05649 6.64826 0)
(9.1313 7.33306 0)
(9.27484 8.0973 0)
(9.51896 8.94209 0)
(9.87116 9.85448 0)
(10.4617 10.7814 0)
(11.1734 11.5008 0)
(9.99749 0.149471 0)
(9.98913 0.296778 0)
(9.97444 0.444145 0)
(9.95422 0.593589 0)
(9.92921 0.746801 0)
(9.89988 0.905312 0)
(9.86664 1.07062 0)
(9.82994 1.24418 0)
(9.7903 1.42743 0)
(9.74831 1.62181 0)
(9.7046 1.82878 0)
(9.6599 2.04984 0)
(9.615 2.28659 0)
(9.57085 2.54071 0)
(9.52853 2.81402 0)
(9.48932 3.10853 0)
(9.45477 3.42646 0)
(9.42678 3.77029 0)
(9.40776 4.14286 0)
(9.40081 4.54737 0)
(9.41 4.98748 0)
(9.44084 5.46722 0)
(9.50079 5.99086 0)
(9.59999 6.56244 0)
(9.75183 7.18465 0)
(9.97317 7.85693 0)
(10.2867 8.57183 0)
(10.6996 9.31448 0)
(11.2785 10.0775 0)
(12.0958 10.7505 0)
(9.99801 0.152587 0)
(9.9914 0.302935 0)
(9.9798 0.453255 0)
(9.96392 0.605548 0)
(9.94443 0.761482 0)
(9.92182 0.922559 0)
(9.89654 1.09024 0)
(9.86909 1.26592 0)
(9.84007 1.45099 0)
(9.81015 1.64682 0)
(9.78007 1.85477 0)
(9.75067 2.07625 0)
(9.72293 2.31271 0)
(9.69797 2.56567 0)
(9.6771 2.83673 0)
(9.66188 3.12762 0)
(9.65417 3.44018 0)
(9.65626 3.77641 0)
(9.67096 4.13843 0)
(9.70182 4.52851 0)
(9.75332 4.94895 0)
(9.83117 5.40192 0)
(9.94265 5.88918 0)
(10.0969 6.41148 0)
(10.305 6.96779 0)
(10.5801 7.55426 0)
(10.9395 8.16306 0)
(11.3944 8.78022 0)
(11.9678 9.39671 0)
(12.7519 9.94054 0)
(9.99854 0.155037 0)
(9.99368 0.307763 0)
(9.98521 0.460358 0)
(9.9737 0.614789 0)
(9.95976 0.772693 0)
(9.94389 0.935524 0)
(9.92657 1.10469 0)
(9.90836 1.28153 0)
(9.8899 1.46736 0)
(9.87194 1.66344 0)
(9.8553 1.87104 0)
(9.84095 2.09143 0)
(9.82997 2.32589 0)
(9.82364 2.57573 0)
(9.82344 2.8423 0)
(9.83111 3.12699 0)
(9.84873 3.43123 0)
(9.87879 3.75644 0)
(9.9243 4.10403 0)
(9.98891 4.47531 0)
(10.0771 4.87135 0)
(10.1943 5.29277 0)
(10.347 5.73944 0)
(10.5429 6.21 0)
(10.7911 6.70131 0)
(11.1013 7.20778 0)
(11.4849 7.72056 0)
(11.9499 8.22476 0)
(12.497 8.70505 0)
(13.2106 9.12214 0)
(9.99907 0.156783 0)
(9.99597 0.311187 0)
(9.99061 0.465342 0)
(9.98347 0.621171 0)
(9.97507 0.780258 0)
(9.96589 0.944004 0)
(9.95646 1.11375 0)
(9.94736 1.29076 0)
(9.9393 1.47626 0)
(9.93305 1.6714 0)
(9.92953 1.87732 0)
(9.92976 2.09513 0)
(9.93493 2.32593 0)
(9.9464 2.5708 0)
(9.96576 2.8308 0)
(9.99485 3.10695 0)
(10.0358 3.40025 0)
(10.0913 3.71156 0)
(10.1641 4.04161 0)
(10.2579 4.39085 0)
(10.3769 4.75932 0)
(10.5258 5.14645 0)
(10.7101 5.55077 0)
(10.936 5.96958 0)
(11.2102 6.39852 0)
(11.5392 6.83106 0)
(11.9294 7.25813 0)
(12.3853 7.66679 0)
(12.9011 8.04334 0)
(13.5516 8.36882 0)
(9.99959 0.157792 0)
(9.99824 0.313142 0)
(9.99597 0.468116 0)
(9.99314 0.624571 0)
(9.9902 0.784034 0)
(9.98761 0.947838 0)
(9.98592 1.11725 0)
(9.98573 1.29344 0)
(9.98778 1.47752 0)
(9.99288 1.67054 0)
(10.002 1.87348 0)
(10.0161 2.0873 0)
(10.0366 2.31288 0)
(10.0648 2.55105 0)
(10.1023 2.80259 0)
(10.1511 3.06817 0)
(10.2131 3.34834 0)
(10.291 3.64347 0)
(10.3874 3.95366 0)
(10.5058 4.27867 0)
(10.6496 4.61775 0)
(10.8229 4.96946 0)
(11.0302 5.33151 0)
(11.2759 5.70046 0)
(11.5647 6.07147 0)
(11.9007 6.4381 0)
(12.287 6.79224 0)
(12.7256 7.12384 0)
(13.2095 7.42222 0)
(13.8029 7.67682 0)
(10.0001 0.158037 0)
(10.0005 0.313578 0)
(10.0012 0.468603 0)
(10.0026 0.624897 0)
(10.005 0.783913 0)
(10.0089 0.946906 0)
(10.0147 1.11505 0)
(10.0231 1.28944 0)
(10.0349 1.47105 0)
(10.0508 1.6608 0)
(10.0719 1.85954 0)
(10.0992 2.06802 0)
(10.134 2.28694 0)
(10.1776 2.51689 0)
(10.2317 2.75834 0)
(10.298 3.01164 0)
(10.3786 3.27696 0)
(10.4758 3.55421 0)
(10.592 3.843 0)
(10.7302 4.14255 0)
(10.8933 4.45155 0)
(11.0846 4.76804 0)
(11.3073 5.08926 0)
(11.5646 5.41155 0)
(11.8595 5.73015 0)
(12.1942 6.03925 0)
(12.57 6.332 0)
(12.987 6.60063 0)
(13.4381 6.83685 0)
(13.9786 7.03393 0)
(10.0006 0.157499 0)
(10.0026 0.312454 0)
(10.0064 0.466751 0)
(10.0119 0.622083 0)
(10.0194 0.779823 0)
(10.0294 0.94114 0)
(10.0425 1.10712 0)
(10.0591 1.27873 0)
(10.0801 1.45684 0)
(10.1063 1.64225 0)
(10.1386 1.83563 0)
(10.1781 2.03757 0)
(10.2259 2.24855 0)
(10.2835 2.46894 0)
(10.3524 2.69895 0)
(10.4342 2.93864 0)
(10.5307 3.18782 0)
(10.6441 3.44607 0)
(10.7764 3.71262 0)
(10.93 3.9863 0)
(11.1073 4.26545 0)
(11.3107 4.54785 0)
(11.5427 4.83059 0)
(11.8051 5.11009 0)
(12.0997 5.38199 0)
(12.4274 5.64124 0)
(12.7882 5.88221 0)
(13.1812 6.09884 0)
(13.5998 6.28492 0)
(14.0918 6.43605 0)
(10.0011 0.156165 0)
(10.0047 0.309748 0)
(10.0113 0.462525 0)
(10.0207 0.616092 0)
(10.0332 0.771732 0)
(10.0491 0.93052 0)
(10.069 1.09344 0)
(10.0934 1.26135 0)
(10.1231 1.435 0)
(10.1588 1.61505 0)
(10.2014 1.80202 0)
(10.252 1.99633 0)
(10.3117 2.19828 0)
(10.3818 2.40802 0)
(10.4635 2.62553 0)
(10.5585 2.85061 0)
(10.6684 3.08283 0)
(10.7948 3.32148 0)
(10.9396 3.56554 0)
(11.1046 3.8136 0)
(11.2916 4.06382 0)
(11.5024 4.3139 0)
(11.7384 4.56103 0)
(12.0009 4.80186 0)
(12.2905 5.03255 0)
(12.6072 5.24886 0)
(12.9503 5.44625 0)
(13.3184 5.62008 0)
(13.7054 5.76578 0)
(14.1535 5.88046 0)
(10.0016 0.154028 0)
(10.0067 0.305449 0)
(10.016 0.455917 0)
(10.0292 0.606921 0)
(10.0463 0.759647 0)
(10.0678 0.915074 0)
(10.0941 1.07408 0)
(10.1258 1.23741 0)
(10.1635 1.40571 0)
(10.2079 1.57948 0)
(10.2599 1.75911 0)
(10.3205 1.94486 0)
(10.3906 2.13687 0)
(10.4715 2.33509 0)
(10.5642 2.53932 0)
(10.6703 2.74916 0)
(10.7908 2.96398 0)
(10.9274 3.18289 0)
(11.0814 3.4047 0)
(11.2542 3.62789 0)
(11.4471 3.85059 0)
(11.6611 4.07056 0)
(11.8972 4.28517 0)
(12.1558 4.49144 0)
(12.437 4.6861 0)
(12.7402 4.86564 0)
(13.0642 5.02649 0)
(13.4073 5.16514 0)
(13.7644 5.27826 0)
(14.1724 5.36392 0)
(10.002 0.151092 0)
(10.0086 0.299561 0)
(10.0204 0.446937 0)
(10.0371 0.594594 0)
(10.0587 0.743616 0)
(10.0854 0.894882 0)
(10.1176 1.04916 0)
(10.1559 1.2071 0)
(10.2009 1.36922 0)
(10.2532 1.53589 0)
(10.3136 1.70738 0)
(10.383 1.8838 0)
(10.4622 2.06514 0)
(10.5522 2.25122 0)
(10.6541 2.44167 0)
(10.769 2.63594 0)
(10.8979 2.83328 0)
(11.042 3.03267 0)
(11.2022 3.23287 0)
(11.3797 3.43233 0)
(11.5751 3.62924 0)
(11.7891 3.8215 0)
(12.0221 4.00677 0)
(12.274 4.18245 0)
(12.5444 4.34581 0)
(12.8325 4.49404 0)
(13.1368 4.62433 0)
(13.4555 4.73406 0)
(13.7843 4.82084 0)
(14.1558 4.88339 0)
(10.0024 0.147365 0)
(10.0104 0.292106 0)
(10.0245 0.435621 0)
(10.0445 0.579166 0)
(10.0701 0.723722 0)
(10.1016 0.870067 0)
(10.1393 1.01887 0)
(10.1836 1.17067 0)
(10.2352 1.32586 0)
(10.2945 1.48472 0)
(10.3622 1.6474 0)
(10.4392 1.81388 0)
(10.526 1.98403 0)
(10.6236 2.15755 0)
(10.7329 2.33396 0)
(10.8546 2.51262 0)
(10.9896 2.69268 0)
(11.1387 2.8731 0)
(11.3027 3.05261 0)
(11.4821 3.22973 0)
(11.6774 3.40277 0)
(11.8888 3.56984 0)
(12.1162 3.72887 0)
(12.3594 3.87768 0)
(12.6176 4.01403 0)
(12.8897 4.13568 0)
(13.1743 4.24048 0)
(13.4695 4.3265 0)
(13.7717 4.392 0)
(14.1101 4.4362 0)
(10.0028 0.142862 0)
(10.012 0.283115 0)
(10.0284 0.422022 0)
(10.0513 0.56072 0)
(10.0807 0.700085 0)
(10.1165 0.840796 0)
(10.159 0.983424 0)
(10.2088 1.1284 0)
(10.2661 1.27603 0)
(10.3315 1.42649 0)
(10.4056 1.57981 0)
(10.4889 1.73589 0)
(10.5821 1.8945 0)
(10.6858 2.05524 0)
(10.8007 2.21758 0)
(10.9274 2.38081 0)
(11.0665 2.54406 0)
(11.2186 2.70627 0)
(11.384 2.86624 0)
(11.5632 3.02258 0)
(11.7561 3.17375 0)
(11.9629 3.3181 0)
(12.183 3.45387 0)
(12.4161 3.57924 0)
(12.6611 3.6924 0)
(12.917 3.7916 0)
(13.1822 3.87521 0)
(13.4552 3.94182 0)
(13.7327 3.99021 0)
(14.0409 4.01993 0)
(10.0031 0.137606 0)
(10.0135 0.272634 0)
(10.0318 0.406214 0)
(10.0575 0.539362 0)
(10.0902 0.672853 0)
(10.1299 0.80727 0)
(10.1768 0.943089 0)
(10.2313 1.08065 0)
(10.2937 1.22017 0)
(10.3643 1.36173 0)
(10.4437 1.50528 0)
(10.5322 1.65065 0)
(10.6304 1.79753 0)
(10.7388 1.94548 0)
(10.8577 2.0939 0)
(10.9878 2.24207 0)
(11.1292 2.38914 0)
(11.2824 2.53408 0)
(11.4476 2.67578 0)
(11.6247 2.81297 0)
(11.8137 2.94431 0)
(12.0142 3.06835 0)
(12.2259 3.18363 0)
(12.448 3.28866 0)
(12.6795 3.38201 0)
(12.9192 3.46233 0)
(13.1658 3.52841 0)
(13.4178 3.57922 0)
(13.6724 3.61394 0)
(13.9531 3.63233 0)
(10.0034 0.131623 0)
(10.0148 0.260718 0)
(10.035 0.388284 0)
(10.0631 0.515219 0)
(10.0987 0.642199 0)
(10.1419 0.769717 0)
(10.1926 0.898162 0)
(10.2512 1.02779 0)
(10.3178 1.15874 0)
(10.3928 1.29102 0)
(10.4765 1.42452 0)
(10.5692 1.559 0)
(10.6713 1.6941 0)
(10.783 1.82936 0)
(10.9047 1.96417 0)
(11.0366 2.09782 0)
(11.1789 2.22948 0)
(11.3317 2.35821 0)
(11.495 2.48299 0)
(11.6686 2.60269 0)
(11.8524 2.71615 0)
(12.0458 2.82217 0)
(12.2482 2.91951 0)
(12.4588 3.00701 0)
(12.6768 3.08354 0)
(12.9008 3.14806 0)
(13.1297 3.1997 0)
(13.362 3.23774 0)
(13.5955 3.26162 0)
(13.8513 3.27128 0)
(10.0037 0.124945 0)
(10.016 0.247432 0)
(10.0377 0.368334 0)
(10.068 0.488435 0)
(10.1063 0.608317 0)
(10.1524 0.72839 0)
(10.2064 0.848963 0)
(10.2684 0.970221 0)
(10.3387 1.09223 0)
(10.4172 1.21495 0)
(10.5043 1.3382 0)
(10.6002 1.46173 0)
(10.705 1.58514 0)
(10.8189 1.70796 0)
(10.9421 1.82959 0)
(11.0746 1.94935 0)
(11.2165 2.06647 0)
(11.3677 2.1801 0)
(11.5281 2.28932 0)