/*--------------------------------*- C++ -*----------------------------------*\
  =========                 |
  \\      /  F ield         | OpenFOAM: The Open Source CFD Toolbox
   \\    /   O peration     | Website:  https://openfoam.org
    \\  /    A nd           | Version:  7
     \\/     M anipulation  |
\*---------------------------------------------------------------------------*/
FoamFile
{
    version     2.0;
    format      ascii;
    class       surfaceScalarField;
    location    "6.44";
    object      phi;
}
// * * * * * * * * * * * * * * * * * * * * * * * * * * * * * * * * * * * * * //

dimensions      [1 0 -1 0 0 0 0];

internalField   nonuniform List<scalar> 
23692
(
1.1905e-05
-2.70391e-07
1.23702e-05
-4.64948e-07
1.29985e-05
-6.27942e-07
1.37644e-05
-7.65315e-07
1.46494e-05
-8.8421e-07
1.56399e-05
-9.89681e-07
1.67264e-05
-1.08546e-06
1.79018e-05
-1.17432e-06
1.91612e-05
-1.25812e-06
2.05004e-05
-1.3378e-06
2.19153e-05
-1.41345e-06
2.34014e-05
-1.4845e-06
2.49528e-05
-1.54981e-06
2.65626e-05
-1.60799e-06
2.8222e-05
-1.6576e-06
2.99212e-05
-1.69731e-06
3.16492e-05
-1.72614e-06
3.33947e-05
-1.74348e-06
3.51458e-05
-1.74913e-06
3.68912e-05
-1.74332e-06
3.86199e-05
-1.7266e-06
4.03218e-05
-1.69979e-06
4.19878e-05
-1.66391e-06
4.361e-05
-1.62009e-06
4.51817e-05
-1.56952e-06
4.66972e-05
-1.51337e-06
4.81522e-05
-1.45278e-06
4.95431e-05
-1.38879e-06
5.08677e-05
-1.32239e-06
5.21243e-05
-1.25442e-06
5.33121e-05
-1.18566e-06
5.44309e-05
-1.11676e-06
5.54813e-05
-1.04828e-06
5.64641e-05
-9.80693e-07
5.73805e-05
-9.14393e-07
5.82322e-05
-8.49697e-07
5.9021e-05
-7.86857e-07
5.9749e-05
-7.2607e-07
6.04184e-05
-6.67485e-07
6.10315e-05
-6.11207e-07
6.15905e-05
-5.57308e-07
6.20981e-05
-5.05825e-07
6.25565e-05
-4.56771e-07
6.29682e-05
-4.10136e-07
6.33357e-05
-3.6589e-07
6.36611e-05
-3.23987e-07
6.39468e-05
-2.84362e-07
6.4195e-05
-2.46941e-07
6.44078e-05
-2.11633e-07
6.45873e-05
-1.78338e-07
6.47352e-05
-1.46944e-07
6.48534e-05
-1.17325e-07
6.49436e-05
-8.93465e-08
6.50071e-05
-6.28594e-08
6.50454e-05
-3.77036e-08
6.50595e-05
-1.37058e-08
6.50505e-05
9.30977e-09
6.50192e-05
3.15235e-08
6.49662e-05
5.31415e-08
6.48917e-05
7.44027e-08
6.4796e-05
9.5578e-08
6.46788e-05
1.16973e-07
6.45394e-05
1.38936e-07
6.43771e-05
1.61871e-07
6.41902e-05
1.86249e-07
6.39768e-05
2.12637e-07
6.37343e-05
2.41725e-07
6.3459e-05
2.74374e-07
6.31463e-05
3.11691e-07
6.279e-05
3.55136e-07
6.23822e-05
4.067e-07
6.19117e-05
4.69196e-07
6.13636e-05
5.46757e-07
6.07166e-05
6.45715e-07
5.99389e-05
7.76225e-07
5.89822e-05
9.5537e-07
5.77674e-05
1.21336e-06
5.61591e-05
1.60682e-06
5.39044e-05
2.25327e-06
5.04563e-05
3.44673e-06
6.46198e-06
4.39929e-05
1.27295e-05
-5.51344e-07
1.32241e-05
-9.59212e-07
1.3894e-05
-1.29739e-06
1.47112e-05
-1.58189e-06
1.5656e-05
-1.82829e-06
1.67141e-05
-2.04686e-06
1.78751e-05
-2.24533e-06
1.91315e-05
-2.42951e-06
2.0478e-05
-2.60325e-06
2.19102e-05
-2.7685e-06
2.34238e-05
-2.9255e-06
2.5014e-05
-3.07301e-06
2.66746e-05
-3.2087e-06
2.83982e-05
-3.32967e-06
3.01754e-05
-3.43287e-06
3.19956e-05
-3.51558e-06
3.38473e-05
-3.57572e-06
3.57179e-05
-3.61201e-06
3.7595e-05
-3.62405e-06
3.94661e-05
-3.61226e-06
4.13196e-05
-3.57781e-06
4.31444e-05
-3.52239e-06
4.49309e-05
-3.44813e-06
4.66705e-05
-3.35738e-06
4.83559e-05
-3.25259e-06
4.99811e-05
-3.13622e-06
5.15412e-05
-3.01061e-06
5.30327e-05
-2.87796e-06
5.44529e-05
-2.74027e-06
5.58001e-05
-2.59935e-06
5.70735e-05
-2.45678e-06
5.8273e-05
-2.31391e-06
5.93988e-05
-2.17192e-06
6.04522e-05
-2.03179e-06
6.14343e-05
-1.89432e-06
6.23469e-05
-1.76017e-06
6.3192e-05
-1.62987e-06
6.39718e-05
-1.50382e-06
6.46887e-05
-1.38234e-06
6.53451e-05
-1.26563e-06
6.59435e-05
-1.15385e-06
6.64866e-05
-1.04707e-06
6.6977e-05
-9.45321e-07
6.74171e-05
-8.48576e-07
6.78096e-05
-7.56772e-07
6.8157e-05
-6.69811e-07
6.84616e-05
-5.87562e-07
6.87259e-05
-5.09866e-07
6.89521e-05
-4.36536e-07
6.91423e-05
-3.67364e-07
6.92985e-05
-3.02115e-07
6.94227e-05
-2.4053e-07
6.95165e-05
-1.82329e-07
6.95816e-05
-1.27203e-07
6.96193e-05
-7.4822e-08
6.96309e-05
-2.48268e-08
6.96174e-05
2.31424e-08
6.95797e-05
6.94561e-08
6.95184e-05
1.14539e-07
6.94339e-05
1.58881e-07
6.93263e-05
2.03036e-07
6.91954e-05
2.47624e-07
6.90405e-05
2.93351e-07
6.88608e-05
3.41028e-07
6.86548e-05
3.91605e-07
6.84205e-05
4.46207e-07
6.81551e-05
5.062e-07
6.78552e-05
5.73272e-07
6.75163e-05
6.49563e-07
6.71324e-05
7.37857e-07
6.66959e-05
8.41882e-07
6.6197e-05
9.66777e-07
6.56225e-05
1.11986e-06
6.49549e-05
1.31188e-06
6.41705e-05
1.55916e-06
6.3237e-05
1.88729e-06
6.21115e-05
2.33737e-06
6.07397e-05
2.97703e-06
5.90693e-05
3.92214e-06
5.71389e-05
5.37562e-06
7.61062e-06
5.59888e-05
1.36081e-05
-8.40148e-07
1.41303e-05
-1.48113e-06
1.48407e-05
-2.00731e-06
1.57098e-05
-2.45026e-06
1.67161e-05
-2.83378e-06
1.78442e-05
-3.17393e-06
1.90828e-05
-3.48283e-06
2.04242e-05
-3.76959e-06
2.18626e-05
-4.04022e-06
2.33935e-05
-4.29781e-06
2.50124e-05
-4.54274e-06
2.67143e-05
-4.77308e-06
2.84927e-05
-4.9852e-06
3.03395e-05
-5.17452e-06
3.2245e-05
-5.33624e-06
3.41976e-05
-5.46608e-06
3.61848e-05
-5.56073e-06
3.81932e-05
-5.61815e-06
4.02092e-05
-5.6377e-06
4.22193e-05
-5.62002e-06
4.42108e-05
-5.5669e-06
4.61718e-05
-5.48102e-06
4.80918e-05
-5.36568e-06
4.99614e-05
-5.22455e-06
5.17728e-05
-5.0615e-06
5.35194e-05
-4.88033e-06
5.5196e-05
-4.68474e-06
5.67987e-05
-4.47816e-06
5.83246e-05
-4.26372e-06
5.9772e-05
-4.04423e-06
6.11398e-05
-3.82216e-06
6.2428e-05
-3.59963e-06
6.36369e-05
-3.37848e-06
6.47677e-05
-3.16021e-06
6.58218e-05
-2.9461e-06
6.68011e-05
-2.73716e-06
6.77077e-05
-2.53422e-06
6.8544e-05
-2.33789e-06
6.93125e-05
-2.14867e-06
7.00159e-05
-1.96688e-06
7.06568e-05
-1.79274e-06
7.12381e-05
-1.62638e-06
7.17625e-05
-1.46784e-06
7.22328e-05
-1.31706e-06
7.26518e-05
-1.17396e-06
7.3022e-05
-1.03837e-06
7.33461e-05
-9.10089e-07
7.36265e-05
-7.88866e-07
7.38658e-05
-6.74409e-07
7.40661e-05
-5.66391e-07
7.42295e-05
-4.64446e-07
7.43582e-05
-3.68173e-07
7.44539e-05
-2.77132e-07
7.45183e-05
-1.90848e-07
7.4553e-05
-1.08806e-07
7.45591e-05
-3.04557e-08
7.45379e-05
4.47524e-08
7.44902e-05
1.17385e-07
7.44167e-05
1.88099e-07
7.43179e-05
2.57644e-07
7.4194e-05
3.26856e-07
7.40446e-05
3.96669e-07
7.38694e-05
4.68139e-07
7.36674e-05
5.4247e-07
7.34372e-05
6.21058e-07
7.31771e-05
7.0554e-07
7.28844e-05
7.97877e-07
7.25562e-05
9.00453e-07
7.21884e-05
1.01624e-06
7.1776e-05
1.14899e-06
7.13129e-05
1.30362e-06
7.07917e-05
1.48659e-06
7.02033e-05
1.70673e-06
6.95375e-05
1.97616e-06
6.87831e-05
2.31189e-06
6.79309e-05
2.73788e-06
6.69789e-05
3.28773e-06
6.5947e-05
4.00728e-06
6.49122e-05
4.95535e-06
6.40957e-05
6.19045e-06
7.69592e-06
6.40089e-05
1.4546e-05
-1.13532e-06
1.50938e-05
-2.02869e-06
1.58439e-05
-2.75689e-06
1.6765e-05
-3.37067e-06
1.78342e-05
-3.90201e-06
1.90345e-05
-4.37321e-06
2.03542e-05
-4.80121e-06
2.17847e-05
-5.19873e-06
2.33202e-05
-5.57418e-06
2.4956e-05
-5.93192e-06
2.66876e-05
-6.27253e-06
2.85098e-05
-6.59332e-06
3.04158e-05
-6.8892e-06
3.23971e-05
-7.15371e-06
3.44432e-05
-7.38011e-06
3.65417e-05
-7.5623e-06
3.8679e-05
-7.69559e-06
4.08403e-05
-7.77706e-06
4.30108e-05
-7.80574e-06
4.51758e-05
-7.78252e-06
4.73214e-05
-7.70987e-06
4.94344e-05
-7.59152e-06
5.15035e-05
-7.43208e-06
5.35182e-05
-7.2367e-06
5.54701e-05
-7.01074e-06
5.7352e-05
-6.75957e-06
5.91583e-05
-6.48832e-06
6.08846e-05
-6.20177e-06
6.25278e-05
-5.90431e-06
6.40861e-05
-5.59984e-06
6.55583e-05
-5.2918e-06
6.69444e-05
-4.98315e-06
6.8245e-05
-4.67641e-06
6.9461e-05
-4.3737e-06
7.05942e-05
-4.07676e-06
7.16465e-05
-3.78702e-06
7.26203e-05
-3.50559e-06
7.35181e-05
-3.23334e-06
7.43427e-05
-2.97094e-06
7.50969e-05
-2.71884e-06
7.57837e-05
-2.47733e-06
7.6406e-05
-2.24658e-06
7.69669e-05
-2.02664e-06
7.74692e-05
-1.81744e-06
7.7916e-05
-1.61884e-06
7.831e-05
-1.43061e-06
7.8654e-05
-1.25247e-06
7.89508e-05
-1.08406e-06
7.92028e-05
-9.24974e-07
7.94125e-05
-7.74762e-07
7.95822e-05
-6.32914e-07
7.9714e-05
-4.98875e-07
7.98099e-05
-3.72038e-07
7.98717e-05
-2.51749e-07
7.99009e-05
-1.373e-07
7.98989e-05
-2.79482e-08
7.9867e-05
7.70466e-08
7.98062e-05
1.78453e-07
7.97173e-05
2.7717e-07
7.96007e-05
3.74203e-07
7.94567e-05
4.70664e-07
7.92853e-05
5.67783e-07
7.9086e-05
6.66938e-07
7.88582e-05
7.6968e-07
7.86008e-05
8.77786e-07
7.83121e-05
9.93307e-07
7.79903e-05
1.11865e-06
7.7633e-05
1.25667e-06
7.72371e-05
1.41085e-06
7.67994e-05
1.58542e-06
7.63159e-05
1.78566e-06
7.57827e-05
2.01824e-06
7.51963e-05
2.2916e-06
7.45543e-05
2.61648e-06
7.38581e-05
3.0064e-06
7.31163e-05
3.47797e-06
7.23517e-05
4.05056e-06
7.16131e-05
4.74411e-06
7.09932e-05
5.57348e-06
7.06474e-05
6.53451e-06
7.57094e-06
7.07707e-05
1.55481e-05
-1.43624e-06
1.61202e-05
-2.60044e-06
1.69093e-05
-3.54544e-06
1.78828e-05
-4.34339e-06
1.9016e-05
-5.03432e-06
2.0291e-05
-5.64708e-06
2.16951e-05
-6.2039e-06
2.32193e-05
-6.72145e-06
2.48576e-05
-7.21087e-06
2.66054e-05
-7.67794e-06
2.84583e-05
-8.12349e-06
3.04111e-05
-8.54399e-06
3.24567e-05
-8.93268e-06
3.45863e-05
-9.28095e-06
3.67883e-05
-9.57979e-06
3.90495e-05
-9.821e-06
4.13547e-05
-9.99824e-06
4.36878e-05
-1.01076e-05
4.60323e-05
-1.01476e-05
4.83719e-05
-1.01194e-05
5.06911e-05
-1.00263e-05
5.29755e-05
-9.87317e-06
5.52123e-05
-9.66608e-06
5.73903e-05
-9.41184e-06
5.94999e-05
-9.11753e-06
6.15334e-05
-8.79019e-06
6.34845e-05
-8.4366e-06
6.53487e-05
-8.06305e-06
6.71225e-05
-7.67528e-06
6.88039e-05
-7.2784e-06
7.03918e-05
-6.87692e-06
7.18861e-05
-6.4747e-06
7.32875e-05
-6.07503e-06
7.45972e-05
-5.68067e-06
7.58171e-05
-5.29388e-06
7.69492e-05
-4.91651e-06
7.79962e-05
-4.54999e-06
7.89609e-05
-4.19547e-06
7.98462e-05
-3.85376e-06
8.06553e-05
-3.52547e-06
8.13912e-05
-3.21097e-06
8.20574e-05
-2.91045e-06
8.26569e-05
-2.62397e-06
8.3193e-05
-2.35144e-06
8.36688e-05
-2.09264e-06
8.40874e-05
-1.8473e-06
8.44518e-05
-1.61502e-06
8.47647e-05
-1.39534e-06
8.50291e-05
-1.18773e-06
8.52473e-05
-9.91592e-07
8.5422e-05
-8.06275e-07
8.55554e-05
-6.31054e-07
8.56496e-05
-4.65149e-07
8.57064e-05
-3.07713e-07
8.57277e-05
-1.5784e-07
8.5715e-05
-1.46059e-08
8.56696e-05
1.2291e-07
8.55926e-05
2.55702e-07
8.54851e-05
3.84905e-07
8.53475e-05
5.11769e-07
8.51803e-05
6.37657e-07
8.49837e-05
7.64064e-07
8.47575e-05
8.92634e-07
8.45014e-05
1.0252e-06
8.42146e-05
1.16381e-06
8.38961e-05
1.31079e-06
8.35449e-05
1.4688e-06
8.31595e-05
1.64089e-06
8.27385e-05
1.83062e-06
8.22803e-05
2.04218e-06
8.17839e-05
2.28048e-06
8.12493e-05
2.5513e-06
8.06778e-05
2.86137e-06
8.00742e-05
3.21839e-06
7.9448e-05
3.63075e-06
7.88173e-05
4.10687e-06
7.82122e-05
4.65374e-06
7.76803e-05
5.27416e-06
7.72898e-05
5.9621e-06
7.71269e-05
6.69552e-06
7.42495e-06
7.72711e-05
1.66197e-05
-1.74303e-06
1.72153e-05
-3.19561e-06
1.80432e-05
-4.37274e-06
1.90695e-05
-5.36895e-06
2.02685e-05
-6.23227e-06
2.16209e-05
-6.9982e-06
2.31131e-05
-7.69473e-06
2.47362e-05
-8.34292e-06
2.64841e-05
-8.95696e-06
2.83524e-05
-9.54432e-06
3.03371e-05
-1.01061e-05
3.24331e-05
-1.06378e-05
3.46334e-05
-1.11307e-05
3.69285e-05
-1.15736e-05
3.93061e-05
-1.19548e-05
4.17513e-05
-1.22636e-05
4.42473e-05
-1.24915e-05
4.6776e-05
-1.26335e-05
4.93189e-05
-1.26876e-05
5.18575e-05
-1.26552e-05
5.43745e-05
-1.25404e-05
5.68538e-05
-1.23495e-05
5.9281e-05
-1.20903e-05
6.16436e-05
-1.17714e-05
6.39312e-05
-1.14021e-05
6.61352e-05
-1.09911e-05
6.82488e-05
-1.05471e-05
7.0267e-05
-1.00782e-05
7.21862e-05
-9.59144e-06
7.40043e-05
-9.09344e-06
7.57202e-05
-8.5898e-06
7.73339e-05
-8.08538e-06
7.88461e-05
-7.58432e-06
8.02584e-05
-7.09004e-06
8.15728e-05
-6.60538e-06
8.27917e-05
-6.13261e-06
8.39181e-05
-5.67354e-06
8.49549e-05
-5.22955e-06
8.59055e-05
-4.80166e-06
8.67732e-05
-4.39059e-06
8.75616e-05
-3.9968e-06
8.82741e-05
-3.6205e-06
8.89142e-05
-3.26175e-06
8.94854e-05
-2.9204e-06
8.99911e-05
-2.59621e-06
9.04347e-05
-2.28878e-06
9.08192e-05
-1.99763e-06
9.11479e-05
-1.72216e-06
9.14236e-05
-1.46172e-06
9.16491e-05
-1.21556e-06
9.18271e-05
-9.82848e-07
9.196e-05
-7.62705e-07
9.20502e-05
-5.54161e-07
9.20996e-05
-3.56177e-07
9.21103e-05
-1.67636e-07
9.20838e-05
1.25394e-08
9.20218e-05
1.85443e-07
9.19255e-05
3.52321e-07
9.1796e-05
5.14526e-07
9.16343e-05
6.73526e-07
9.14409e-05
8.30902e-07
9.12162e-05
9.88357e-07
9.09606e-05
1.14774e-06
9.06741e-05
1.31106e-06
9.03566e-05
1.48052e-06
9.00079e-05
1.65855e-06
8.96277e-05
1.84782e-06
8.9216e-05
2.0513e-06
8.8773e-05
2.27229e-06
8.82993e-05
2.51442e-06
8.77965e-05
2.78166e-06
8.72678e-05
3.07828e-06
8.67187e-05
3.40871e-06
8.6158e-05
3.7772e-06
8.55995e-05
4.18736e-06
8.50631e-05
4.64123e-06
8.4577e-05
5.13795e-06
8.41772e-05
5.67191e-06
8.39069e-05
6.23037e-06
8.38096e-05
6.79082e-06
7.31892e-06
8.39137e-05
1.77663e-05
-2.05644e-06
1.83852e-05
-3.81413e-06
1.92524e-05
-5.23923e-06
2.03327e-05
-6.44844e-06
2.15995e-05
-7.49791e-06
2.30324e-05
-8.42981e-06
2.46175e-05
-9.27828e-06
2.63456e-05
-1.00693e-05
2.82112e-05
-1.08206e-05
3.02105e-05
-1.15415e-05
3.23402e-05
-1.22336e-05
3.45958e-05
-1.2891e-05
3.69704e-05
-1.35027e-05
3.94536e-05
-1.40543e-05
4.20321e-05
-1.45305e-05
4.4689e-05
-1.49176e-05
4.74052e-05
-1.52048e-05
5.01599e-05
-1.53852e-05
5.29317e-05
-1.54564e-05
5.56997e-05
-1.54201e-05
5.8444e-05
-1.52815e-05
6.11464e-05
-1.50487e-05
6.37908e-05
-1.47314e-05
6.63632e-05
-1.43406e-05
6.88521e-05
-1.38876e-05
7.1248e-05
-1.33837e-05
7.35437e-05
-1.28395e-05
7.57338e-05
-1.2265e-05
7.78146e-05
-1.1669e-05
7.97839e-05
-1.10595e-05
8.16408e-05
-1.04434e-05
8.33854e-05
-9.82677e-06
8.50188e-05
-9.21452e-06
8.65428e-05
-8.61083e-06
8.79596e-05
-8.01914e-06
8.92723e-05
-7.44218e-06
9.04838e-05
-6.88211e-06
9.15978e-05
-6.34058e-06
9.26178e-05
-5.81879e-06
9.35476e-05
-5.3176e-06
9.43911e-05
-4.8375e-06
9.51519e-05
-4.37875e-06
9.58341e-05
-3.94137e-06
9.64413e-05
-3.52518e-06
9.69773e-05
-3.12984e-06
9.74456e-05
-2.75485e-06
9.78497e-05
-2.39962e-06
9.81929e-05
-2.06342e-06
9.84784e-05
-1.74544e-06
9.87093e-05
-1.44476e-06
9.88885e-05
-1.1604e-06
9.90184e-05
-8.91289e-07
9.91018e-05
-6.36269e-07
9.91408e-05
-3.94111e-07
9.91376e-05
-1.63506e-07
9.9094e-05
5.68062e-08
9.9012e-05
2.68081e-07
9.88929e-05
4.71774e-07
9.87382e-05
6.69456e-07
9.85489e-05
8.62784e-07
9.83262e-05
1.05351e-06
9.80707e-05
1.24347e-06
9.77833e-05
1.43464e-06
9.74646e-05
1.62911e-06
9.71151e-05
1.82909e-06
9.67357e-05
2.03695e-06
9.63272e-05
2.25517e-06
9.58908e-05
2.48639e-06
9.54283e-05
2.73334e-06
9.49423e-05
2.99883e-06
9.44367e-05
3.28561e-06
9.39169e-05
3.59627e-06
9.33908e-05
3.93296e-06
9.2869e-05
4.29705e-06
9.23657e-05
4.68863e-06
9.1899e-05
5.10584e-06
9.14908e-05
5.54407e-06
9.11655e-05
5.99504e-06
9.09477e-05
6.44605e-06
9.08568e-05
6.87962e-06
7.27447e-06
9.08992e-05
1.89935e-05
-2.3777e-06
1.96365e-05
-4.45673e-06
2.0544e-05
-6.1461e-06
2.16803e-05
-7.58371e-06
2.30176e-05
-8.83407e-06
2.45352e-05
-9.94598e-06
2.62188e-05
-1.09602e-05
2.80597e-05
-1.19084e-05
3.00532e-05
-1.28121e-05
3.21971e-05
-1.36832e-05
3.44892e-05
-1.45233e-05
3.6926e-05
-1.53252e-05
3.95006e-05
-1.60746e-05
4.2202e-05
-1.67528e-05
4.50147e-05
-1.73403e-05
4.79193e-05
-1.78192e-05
5.08932e-05
-1.81756e-05
5.3912e-05
-1.84008e-05
5.69508e-05
-1.84918e-05
5.9985e-05
-1.84509e-05
6.29918e-05
-1.82849e-05
6.59505e-05
-1.80039e-05
6.88429e-05
-1.76203e-05
7.16534e-05
-1.71476e-05
7.43694e-05
-1.66001e-05
7.69807e-05
-1.59915e-05
7.94796e-05
-1.53349e-05
8.18604e-05
-1.46423e-05
8.41196e-05
-1.39246e-05
8.6255e-05
-1.31913e-05
8.82659e-05
-1.24509e-05
9.01529e-05
-1.17103e-05
9.19175e-05
-1.09756e-05
9.35617e-05
-1.02517e-05
9.50885e-05
-9.5426e-06
9.65012e-05
-8.85153e-06
9.78033e-05
-8.181e-06
9.89988e-05
-7.53293e-06
0.000100092
-6.90869e-06
0.000101086
-6.30922e-06
0.000101987
-5.7351e-06
0.000102798
-5.18656e-06
0.000103523
-4.66359e-06
0.000104166
-4.16595e-06
0.000104732
-3.69318e-06
0.000105224
-3.24469e-06
0.000105646
-2.81972e-06
0.000106003
-2.41742e-06
0.000106296
-2.0368e-06
0.00010653
-1.67678e-06
0.000106707
-1.33619e-06
0.000106831
-1.01378e-06
0.000106905
-7.08212e-07
0.00010693
-4.18062e-07
0.000106909
-1.41848e-07
0.000106845
1.21866e-07
0.000106739
3.74498e-07
0.000106594
6.17712e-07
0.00010641
8.5326e-07
0.00010619
1.08294e-06
0.000105935
1.30862e-06
0.000105646
1.53222e-06
0.000105324
1.75574e-06
0.000104971
1.98123e-06
0.000104589
2.21081e-06
0.000104178
2.44662e-06
0.000103741
2.69083e-06
0.00010328
2.94557e-06
0.000102799
3.21289e-06
0.000102302
3.49464e-06
0.000101793
3.79239e-06
0.000101281
4.10721e-06
0.000100772
4.43948e-06
0.000100278
4.78857e-06
9.98124e-05
5.15255e-06
9.93883e-05
5.52777e-06
9.90216e-05
5.90857e-06
9.87274e-05
6.28702e-06
9.85182e-05
6.65294e-06
9.84013e-05
6.99429e-06
7.29864e-06
9.8375e-05
2.0307e-05
-2.70845e-06
2.09756e-05
-5.12484e-06
2.19256e-05
-7.0954e-06
2.31204e-05
-8.77751e-06
2.45322e-05
-1.02445e-05
2.61397e-05
-1.1552e-05
2.7929e-05
-1.27478e-05
2.98926e-05
-1.38699e-05
3.20277e-05
-1.4945e-05
3.43341e-05
-1.59872e-05
3.68121e-05
-1.69986e-05
3.94591e-05
-1.79695e-05
4.22685e-05
-1.8881e-05
4.52278e-05
-1.9709e-05
4.83185e-05
-2.04278e-05
5.1517e-05
-2.10144e-05
5.47959e-05
-2.14511e-05
5.81259e-05
-2.17273e-05
6.14772e-05
-2.18395e-05
6.4821e-05
-2.17911e-05
6.81308e-05
-2.15911e-05
7.1383e-05
-2.12524e-05
7.45572e-05
-2.07907e-05
7.76363e-05
-2.0223e-05
8.06066e-05
-1.95666e-05
8.34574e-05
-1.88384e-05
8.61807e-05
-1.80543e-05
8.87709e-05
-1.72286e-05
9.12246e-05
-1.63745e-05
9.35402e-05
-1.55031e-05
9.57174e-05
-1.46243e-05
9.77573e-05
-1.37465e-05
9.96619e-05
-1.28765e-05
0.000101434
-1.20202e-05
0.000103077
-1.11821e-05
0.000104595
-1.03659e-05
0.000105992
-9.57446e-06
0.000107272
-8.80995e-06
0.000108441
-8.07389e-06
0.000109502
-7.3673e-06
0.000110461
-6.69076e-06
0.000111322
-6.0445e-06
0.00011209
-5.42843e-06
0.000112769
-4.84221e-06
0.000113364
-4.28527e-06
0.000113879
-3.75687e-06
0.000114318
-3.25612e-06
0.000114684
-2.78198e-06
0.000114983
-2.33329e-06
0.000115217
-1.90879e-06
0.00011539
-1.50714e-06
0.000115505
-1.12689e-06
0.000115564
-7.66503e-07
0.000115572
-4.24397e-07
0.00011553
-9.89512e-08
0.000115442
2.11445e-07
0.000115308
5.08399e-07
0.000115133
7.93773e-07
0.000114917
1.06945e-06
0.000114663
1.33732e-06
0.000114372
1.59931e-06
0.000114047
1.85735e-06
0.000113688
2.11338e-06
0.0001133
2.36936e-06
0.000112882
2.62718e-06
0.000112439
2.88871e-06
0.000111973
3.15568e-06
0.000111488
3.42969e-06
0.000110987
3.71207e-06
0.000110476
4.00385e-06
0.000109961
4.30559e-06
0.000109449
4.61726e-06
0.000108948
4.93808e-06
0.000108468
5.26636e-06
0.000108019
5.59931e-06
0.000107612
5.93296e-06
0.000107256
6.26207e-06
0.00010696
6.58025e-06
0.000106731
6.88018e-06
0.000106569
7.15416e-06
7.39528e-06
0.00010647
2.17131e-05
-3.05061e-06
2.24094e-05
-5.82066e-06
2.34048e-05
-8.09003e-06
2.46621e-05
-1.00337e-05
2.61532e-05
-1.17343e-05
2.78575e-05
-1.32546e-05
2.9762e-05
-1.46504e-05
3.18614e-05
-1.59672e-05
3.41563e-05
-1.72374e-05
3.665e-05
-1.84784e-05
3.93458e-05
-1.96916e-05
4.22428e-05
-2.08636e-05
4.53338e-05
-2.19689e-05
4.86035e-05
-2.29753e-05
5.20285e-05
-2.38494e-05
5.5579e-05
-2.45614e-05
5.92209e-05
-2.50893e-05
6.29179e-05
-2.54206e-05
6.66344e-05
-2.55521e-05
7.03363e-05
-2.54892e-05
7.39931e-05
-2.5244e-05
7.75782e-05
-2.48335e-05
8.1069e-05
-2.42774e-05
8.44472e-05
-2.35971e-05
8.76983e-05
-2.28136e-05
9.08114e-05
-2.19474e-05
9.37786e-05
-2.10174e-05
9.65949e-05
-2.00408e-05
9.92574e-05
-1.90328e-05
0.000101765
-1.80067e-05
0.000104119
-1.69738e-05
0.00010632
-1.59436e-05
0.000108371
-1.49241e-05
0.000110277
-1.39219e-05
0.000112041
-1.2942e-05
0.000113668
-1.19888e-05
0.000115162
-1.10652e-05
0.00011653
-1.01736e-05
0.000117775
-9.31568e-06
0.000118904
-8.49251e-06
0.000119921
-7.70464e-06
0.000120832
-6.95224e-06
0.000121642
-6.23511e-06
0.000122356
-5.55279e-06
0.000122978
-4.90457e-06
0.000123513
-4.28956e-06
0.000123967
-3.70666e-06
0.000124342
-3.15467e-06
0.000124643
-2.63224e-06
0.000124874
-2.13792e-06
0.00012504
-1.67018e-06
0.000125142
-1.22738e-06
0.000125185
-8.07814e-07
0.000125172
-4.09686e-07
0.000125105
-3.13822e-08
0.000124989
3.28893e-07
0.000124825
6.73092e-07
0.000124616
1.00318e-06
0.000124365
1.32111e-06
0.000124074
1.62882e-06
0.000123745
1.92824e-06
0.00012338
2.22126e-06
0.000122984
2.50971e-06
0.000122557
2.79537e-06
0.000122103
3.07991e-06
0.000121626
3.36484e-06
0.000121129
3.65149e-06
0.000120616
3.94094e-06
0.000120093
4.23395e-06
0.000119564
4.53088e-06
0.000119036
4.83163e-06
0.000118516
5.13549e-06
0.000118011
5.44114e-06
0.000117528
5.74653e-06
0.000117077
6.04886e-06
0.000116663
6.34458e-06
0.000116293
6.62952e-06
0.000115971
6.89903e-06
0.000115701
7.14824e-06
0.00011548
7.37251e-06
7.56829e-06
0.000115305
2.32182e-05
-3.40635e-06
2.39451e-05
-6.5471e-06
2.49898e-05
-9.13384e-06
2.63144e-05
-1.13571e-05
2.78916e-05
-1.33099e-05
2.97015e-05
-1.50627e-05
3.17337e-05
-1.66805e-05
3.3987e-05
-1.82182e-05
3.6467e-05
-1.97148e-05
3.91824e-05
-2.1191e-05
4.21404e-05
-2.26465e-05
4.53416e-05
-2.40615e-05
4.87765e-05
-2.54005e-05
5.24246e-05
-2.66198e-05
5.62546e-05
-2.76757e-05
6.02276e-05
-2.85305e-05
6.43e-05
-2.91578e-05
6.84272e-05
-2.95437e-05
7.2566e-05
-2.96868e-05
7.6677e-05
-2.95959e-05
8.07255e-05
-2.92881e-05
8.46819e-05
-2.87855e-05
8.85221e-05
-2.81133e-05
9.2227e-05
-2.72976e-05
9.57821e-05
-2.63642e-05
9.91767e-05
-2.53376e-05
0.000102404
-2.424e-05
0.000105459
-2.30917e-05
0.000108341
-2.19101e-05
0.000111049
-2.07105e-05
0.000113585
-1.95058e-05
0.000115953
-1.83067e-05
0.000118155
-1.71223e-05
0.000120197
-1.59596e-05
0.000122084
-1.48245e-05
0.000123821
-1.37214e-05
0.000125414
-1.26537e-05
0.000126868
-1.16239e-05
0.00012819
-1.06337e-05
0.000129385
-9.68412e-06
0.00013046
-8.77568e-06
0.00013142
-7.90842e-06
0.00013227
-7.08203e-06
0.000133017
-6.29589e-06
0.000133664
-5.54909e-06
0.000134219
-4.84056e-06
0.000134684
-4.16901e-06
0.000135065
-3.53303e-06
0.000135366
-2.93108e-06
0.000135592
-2.36152e-06
0.000135747
-1.82262e-06
0.000135834
-1.31257e-06
0.000135858
-8.29483e-07
0.000135821
-3.7144e-07
0.000135728
6.33533e-08
0.000135581
4.7682e-07
0.000135384
8.71125e-07
0.00013514
1.24835e-06
0.000134851
1.6105e-06
0.00013452
1.95952e-06
0.000134151
2.29731e-06
0.000133747
2.62567e-06
0.00013331
2.94631e-06
0.000132844
3.26081e-06
0.000132352
3.57059e-06
0.000131839
3.87685e-06
0.000131309
4.18058e-06
0.000130766
4.48246e-06
0.000130215
4.78284e-06
0.000129663
5.08166e-06
0.000129114
5.37847e-06
0.000128575
5.6723e-06
0.000128052
5.96174e-06
0.000127552
6.24485e-06
0.000127079
6.51926e-06
0.000126639
6.78222e-06
0.000126235
7.03072e-06
0.00012587
7.26164e-06
0.000125544
7.47201e-06
0.000125254
7.65924e-06
7.82175e-06
0.000124998
2.4829e-05
-3.77807e-06
2.55903e-05
-7.30782e-06
2.66891e-05
-1.02317e-05
2.80876e-05
-1.27544e-05
2.97592e-05
-1.498e-05
3.16867e-05
-1.69882e-05
3.3864e-05
-1.88556e-05
3.62965e-05
-2.0648e-05
3.89974e-05
-2.2413e-05
4.19829e-05
-2.41735e-05
4.52645e-05
-2.59249e-05
4.88426e-05
-2.76361e-05
5.27026e-05
-2.92568e-05
5.68143e-05
-3.07276e-05
6.11343e-05
-3.19917e-05
6.56107e-05
-3.30029e-05
7.01882e-05
-3.3731e-05
7.48119e-05
-3.4163e-05
7.94309e-05
-3.43013e-05
8.40001e-05
-3.41606e-05
8.84812e-05
-3.37645e-05
9.28426e-05
-3.31423e-05
9.70595e-05
-3.23254e-05
0.000101113
-3.13462e-05
0.000104989
-3.02354e-05
0.000108678
-2.9022e-05
0.000112175
-2.77319e-05
0.000115476
-2.63883e-05
0.000118582
-2.50112e-05
0.000121494
-2.36176e-05
0.000124215
-2.22221e-05
0.00012675
-2.08366e-05
0.000129103
-1.94708e-05
0.000131281
-1.81326e-05
0.000133289
-1.68281e-05
0.000135134
-1.55621e-05
0.000136823
-1.43381e-05
0.000138362
-1.31587e-05
0.000139758
-1.20256e-05
0.000141018
-1.09397e-05
0.000142148
-9.9014e-06
0.000143154
-8.91058e-06
0.000144043
-7.96673e-06
0.000144819
-7.06904e-06
0.00014549
-6.2164e-06
0.000146061
-5.4075e-06
0.000146536
-4.64084e-06
0.00014692
-3.9148e-06
0.00014722
-3.22763e-06
0.000147438
-2.57748e-06
0.000147581
-1.96244e-06
0.000147651
-1.38053e-06
0.000147653
-8.29739e-07
0.000147592
-3.08015e-07
0.00014747
1.86736e-07
0.000147292
6.56561e-07
0.00014706
1.1037e-06
0.000146779
1.53034e-06
0.000146452
1.93851e-06
0.000146081
2.33017e-06
0.000145672
2.70714e-06
0.000145226
3.07115e-06
0.000144748
3.42377e-06
0.000144242
3.7664e-06
0.000143712
4.10025e-06
0.000143161
4.42629e-06
0.000142595
4.74525e-06
0.000142019
5.05757e-06
0.000141437
5.36337e-06
0.000140854
5.66243e-06
0.000140277
5.95421e-06
0.000139709
6.23779e-06
0.000139157
6.51194e-06
0.000138624
6.77513e-06
0.000138115
7.02561e-06
0.000137634
7.26146e-06
0.000137181
7.48073e-06
0.000136759
7.68156e-06
0.000136366
7.8623e-06
0.000136
8.0217e-06
8.15938e-06
0.00013566
2.65529e-05
-4.16847e-06
2.7353e-05
-8.10734e-06
2.8512e-05
-1.13897e-05
2.99926e-05
-1.42336e-05
3.17701e-05
-1.67557e-05
3.38316e-05
-1.90476e-05
3.61784e-05
-2.12e-05
3.88261e-05
-2.3293e-05
4.17993e-05
-2.53831e-05
4.51228e-05
-2.74937e-05
4.88116e-05
-2.96101e-05
5.28621e-05
-3.16828e-05
5.72487e-05
-3.36394e-05
6.19255e-05
-3.54003e-05
6.68318e-05
-3.68936e-05
7.1899e-05
-3.80655e-05
7.70576e-05
-3.88849e-05
8.22419e-05
-3.93426e-05
8.73936e-05
-3.94481e-05
9.2463e-05
-3.9225e-05
9.74093e-05
-3.87058e-05
0.000102201
-3.79283e-05
0.000106812
-3.69319e-05
0.000111227
-3.57554e-05
0.000115432
-3.44353e-05
0.00011942
-3.30052e-05
0.000123189
-3.14949e-05
0.000126736
-2.99304e-05
0.000130064
-2.83342e-05
0.000133177
-2.67251e-05
0.000136079
-2.51189e-05
0.000138776
-2.35287e-05
0.000141275
-2.19648e-05
0.000143583
-2.04356e-05
0.000145708
-1.89476e-05
0.000147656
-1.75056e-05
0.000149436
-1.61134e-05
0.000151056
-1.47733e-05
0.000152522
-1.34869e-05
0.000153841
-1.2255e-05
0.000155022
-1.10778e-05
0.000156071
-9.95494e-06
0.000156994
-8.88574e-06
0.000157798
-7.86908e-06
0.000158489
-6.90363e-06
0.000159073
-5.98781e-06
0.000159556
-5.11989e-06
0.000159942
-4.29801e-06
0.000160238
-3.52019e-06
0.000160448
-2.7844e-06
0.000160577
-2.08852e-06
0.000160629
-1.43042e-06
0.00016061
-8.07938e-07
0.000160523
-2.18926e-07
0.000160372
3.38966e-07
0.000160163
8.67964e-07
0.000159897
1.37041e-06
0.00015958
1.84853e-06
0.000159215
2.30437e-06
0.000158806
2.73986e-06
0.000158357
3.15679e-06
0.000157871
3.55678e-06
0.000157353
3.94131e-06
0.000156808
4.31165e-06
0.000156238
4.66886e-06
0.00015565
5.01378e-06
0.000155047
5.347e-06
0.000154434
5.66887e-06
0.000153817
5.97945e-06
0.000153199
6.27856e-06
0.000152586
6.56575e-06
0.000151981
6.84036e-06
0.000151389
7.10151e-06
0.000150814
7.34818e-06
0.000150258
7.57925e-06
0.000149723
7.79359e-06
0.000149211
7.99012e-06
0.000148722
8.1679e-06
0.000148256
8.32623e-06
0.00014781
8.46471e-06
8.58369e-06
0.000147383
2.83977e-05
-4.58055e-06
2.92421e-05
-8.95115e-06
3.04691e-05
-1.26156e-05
3.20424e-05
-1.58054e-05
3.3941e-05
-1.86524e-05
3.61595e-05
-2.12637e-05
3.87111e-05
-2.3749e-05
4.16265e-05
-2.62054e-05
4.49449e-05
-2.86982e-05
4.87003e-05
-3.12455e-05
5.29068e-05
-3.38127e-05
5.75496e-05
-3.63215e-05
6.25836e-05
-3.8669e-05
6.79393e-05
-4.07514e-05
7.35331e-05
-4.24826e-05
7.92769e-05
-4.38045e-05
8.50865e-05
-4.46894e-05
9.08862e-05
-4.51371e-05
9.66118e-05
-4.51684e-05
0.000102211
-4.48186e-05
0.000107642
-4.41318e-05
0.000112875
-4.31557e-05
0.000117887
-4.19384e-05
0.000122664
-4.05261e-05
0.000127195
-3.89612e-05
0.000131478
-3.72818e-05
0.00013551
-3.55215e-05
0.000139294
-3.37091e-05
0.000142835
-3.18692e-05
0.000146138
-3.00224e-05
0.00014921
-2.81855e-05
0.00015206
-2.63724e-05
0.000154694
-2.45939e-05
0.000157123
-2.28588e-05
0.000159354
-2.11735e-05
0.000161397
-1.95431e-05
0.00016326
-1.79711e-05
0.000164952
-1.64597e-05
0.00016648
-1.50102e-05
0.000167854
-1.36233e-05
0.00016908
-1.22989e-05
0.000170166
-1.10363e-05
0.000171119
-9.83445e-06
0.000171947
-8.69204e-06
0.000172655
-7.6074e-06
0.00017325
-6.57869e-06
0.000173738
-5.60391e-06
0.000174124
-4.68096e-06
0.000174415
-3.80762e-06
0.000174616
-2.98163e-06
0.000174731
-2.20069e-06
0.000174766
-1.46251e-06
0.000174725
-7.64766e-07
0.000174614
-1.05263e-07
0.000174436
5.18578e-07
0.000174197
1.10926e-06
0.0001739
1.66919e-06
0.000173549
2.2006e-06
0.000173149
2.70555e-06
0.000172704
3.18595e-06
0.000172217
3.64356e-06
0.000171694
4.07997e-06
0.000171139
4.49657e-06
0.000170556
4.89457e-06
0.000169949
5.27497e-06
0.000169324
5.63858e-06
0.000168684
5.98597e-06
0.000168034
6.31751e-06
0.000167379
6.63337e-06
0.000166722
6.93351e-06
0.000166068
7.21774e-06
0.000165421
7.48571e-06
0.000164783
7.73699e-06
0.000164158
7.97105e-06
0.000163548
8.18738e-06
0.000162953
8.38549e-06
0.000162376
8.56499e-06
0.000161816
8.72562e-06
0.000161272
8.86731e-06
0.000160744
8.99025e-06
9.09521e-06
0.000160229
3.03716e-05
-5.01782e-06
3.12671e-05
-9.84599e-06
3.25718e-05
-1.39191e-05
3.42521e-05
-1.7484e-05
3.62932e-05
-2.06914e-05
3.87019e-05
-2.367e-05
4.15099e-05
-2.65541e-05
4.47688e-05
-2.94611e-05
4.8535e-05
-3.24608e-05
5.28479e-05
-3.55545e-05
5.77121e-05
-3.86728e-05
6.30896e-05
-4.16945e-05
6.89046e-05
-4.44792e-05
7.50563e-05
-4.68982e-05
8.14342e-05
-4.88553e-05
8.79299e-05
-5.02949e-05
9.44459e-05
-5.11999e-05
0.000100899
-5.15847e-05
0.000107222
-5.14858e-05
0.000113363
-5.09536e-05
0.000119283
-5.00455e-05
0.000124954
-4.88205e-05
0.000130358
-4.7336e-05
0.000135483
-4.56456e-05
0.000140326
-4.37975e-05
0.000144885
-4.18345e-05
0.000149163
-3.97934e-05
0.000153166
-3.77057e-05
0.000156901
-3.55977e-05
0.000160376
-3.34912e-05
0.0001636
-3.14041e-05
0.000166585
-2.93505e-05
0.000169339
-2.73418e-05
0.000171873
-2.53867e-05
0.000174197
-2.34916e-05
0.000176321
-2.16613e-05
0.000178255
-1.9899e-05
0.000180008
-1.82069e-05
0.000181589
-1.65858e-05
0.000183007
-1.50359e-05
0.00018427
-1.35569e-05
0.000185387
-1.21477e-05
0.000186364
-1.0807e-05
0.00018721
-9.53295e-06
0.000187931
-8.32367e-06
0.000188534
-7.17699e-06
0.000189025
-6.09062e-06
0.000189411
-5.06217e-06
0.000189696
-4.08919e-06
0.000189887
-3.1692e-06
0.00018999
-2.29971e-06
0.000190009
-1.47823e-06
0.000189949
-7.02322e-07
0.000189816
3.03594e-08
0.000189615
7.22548e-07
0.000189349
1.37704e-06
0.000189024
1.99627e-06
0.000188644
2.58249e-06
0.000188213
3.13777e-06
0.000187736
3.66404e-06
0.000187217
4.16306e-06
0.000186661
4.63641e-06
0.000186073
5.08549e-06
0.000185456
5.51149e-06
0.000184815