/*--------------------------------*- C++ -*----------------------------------*\
  =========                 |
  \\      /  F ield         | OpenFOAM: The Open Source CFD Toolbox
   \\    /   O peration     | Website:  https://openfoam.org
    \\  /    A nd           | Version:  7
     \\/     M anipulation  |
\*---------------------------------------------------------------------------*/
FoamFile
{
    version     2.0;
    format      ascii;
    class       surfaceScalarField;
    location    "7.46";
    object      phi;
}
// * * * * * * * * * * * * * * * * * * * * * * * * * * * * * * * * * * * * * //

dimensions      [1 0 -1 0 0 0 0];

internalField   nonuniform List<scalar> 
23692
(
1.19308e-05
-2.96348e-07
1.24377e-05
-5.06624e-07
1.312e-05
-6.82e-07
1.39499e-05
-8.29459e-07
1.49073e-05
-9.56783e-07
1.59775e-05
-1.06955e-06
1.71503e-05
-1.17196e-06
1.84183e-05
-1.26713e-06
1.97764e-05
-1.35714e-06
2.12205e-05
-1.443e-06
2.27463e-05
-1.52472e-06
2.4349e-05
-1.60147e-06
2.60221e-05
-1.67183e-06
2.77575e-05
-1.73408e-06
2.95453e-05
-1.78649e-06
3.13743e-05
-1.82758e-06
3.32319e-05
-1.85624e-06
3.51053e-05
-1.8719e-06
3.69812e-05
-1.87446e-06
3.8847e-05
-1.86431e-06
4.06907e-05
-1.84221e-06
4.25014e-05
-1.80921e-06
4.42695e-05
-1.76655e-06
4.59865e-05
-1.71556e-06
4.76457e-05
-1.65761e-06
4.92412e-05
-1.59404e-06
5.07688e-05
-1.52608e-06
5.22252e-05
-1.45491e-06
5.36083e-05
-1.38156e-06
5.49167e-05
-1.30693e-06
5.615e-05
-1.23183e-06
5.73084e-05
-1.15692e-06
5.83926e-05
-1.08277e-06
5.94039e-05
-1.00986e-06
6.03438e-05
-9.38548e-07
6.12144e-05
-8.6915e-07
6.20176e-05
-8.01895e-07
6.2756e-05
-7.36961e-07
6.34318e-05
-6.74474e-07
6.40476e-05
-6.14518e-07
6.4606e-05
-5.57143e-07
6.51096e-05
-5.02369e-07
6.5561e-05
-4.50188e-07
6.59628e-05
-4.00575e-07
6.63175e-05
-3.53484e-07
6.66275e-05
-3.08855e-07
6.68952e-05
-2.66615e-07
6.71229e-05
-2.26677e-07
6.73129e-05
-1.88943e-07
6.74673e-05
-1.53306e-07
6.75879e-05
-1.19648e-07
6.76767e-05
-8.78387e-08
6.77353e-05
-5.77374e-08
6.77654e-05
-2.91911e-08
6.77683e-05
-2.03576e-09
6.77452e-05
2.38755e-08
6.76972e-05
4.87025e-08
6.76253e-05
7.26273e-08
6.75302e-05
9.5864e-08
6.74122e-05
1.18652e-07
6.72715e-05
1.4126e-07
6.71081e-05
1.6399e-07
6.69215e-05
1.87189e-07
6.67107e-05
2.11257e-07
6.64745e-05
2.36668e-07
6.6211e-05
2.63988e-07
6.59175e-05
2.93911e-07
6.55905e-05
3.27305e-07
6.52256e-05
3.65283e-07
6.48166e-05
4.09319e-07
6.43555e-05
4.61423e-07
6.38313e-05
5.24431e-07
6.3229e-05
6.02514e-07
6.25272e-05
7.02056e-07
6.16941e-05
8.33292e-07
6.06808e-05
1.01344e-06
5.9408e-05
1.27296e-06
5.77392e-05
1.66898e-06
5.54192e-05
2.32015e-06
5.18953e-05
3.52395e-06
6.58368e-06
4.53118e-05
1.2756e-05
-6.03986e-07
1.32946e-05
-1.045e-06
1.40218e-05
-1.40888e-06
1.49071e-05
-1.71427e-06
1.59291e-05
-1.97814e-06
1.70721e-05
-2.21184e-06
1.8325e-05
-2.42405e-06
1.96802e-05
-2.62133e-06
2.11321e-05
-2.80798e-06
2.26763e-05
-2.98611e-06
2.43086e-05
-3.15575e-06
2.60236e-05
-3.3152e-06
2.78146e-05
-3.46148e-06
2.96729e-05
-3.591e-06
3.1588e-05
-3.70017e-06
3.35477e-05
-3.78584e-06
3.55388e-05
-3.84575e-06
3.7547e-05
-3.87864e-06
3.95585e-05
-3.88432e-06
4.15593e-05
-3.86358e-06
4.35367e-05
-3.818e-06
4.54789e-05
-3.74975e-06
4.73754e-05
-3.66142e-06
4.92172e-05
-3.55578e-06
5.09969e-05
-3.43568e-06
5.27084e-05
-3.30388e-06
5.43469e-05
-3.16299e-06
5.5909e-05
-3.0154e-06
5.73923e-05
-2.86329e-06
5.87955e-05
-2.70853e-06
6.0118e-05
-2.55279e-06
6.13601e-05
-2.39745e-06
6.25226e-05
-2.2437e-06
6.36068e-05
-2.0925e-06
6.46144e-05
-1.94463e-06
6.55474e-05
-1.80073e-06
6.64083e-05
-1.66127e-06
6.71994e-05
-1.52663e-06
6.79234e-05
-1.39706e-06
6.8583e-05
-1.27273e-06
6.9181e-05
-1.15375e-06
6.97201e-05
-1.04016e-06
7.02032e-05
-9.31933e-07
7.06329e-05
-8.29025e-07
7.1012e-05
-7.31338e-07
7.13431e-05
-6.38743e-07
7.16288e-05
-5.51088e-07
7.18715e-05
-4.68191e-07
7.20735e-05
-3.89852e-07
7.22371e-05
-3.15845e-07
7.23644e-05
-2.45924e-07
7.24574e-05
-1.7982e-07
7.25179e-05
-1.17241e-07
7.25475e-05
-5.78684e-08
7.25477e-05
-1.36697e-09
7.25199e-05
5.25621e-08
7.24652e-05
1.04259e-07
7.23845e-05
1.54099e-07
7.22786e-05
2.0252e-07
7.21479e-05
2.50015e-07
7.19927e-05
2.97128e-07
7.18128e-05
3.44477e-07
7.16078e-05
3.9276e-07
7.13769e-05
4.42789e-07
7.11185e-05
4.9551e-07
7.08309e-05
5.52052e-07
7.05115e-05
6.13787e-07
7.01568e-05
6.82413e-07
6.97623e-05
7.60089e-07
6.93224e-05
8.49623e-07
6.88293e-05
9.54779e-07
6.82733e-05
1.08074e-06
6.76412e-05
1.2349e-06
6.69154e-05
1.4281e-06
6.60721e-05
1.67681e-06
6.50789e-05
2.00683e-06
6.38923e-05
2.45965e-06
6.2458e-05
3.10353e-06
6.07227e-05
4.05551e-06
5.87257e-05
5.52109e-06
7.78184e-06
5.75277e-05
1.36346e-05
-9.19702e-07
1.42029e-05
-1.61301e-06
1.49736e-05
-2.17923e-06
1.59146e-05
-2.65472e-06
1.70026e-05
-3.06546e-06
1.82207e-05
-3.42917e-06
1.9557e-05
-3.75948e-06
2.10034e-05
-4.06668e-06
2.25541e-05
-4.35753e-06
2.42045e-05
-4.63534e-06
2.59503e-05
-4.90021e-06
2.77859e-05
-5.14944e-06
2.97042e-05
-5.3784e-06
3.16962e-05
-5.58141e-06
3.37503e-05
-5.75278e-06
3.58536e-05
-5.88756e-06
3.79916e-05
-5.98212e-06
4.01491e-05
-6.03446e-06
4.23107e-05
-6.04427e-06
4.44616e-05
-6.01274e-06
4.65876e-05
-5.94233e-06
4.86761e-05
-5.83646e-06
5.07155e-05
-5.69917e-06
5.26963e-05
-5.5348e-06
5.46102e-05
-5.34782e-06
5.64506e-05
-5.14255e-06
5.82124e-05
-4.92307e-06
5.98919e-05
-4.69316e-06
6.14865e-05
-4.45616e-06
6.29947e-05
-4.21506e-06
6.4416e-05
-3.97242e-06
6.57506e-05
-3.73043e-06
6.69995e-05
-3.49091e-06
6.8164e-05
-3.25537e-06
6.92461e-05
-3.02505e-06
7.02478e-05
-2.80091e-06
7.11718e-05
-2.58369e-06
7.20207e-05
-2.37398e-06
7.27974e-05
-2.17216e-06
7.35046e-05
-1.97852e-06
7.41455e-05
-1.79319e-06
7.47231e-05
-1.61624e-06
7.52402e-05
-1.44764e-06
7.56998e-05
-1.2873e-06
7.61049e-05
-1.13507e-06
7.64582e-05
-9.90745e-07
7.67625e-05
-8.54086e-07
7.70203e-05
-7.2481e-07
7.72343e-05
-6.026e-07
7.74067e-05
-4.87104e-07
7.75398e-05
-3.77937e-07
7.76358e-05
-2.7468e-07
7.76965e-05
-1.76878e-07
7.77236e-05
-8.40384e-08
7.77189e-05
4.35207e-09
7.76836e-05
8.87475e-08
7.7619e-05
1.69691e-07
7.75262e-05
2.47759e-07
7.74059e-05
3.23627e-07
7.72586e-05
3.98042e-07
7.70846e-05
4.7183e-07
7.68839e-05
5.45917e-07
7.66559e-05
6.21353e-07
7.63999e-05
6.99338e-07
7.61147e-05
7.81265e-07
7.57985e-05
8.68775e-07
7.54489e-05
9.63837e-07
7.50629e-05
1.06885e-06
7.46366e-05
1.18681e-06
7.41651e-05
1.32152e-06
7.36423e-05
1.47791e-06
7.30608e-05
1.66254e-06
7.24116e-05
1.8843e-06
7.16845e-05
2.15545e-06
7.08684e-05
2.49315e-06
6.99539e-05
2.9216e-06
6.8939e-05
3.47468e-06
6.7844e-05
4.19868e-06
6.67467e-05
5.15297e-06
6.58711e-05
6.39684e-06
7.91595e-06
6.57372e-05
1.45721e-05
-1.24167e-06
1.51675e-05
-2.2082e-06
1.59806e-05
-2.99186e-06
1.69772e-05
-3.65078e-06
1.81323e-05
-4.21986e-06
1.94277e-05
-4.72373e-06
2.08507e-05
-5.18146e-06
2.23925e-05
-5.60744e-06
2.40473e-05
-6.01117e-06
2.58107e-05
-6.39735e-06
2.7678e-05
-6.76614e-06
2.96438e-05
-7.1138e-06
3.17007e-05
-7.43377e-06
3.3839e-05
-7.71806e-06
3.60464e-05
-7.95857e-06
3.83089e-05
-8.14826e-06
4.06104e-05
-8.28196e-06
4.29346e-05
-8.35679e-06
4.52643e-05
-8.37223e-06
4.75833e-05
-8.32992e-06
4.98761e-05
-8.23331e-06
5.21287e-05
-8.08718e-06
5.43286e-05
-7.89716e-06
5.6465e-05
-7.66938e-06
5.85291e-05
-7.41006e-06
6.05137e-05
-7.12526e-06
6.24131e-05
-6.82069e-06
6.42234e-05
-6.50161e-06
6.59418e-05
-6.17272e-06
6.75667e-05
-5.83814e-06
6.90976e-05
-5.50146e-06
7.05347e-05
-5.16571e-06
7.1879e-05
-4.83343e-06
7.31321e-05
-4.50671e-06
7.4296e-05
-4.18726e-06
7.53732e-05
-3.8764e-06
7.63664e-05
-3.57518e-06
7.72784e-05
-3.28437e-06
7.81124e-05
-3.00453e-06
7.88715e-05
-2.73601e-06
7.95589e-05
-2.47902e-06
8.01779e-05
-2.23364e-06
8.07315e-05
-1.99982e-06
8.12231e-05
-1.77742e-06
8.16557e-05
-1.56623e-06
8.20324e-05
-1.36597e-06
8.23559e-05
-1.1763e-06
8.26293e-05
-9.96812e-07
8.2855e-05
-8.27073e-07
8.30358e-05
-6.6659e-07
8.31739e-05
-5.14831e-07
8.32716e-05
-3.71215e-07
8.33309e-05
-2.35114e-07
8.33538e-05
-1.05847e-07
8.33419e-05
1.72626e-08
8.32968e-05
1.34863e-07
8.32197e-05
2.4768e-07
8.31119e-05
3.56522e-07
8.2974e-05
4.62298e-07
8.28069e-05
5.66007e-07
8.26107e-05
6.6875e-07
8.23856e-05
7.71745e-07
8.21313e-05
8.76361e-07
8.18471e-05
9.84145e-07
8.15321e-05
1.09687e-06
8.11848e-05
1.21659e-06
8.08034e-05
1.34572e-06
8.03856e-05
1.48714e-06
7.99285e-05
1.64435e-06
7.94288e-05
1.82163e-06
7.88827e-05
2.02432e-06
7.82864e-05
2.25915e-06
7.76364e-05
2.53464e-06
7.69305e-05
2.86166e-06
7.617e-05
3.25386e-06
7.53638e-05
3.72804e-06
7.45349e-05
4.30371e-06
7.37328e-05
5.00104e-06
7.30509e-05
5.83502e-06
7.26463e-05
6.8016e-06
7.84524e-06
7.27172e-05
1.55736e-05
-1.56905e-06
1.61943e-05
-2.82871e-06
1.70487e-05
-3.84574e-06
1.81009e-05
-4.7024e-06
1.93242e-05
-5.44244e-06
2.06991e-05
-6.09774e-06
2.22121e-05
-6.69336e-06
2.38541e-05
-7.24824e-06
2.56192e-05
-7.77498e-06
2.75031e-05
-8.27988e-06
2.95016e-05
-8.76319e-06
3.16094e-05
-9.21996e-06
3.38187e-05
-9.64145e-06
3.61193e-05
-1.00169e-05
3.8498e-05
-1.03355e-05
4.09391e-05
-1.05876e-05
4.34252e-05
-1.07662e-05
4.59377e-05
-1.08674e-05
4.8458e-05
-1.08905e-05
5.09675e-05
-1.08375e-05
5.34493e-05
-1.07131e-05
5.58876e-05
-1.05235e-05
5.82686e-05
-1.02762e-05
6.05806e-05
-9.97937e-06
6.28137e-05
-9.64117e-06
6.49601e-05
-9.26963e-06
6.70137e-05
-8.87228e-06
6.89701e-05
-8.45602e-06
7.08263e-05
-8.02701e-06
7.25808e-05
-7.59068e-06
7.4233e-05
-7.1517e-06
7.57833e-05
-6.71403e-06
7.72327e-05
-6.28098e-06
7.85832e-05
-5.85528e-06
7.98369e-05
-5.43911e-06
8.09965e-05
-5.03422e-06
8.20651e-05
-4.64194e-06
8.30458e-05
-4.26327e-06
8.39419e-05
-3.89891e-06
8.47569e-05
-3.54932e-06
8.54943e-05
-3.21474e-06
8.61576e-05
-2.89527e-06
8.67502e-05
-2.59082e-06
8.72756e-05
-2.30123e-06
8.77371e-05
-2.02618e-06
8.8138e-05
-1.76532e-06
8.84813e-05
-1.51817e-06
8.87701e-05
-1.28423e-06
8.90073e-05
-1.06291e-06
8.91957e-05
-8.53569e-07
8.93376e-05
-6.55521e-07
8.94357e-05
-4.68011e-07
8.9492e-05
-2.90231e-07
8.95086e-05
-1.21305e-07
8.94874e-05
3.96185e-08
8.94299e-05
1.93371e-07
8.93377e-05
3.40882e-07
8.9212e-05
4.83193e-07
8.90538e-05
6.21445e-07
8.88638e-05
7.56877e-07
8.86425e-05
8.90838e-07
8.83902e-05
1.02481e-06
8.81069e-05
1.16042e-06
8.77922e-05
1.2995e-06
8.74456e-05
1.4441e-06
8.70662e-05
1.59653e-06
8.6653e-05
1.75947e-06
8.62047e-05
1.93599e-06
8.57198e-05
2.12968e-06
8.51971e-05
2.34476e-06
8.46356e-05
2.5862e-06
8.40353e-05
2.85984e-06
8.33978e-05
3.17249e-06
8.27278e-05
3.53194e-06
8.20352e-05
3.94667e-06
8.13383e-05
4.42522e-06
8.06676e-05
4.97464e-06
8.00711e-05
5.59778e-06
7.96177e-05
6.28861e-06
7.93944e-05
7.02504e-06
7.75772e-06
7.94821e-05
1.66444e-05
-1.90188e-06
1.72894e-05
-3.47347e-06
1.81845e-05
-4.74033e-06
1.92926e-05
-5.80983e-06
2.05855e-05
-6.73454e-06
2.20425e-05
-7.55375e-06
2.36493e-05
-8.29905e-06
2.53968e-05
-8.99449e-06
2.72794e-05
-9.65623e-06
2.92935e-05
-1.02924e-05
3.14353e-05
-1.09034e-05
3.36999e-05
-1.14828e-05
3.60795e-05
-1.20193e-05
3.8563e-05
-1.24986e-05
4.11361e-05
-1.29066e-05
4.37812e-05
-1.32307e-05
4.64786e-05
-1.34616e-05
4.92072e-05
-1.3594e-05
5.19458e-05
-1.3627e-05
5.46737e-05
-1.35633e-05
5.73714e-05
-1.34087e-05
6.00214e-05
-1.31714e-05
6.26083e-05
-1.2861e-05
6.51191e-05
-1.2488e-05
6.75428e-05
-1.20628e-05
6.98711e-05
-1.15957e-05
7.20972e-05
-1.10963e-05
7.42165e-05
-1.05732e-05
7.6226e-05
-1.00344e-05
7.8124e-05
-9.48656e-06
7.991e-05
-8.93566e-06
8.15847e-05
-8.38663e-06
8.31493e-05
-7.84362e-06
8.46061e-05
-7.31001e-06
8.59575e-05
-6.78854e-06
8.72066e-05
-6.28134e-06
8.83567e-05
-5.79007e-06
8.94112e-05
-5.31594e-06
9.0374e-05
-4.85981e-06
9.12488e-05
-4.42222e-06
9.20393e-05
-4.00347e-06
9.27494e-05
-3.60363e-06
9.33829e-05
-3.2226e-06
9.39435e-05
-2.86012e-06
9.44348e-05
-2.51582e-06
9.48603e-05
-2.1892e-06
9.52234e-05
-1.87969e-06
9.55273e-05
-1.58663e-06
9.57752e-05
-1.30929e-06
9.59699e-05
-1.04687e-06
9.61143e-05
-7.98499e-07
9.62108e-05
-5.63256e-07
9.6262e-05
-3.4014e-07
9.62701e-05
-1.28082e-07
9.62369e-05
7.39494e-08
9.61645e-05
2.66967e-07
9.60543e-05
4.5212e-07
9.59079e-05
6.30676e-07
9.57263e-05
8.03998e-07
9.55105e-05
9.73538e-07
9.52614e-05
1.14086e-06
9.49794e-05
1.30765e-06
9.46648e-05
1.47574e-06
9.43179e-05
1.64714e-06
9.39387e-05
1.82403e-06
9.3527e-05
2.00885e-06
9.30828e-05
2.20428e-06
9.2606e-05
2.41329e-06
9.2097e-05
2.63922e-06
9.15565e-05
2.88571e-06
9.09863e-05
3.1568e-06
9.03898e-05
3.4568e-06
8.97724e-05
3.79019e-06
8.91434e-05
4.16129e-06
8.85166e-05
4.57376e-06
8.79125e-05
5.02968e-06
8.73591e-05
5.52822e-06
8.68934e-05
6.06376e-06
8.65587e-05
6.62351e-06
8.63991e-05
7.18487e-06
7.7135e-06
8.64435e-05
1.77901e-05
-2.24093e-06
1.84592e-05
-4.14224e-06
1.93952e-05
-5.67583e-06
2.056e-05
-6.97394e-06
2.19244e-05
-8.09805e-06
2.34666e-05
-9.09492e-06
2.5172e-05
-1.00033e-05
2.70318e-05
-1.08529e-05
2.90411e-05
-1.16641e-05
3.11975e-05
-1.24471e-05
3.34983e-05
-1.32025e-05
3.59393e-05
-1.3922e-05
3.85127e-05
-1.45907e-05
4.12065e-05
-1.51904e-05
4.40044e-05
-1.57024e-05
4.68862e-05
-1.61104e-05
4.98291e-05
-1.64023e-05
5.28086e-05
-1.65714e-05
5.58003e-05
-1.66164e-05
5.87801e-05
-1.65409e-05
6.17261e-05
-1.63524e-05
6.46184e-05
-1.60614e-05
6.74397e-05
-1.568e-05
7.01756e-05
-1.52215e-05
7.28142e-05
-1.46991e-05
7.53463e-05
-1.41255e-05
7.77648e-05
-1.35125e-05
8.0065e-05
-1.28711e-05
8.22437e-05
-1.22108e-05
8.42995e-05
-1.15401e-05
8.62321e-05
-1.0866e-05
8.80425e-05
-1.01947e-05
8.97323e-05
-9.53123e-06
9.1304e-05
-8.87956e-06
9.27606e-05
-8.24305e-06
9.41056e-05
-7.62424e-06
9.53428e-05
-7.02509e-06
9.64759e-05
-6.44705e-06
9.75092e-05
-5.89111e-06
9.84469e-05
-5.35789e-06
9.9293e-05
-4.8477e-06
0.000100052
-4.36061e-06
0.000100728
-3.89644e-06
0.000101324
-3.45488e-06
0.000101846
-3.03541e-06
0.000102296
-2.63745e-06
0.000102678
-2.26025e-06
0.000102996
-1.90302e-06
0.000103253
-1.56485e-06
0.000103452
-1.24478e-06
0.000103597
-9.41757e-07
0.00010369
-6.54668e-07
0.000103734
-3.82325e-07
0.00010373
-1.2347e-07
0.000103682
1.23114e-07
0.000103592
3.58623e-07
0.000103461
5.84432e-07
0.000103291
8.02027e-07
0.000103083
1.01296e-06
0.000102838
1.21888e-06
0.000102559
1.42149e-06
0.000102245
1.62265e-06
0.000101897
1.82428e-06
0.000101516
2.02846e-06
0.000101104
2.23741e-06
0.00010066
2.45347e-06
0.000100186
2.67913e-06
9.96824e-05
2.91705e-06
9.91522e-05
3.16997e-06
9.85977e-05
3.44071e-06
9.80229e-05
3.73206e-06
9.74335e-05
4.04664e-06
9.68375e-05
4.38663e-06
9.62457e-05
4.75345e-06
9.56726e-05
5.14719e-06
9.51365e-05
5.56603e-06
9.46597e-05
6.00533e-06
9.42669e-05
6.4568e-06
9.3983e-05
6.9077e-06
9.38276e-05
7.34051e-06
7.7339e-06
9.38074e-05
1.90163e-05
-2.58754e-06
1.97101e-05
-4.83564e-06
2.06881e-05
-6.65333e-06
2.19114e-05
-8.19644e-06
2.335e-05
-9.53572e-06
2.49816e-05
-1.07254e-05
2.67917e-05
-1.1812e-05
2.87723e-05
-1.2832e-05
3.09204e-05
-1.38105e-05
3.32353e-05
-1.47603e-05
3.57163e-05
-1.56817e-05
3.83602e-05
-1.65639e-05
4.11591e-05
-1.73875e-05
4.40993e-05
-1.81285e-05
4.71617e-05
-1.87626e-05
5.03224e-05
-1.92688e-05
5.3554e-05
-1.96316e-05
5.68275e-05
-1.98426e-05
6.0114e-05
-1.99005e-05
6.33858e-05
-1.98102e-05
6.66175e-05
-1.95816e-05
6.97866e-05
-1.9228e-05
7.28739e-05
-1.87649e-05
7.58635e-05
-1.82087e-05
7.87426e-05
-1.75757e-05
8.15014e-05
-1.68818e-05
8.41327e-05
-1.61414e-05
8.66317e-05
-1.53676e-05
8.89955e-05
-1.45722e-05
9.12229e-05
-1.37651e-05
9.33141e-05
-1.29549e-05
9.52705e-05
-1.21488e-05
9.70945e-05
-1.13528e-05
9.87889e-05
-1.05716e-05
0.000100357
-9.8092e-06
0.000101804
-9.06843e-06
0.000103133
-8.35161e-06
0.000104348
-7.66036e-06
0.000105455
-6.9958e-06
0.000106458
-6.3586e-06
0.000107361
-5.74909e-06
0.00010817
-5.16727e-06
0.000108888
-4.6129e-06
0.000109521
-4.08554e-06
0.000110072
-3.58457e-06
0.000110546
-3.10924e-06
0.000110946
-2.65866e-06
0.000111276
-2.23185e-06
0.000111541
-1.82773e-06
0.000111743
-1.44515e-06
0.000111886
-1.08288e-06
0.000111972
-7.39602e-07
0.000112005
-4.13955e-07
0.000111988
-1.045e-07
0.000111922
1.90172e-07
0.000111811
4.71454e-07
0.000111655
7.40947e-07
0.000111458
1.00033e-06
0.000111221
1.25132e-06
0.000110945
1.49569e-06
0.000110633
1.73527e-06
0.000110284
1.97197e-06
0.000109902
2.20776e-06
0.000109486
2.44467e-06
0.00010904
2.68481e-06
0.000108564
2.93031e-06
0.00010806
3.18332e-06
0.000107532
3.44598e-06
0.000106982
3.72033e-06
0.000106415
4.00825e-06
0.000105836
4.31132e-06
0.000105253
4.63061e-06
0.000104673
4.96653e-06
0.000104109
5.31847e-06
0.000103572
5.68448e-06
0.000103077
6.06093e-06
0.000102641
6.44216e-06
0.000102278
6.82021e-06
0.000102001
7.18489e-06
0.000101818
7.52416e-06
7.82559e-06
0.000101726
2.0329e-05
-2.94348e-06
2.10489e-05
-5.55512e-06
2.2071e-05
-7.67484e-06
2.33554e-05
-9.48005e-06
2.48721e-05
-1.10514e-05
2.65987e-05
-1.24508e-05
2.85215e-05
-1.37334e-05
3.06345e-05
-1.49435e-05
3.29375e-05
-1.61118e-05
3.54332e-05
-1.72541e-05
3.81235e-05
-1.837e-05
4.10063e-05
-1.94446e-05
4.40731e-05
-2.04521e-05
4.73076e-05
-2.13607e-05
5.0686e-05
-2.21386e-05
5.41786e-05
-2.27589e-05
5.77518e-05
-2.32023e-05
6.13707e-05
-2.34589e-05
6.50007e-05
-2.35279e-05
6.86095e-05
-2.34164e-05
7.2168e-05
-2.31375e-05
7.56509e-05
-2.27083e-05
7.90372e-05
-2.21485e-05
8.23096e-05
-2.14784e-05
8.54547e-05
-2.07181e-05
8.84624e-05
-1.98868e-05
9.13256e-05
-1.9002e-05
9.404e-05
-1.80793e-05
9.6603e-05
-1.71326e-05
9.90141e-05
-1.61736e-05
0.000101274
-1.52124e-05
0.000103386
-1.42575e-05
0.000105351
-1.33156e-05
0.000107174
-1.23923e-05
0.000108859
-1.14919e-05
0.000110411
-1.06179e-05
0.000111835
-9.77276e-06
0.000113135
-8.95825e-06
0.000114317
-8.1756e-06
0.000115386
-7.4255e-06
0.000116348
-6.70824e-06
0.000117206
-6.02373e-06
0.000117967
-5.37165e-06
0.000118635
-4.75141e-06
0.000119215
-4.16223e-06
0.000119711
-3.60319e-06
0.000120127
-3.07322e-06
0.000120469
-2.57115e-06
0.000120738
-2.09571e-06
0.000120941
-1.64556e-06
0.000121079
-1.21926e-06
0.000121156
-8.15308e-07
0.000121176
-4.32158e-07
0.000121141
-6.823e-08
0.000121055
2.78086e-07
0.000120919
6.08417e-07
0.000120737
9.24577e-07
0.00012051
1.2284e-06
0.000120241
1.52171e-06
0.000119931
1.80639e-06
0.000119583
2.08432e-06
0.000119199
2.3574e-06
0.00011878
2.62756e-06
0.000118329
2.8967e-06
0.000117848
3.16673e-06
0.00011734
3.43946e-06
0.000116807
3.71663e-06
0.000116254
3.99982e-06
0.000115685
4.29036e-06
0.000115104
4.58926e-06
0.000114519
4.8971e-06
0.000113936
5.21383e-06
0.000113365
5.53869e-06
0.000112814
5.86998e-06
0.000112294
6.20493e-06
0.000111816
6.53955e-06
0.000111389
6.86862e-06
0.000111024
7.18574e-06
0.000110726
7.48361e-06
0.000110496
7.75455e-06
7.99172e-06
0.00011033
2.17342e-05
-3.31086e-06
2.24825e-05
-6.30299e-06
2.35516e-05
-8.74333e-06
2.49011e-05
-1.08287e-05
2.65012e-05
-1.26503e-05
2.83302e-05
-1.42785e-05
3.03766e-05
-1.57782e-05
3.26378e-05
-1.7203e-05
3.51185e-05
-1.85906e-05
3.78259e-05
-1.99595e-05
4.07656e-05
-2.13075e-05
4.39364e-05
-2.26132e-05
4.73278e-05
-2.38411e-05
5.09184e-05
-2.49488e-05
5.46773e-05
-2.5895e-05
5.85664e-05
-2.66454e-05
6.25437e-05
-2.71769e-05
6.65664e-05
-2.74788e-05
7.05933e-05
-2.75521e-05
7.45871e-05
-2.74073e-05
7.85147e-05
-2.70622e-05
8.23483e-05
-2.65391e-05
8.60653e-05
-2.58625e-05
8.96476e-05
-2.50578e-05
9.30816e-05
-2.41493e-05
9.63576e-05
-2.31599e-05
9.9469e-05
-2.21105e-05
0.000102412
-2.10195e-05
0.000105185
-1.9903e-05
0.000107789
-1.87747e-05
0.000110226
-1.7646e-05
0.000112498
-1.65266e-05
0.000114609
-1.54242e-05
0.000116564
-1.4345e-05
0.000118369
-1.32939e-05
0.000120028
-1.22746e-05
0.000121548
-1.12898e-05
0.000122934
-1.03414e-05
0.000124191
-9.43071e-06
0.000125327
-8.55836e-06
0.000126345
-7.72455e-06
0.000127253
-6.92911e-06
0.000128055
-6.17152e-06
0.000128757
-5.45105e-06
0.000129364
-4.76673e-06
0.00012988
-4.11744e-06
0.000130311
-3.50191e-06
0.000130661
-2.91876e-06
0.000130933
-2.36651e-06
0.000131133
-1.84361e-06
0.000131264
-1.34843e-06
0.00013133
-8.7927e-07
0.000131334
-4.3437e-07
0.00013128
-1.21203e-08
0.00013117
3.89308e-07
0.000131008
7.71905e-07
0.000130797
1.13761e-06
0.000130538
1.48837e-06
0.000130235
1.82609e-06
0.00012989
2.15269e-06
0.000129505
2.47005e-06
0.000129084
2.78004e-06
0.000128628
3.08445e-06
0.000128141
3.38504e-06
0.000127625
3.68342e-06
0.000127084
3.98109e-06
0.000126522
4.27935e-06
0.000125944
4.57926e-06
0.000125353
4.88157e-06
0.000124757
5.18661e-06
0.00012416
5.49427e-06
0.000123571
5.80385e-06
0.000122996
6.11401e-06
0.000122444
6.4227e-06
0.000121922
6.72711e-06
0.000121438
7.02373e-06
0.000120999
7.30839e-06
0.000120609
7.57645e-06
0.00012027
7.8231e-06
0.000119981
8.04375e-06
8.23492e-06
0.000119738
2.32384e-05
-3.69207e-06
2.40182e-05
-7.08232e-06
2.51384e-05
-9.86284e-06
2.65582e-05
-1.22476e-05
2.82487e-05
-1.43396e-05
3.01904e-05
-1.62187e-05
3.23753e-05
-1.79615e-05
3.48072e-05
-1.9633e-05
3.74975e-05
-2.12789e-05
4.04603e-05
-2.292e-05
4.37047e-05
-2.45495e-05
4.72295e-05
-2.61355e-05
5.10191e-05
-2.76281e-05
5.50436e-05
-2.89706e-05
5.9261e-05
-3.01095e-05
6.36214e-05
-3.10029e-05
6.80721e-05
-3.16246e-05
7.25609e-05
-3.19646e-05
7.70396e-05
-3.20277e-05
8.14654e-05
-3.18301e-05
8.58021e-05
-3.13958e-05
9.00197e-05
-3.07536e-05
9.40948e-05
-2.99345e-05
9.80094e-05
-2.89692e-05
0.00010175
-2.7887e-05
0.000105309
-2.67152e-05
0.000108679
-2.5478e-05
0.00011186
-2.41968e-05
0.00011485
-2.28899e-05
0.000117651
-2.15729e-05
0.000120267
-2.02588e-05
0.000122701
-1.89582e-05
0.00012496
-1.76798e-05
0.000127048
-1.64302e-05
0.000128972
-1.52149e-05
0.000130738
-1.40377e-05
0.000132352
-1.29015e-05
0.000133822
-1.18084e-05
0.000135154
-1.07595e-05
0.000136353
-9.75534e-06
0.000137427
-8.79607e-06
0.000138382
-7.8813e-06
0.000139223
-7.01035e-06
0.000139957
-6.18226e-06
0.000140589
-5.39584e-06
0.000141123
-4.64975e-06
0.000141566
-3.94249e-06
0.000141922
-3.27245e-06
0.000142195
-2.63794e-06
0.000142391
-2.03719e-06
0.000142513
-1.46836e-06
0.000142565
-9.2958e-07
0.000142552
-4.18921e-07
0.000142476
6.54392e-08
0.000142341
5.25496e-07
0.000142152
9.63443e-07
0.000141909
1.38139e-06
0.000141618
1.78135e-06
0.00014128
2.1653e-06
0.000140899
2.53517e-06
0.000140478
2.8928e-06
0.000140019
3.23997e-06
0.000139526
3.57833e-06
0.000139003
3.90944e-06
0.000138453
4.23465e-06
0.00013788
4.55515e-06
0.000137288
4.87188e-06
0.000136683
5.18548e-06
0.000136069
5.49629e-06
0.000135452
5.80423e-06
0.000134838
6.10882e-06
0.000134234
6.40908e-06
0.000133645
6.70359e-06
0.000133078
6.99042e-06
0.000132538
7.2672e-06
0.000132031
7.5312e-06
0.000131561
7.77944e-06
0.000131129
8.00884e-06
0.000130736
8.21648e-06
0.00013038
8.39984e-06
8.55745e-06
0.000130058
2.48484e-05
-4.08972e-06
2.56636e-05
-7.89705e-06
2.684e-05
-1.10385e-05
2.83372e-05
-1.37438e-05
3.01277e-05
-1.61288e-05
3.21959e-05
-1.82854e-05
3.45408e-05
-2.03046e-05
3.71753e-05
-2.22655e-05
4.01211e-05
-2.42225e-05
4.34001e-05
-2.61966e-05
4.70246e-05
-2.81715e-05
5.09899e-05
-3.0098e-05
5.52704e-05
-3.19058e-05
5.98221e-05
-3.35193e-05
6.4587e-05
-3.48714e-05
6.95003e-05
-3.59131e-05
7.44962e-05
-3.66173e-05
7.95126e-05
-3.69778e-05
8.44943e-05
-3.70061e-05
8.9394e-05
-3.67264e-05
9.4173e-05
-3.61714e-05
9.88007e-05
-3.53779e-05
0.000103254
-3.43841e-05
0.000107515
-3.32272e-05
0.000111573
-3.19419e-05
0.000115421
-3.05598e-05
0.000119056
-2.91089e-05
0.000122475
-2.76133e-05
0.000125682
-2.60937e-05
0.00012868
-2.45675e-05
0.000131474
-2.30489e-05
0.000134068
-2.15497e-05
0.000136471
-2.0079e-05
0.000138688
-1.86443e-05
0.000140727
-1.7251e-05
0.000142596
-1.59033e-05
0.000144301
-1.46041e-05
0.000145851
-1.33553e-05
0.000147253
-1.2158e-05
0.000148513
-1.10127e-05
0.000149639
-9.91921e-06
0.000150637
-8.87692e-06
0.000151515
-7.88493e-06
0.000152277
-6.94202e-06
0.000152931
-6.04675e-06
0.000153481
-5.19752e-06
0.000153933
-4.39257e-06
0.000154293
-3.63007e-06
0.000154566
-2.90806e-06
0.000154755
-2.22458e-06
0.000154867
-1.57758e-06
0.000154904
-9.65008e-07
0.000154872
-3.848e-07
0.000154774
1.65167e-07
0.000154615
6.87072e-07
0.000154397
1.18322e-06
0.000154124
1.65583e-06
0.0001538
2.10701e-06
0.000153428
2.53877e-06
0.000153012
2.95301e-06
0.000152555
3.35152e-06
0.00015206
3.73598e-06
0.000151532
4.1079e-06
0.000150974
4.46866e-06
0.00015039
4.81939e-06
0.000149785
5.16104e-06
0.000149164
5.49429e-06
0.000148531
5.81954e-06
0.000147891
6.13687e-06
0.00014725
6.44605e-06
0.000146613
6.74649e-06
0.000145986
7.03728e-06
0.000145373
7.31716e-06
0.00014478
7.58463e-06
0.000144209
7.83794e-06
0.000143666
8.07519e-06
0.000143152
8.29449e-06
0.000142667
8.49401e-06
0.000142212
8.67217e-06
0.000141784
8.82782e-06
8.96065e-06
0.000141382
2.65714e-05
-4.50676e-06
2.74268e-05
-8.75203e-06
2.86661e-05
-1.2277e-05
3.02497e-05
-1.53262e-05
3.21532e-05
-1.8031e-05
3.4368e-05
-2.04985e-05
3.69038e-05
-2.28384e-05
3.97872e-05
-2.51467e-05
4.30535e-05
-2.74863e-05
4.67329e-05
-2.98734e-05
5.08374e-05
-3.22732e-05
5.53522e-05
-3.46098e-05
6.02343e-05
-3.67849e-05
6.54186e-05
-3.87003e-05
7.08262e-05
-4.02757e-05
7.63744e-05
-4.14578e-05
8.19835e-05
-4.22229e-05
8.75821e-05
-4.25728e-05
9.31089e-05
-4.25293e-05
9.85141e-05
-4.21279e-05
0.000103758
-4.14118e-05
0.000108811
-4.04273e-05
0.000113652
-3.92209e-05
0.000118265
-3.78366e-05
0.000122641
-3.63149e-05
0.000126777
-3.46919e-05
0.000130671
-3.2999e-05
0.000134325
-3.12634e-05
0.000137742
-2.95077e-05
0.000140929
-2.77509e-05
0.000143892
-2.60085e-05
0.000146639
-2.42929e-05
0.000149177
-2.2614e-05
0.000151516
-2.09793e-05
0.000153663
-1.93945e-05
0.000155627
-1.78639e-05
0.000157416
-1.63903e-05
0.00015904
-1.49754e-05
0.000160505
-1.36202e-05
0.00016182
-1.23247e-05
0.000162993
-1.10886e-05
0.00016403
-9.91108e-06
0.000164939
-8.79083e-06
0.000165726
-7.72637e-06
0.000166398
-6.71596e-06
0.000166961
-5.7577e-06
0.00016742
-4.84957e-06
0.000167782
-3.98945e-06
0.000168052
-3.17516e-06
0.000168234
-2.40449e-06
0.000168334
-1.6752e-06
0.000168356
-9.85062e-07
0.000168306
-3.31847e-07
0.000168186
2.86826e-07
0.000168002
8.73339e-07
0.000167757
1.43012e-06
0.000167455
1.95947e-06
0.000167101
2.46354e-06
0.000166697
2.94436e-06
0.000166248
3.4038e-06
0.000165757
3.84362e-06
0.000165229
4.26538e-06
0.000164668
4.67052e-06
0.000164078
5.06024e-06
0.000163463
5.43555e-06
0.000162828
5.79725e-06
0.000162177
6.14588e-06
0.000161516
6.48173e-06
0.000160849
6.80484e-06
0.000160181
7.11499e-06
0.000159517
7.41171e-06
0.000158861
7.69432e-06
0.000158217
7.96194e-06
0.000157589
8.21356e-06
0.000156979
8.44807e-06
0.000156391
8.66438e-06
0.000155825
8.86145e-06
0.000155281
9.03841e-06
0.000154759
9.19461e-06
0.000154258
9.32975e-06
9.44428e-06
0.000153775
2.84151e-05
-4.94646e-06
2.93169e-05
-9.65324e-06
3.06274e-05
-1.35867e-05
3.23095e-05
-1.7007e-05
3.43443e-05
-2.00643e-05
3.67344e-05
-2.28867e-05
3.95062e-05
-2.5608e-05
4.27056e-05
-2.83437e-05
4.63837e-05
-3.11617e-05
5.05764e-05
-3.40632e-05
5.52879e-05
-3.69816e-05
6.04828e-05
-3.98015e-05
6.60908e-05
-4.23896e-05
7.20183e-05
-4.46243e-05
7.81617e-05
-4.64154e-05
8.44192e-05
-4.77116e-05
9.06983e-05
-4.84983e-05
9.69202e-05
-4.87907e-05
0.00010302
-4.86254e-05
0.000108948
-4.80517e-05
0.000114666
-4.71254e-05
0.000120146
-4.59035e-05
0.00012537
-4.44414e-05
0.000130328
-4.27902e-05
0.000135013
-4.0996e-05
0.000139425
-3.90995e-05
0.000143565
-3.71353e-05
0.000147439
-3.51331e-05
0.000151053
-3.31176e-05
0.000154414
-3.11089e-05
0.000157533
-2.91234e-05
0.000160418
-2.71741e-05
0.000163079
-2.52712e-05
0.000165526
-2.34224e-05
0.000167769
-2.16335e-05
0.000169817
-1.99084e-05
0.00017168
-1.82498e-05
0.000173367
-1.66591e-05
0.000174887
-1.51369e-05
0.000176249
-1.36832e-05
0.000177461
-1.2297e-05
0.00017853
-1.09772e-05
0.000179465
-9.72228e-06
0.000180272
-8.53029e-06
0.000180958
-7.39917e-06
0.00018153
-6.32671e-06
0.000181994
-5.31059e-06
0.000182355
-4.34839e-06
0.000182621
-3.43768e-06
0.000182795
-2.57601e-06
0.000182883
-1.76094e-06
0.000182891
-9.90036e-07
0.000182822
-2.60917e-07
0.000182682
4.29048e-07
0.000182475
1.08244e-06
0.000182206
1.7018e-06
0.000181878
2.2895e-06
0.000181496
2.84773e-06
0.000181063
3.37852e-06
0.000180585
3.88375e-06
0.000180065
4.36512e-06
0.000179508
4.82417e-06
0.000178918
5.26225e-06
0.000178299
5.6805e-06
0.000177656
6.07988e-06
0.000176994
6.46112e-06
0.000176316
6.82475e-06
0.000175628
7.1711e-06
0.000174934
7.5003e-06
0.000174238
7.81227e-06
0.000173544
8.1068e-06
0.000172856
8.38353e-06
0.000172176
8.64201e-06
0.000171509
8.88175e-06
0.000170856
9.10224e-06
0.000170218
9.30302e-06
0.000169596
9.48377e-06
0.000168991
9.64426e-06
0.000168402
9.78452e-06
0.000167828
9.90479e-06
1.0006e-05
0.000167267
3.03879e-05
-5.41266e-06
3.13434e-05
-1.06081e-05
3.27362e-05
-1.49785e-05
3.45333e-05
-1.88027e-05
3.67256e-05
-2.22549e-05
3.93333e-05
-2.54923e-05
4.24072e-05
-2.86796e-05
4.60183e-05
-3.19521e-05
5.02327e-05
-3.53733e-05
5.50843e-05
-3.89116e-05
6.05554e-05
-4.24494e-05
6.65766e-05
-4.58191e-05
7.30393e-05
-4.88486e-05
7.98156e-05
-5.13967e-05
8.67759e-05
-5.33717e-05
9.38009e-05
-5.47325e-05
0.000100789
-5.54817e-05
0.000107656
-5.56538e-05
0.000114338
-5.53037e-05
0.000120788
-5.44972e-05
0.000126971
-5.33041e-05
0.000132865
-5.1793e-05
0.000138456
-5.00281e-05
0.000143738
-4.80678e-05
0.00014871
-4.59635e-05
0.000153375
-4.37598e-05
0.000157739
-4.14945e-05
0.000161809
-3.91994e-05
0.000165597
-3.69006e-05
0.000169111
-3.46193e-05
0.000172364
-3.23723e-05
0.000175367
-3.01731e-05
0.000178132
-2.80317e-05
0.00018067
-2.59559e-05
0.000182991
-2.39512e-05
0.000185108
-2.20212e-05
0.00018703
-2.01681e-05
0.000188768
-1.83932e-05
0.000190332
-1.66965e-05
0.000191729
-1.50774e-05
0.000192971
-1.35348e-05
0.000194064
-1.2067e-05
0.000195017
-1.0672e-05
0.000195838
-9.34754e-06
0.000196533
-8.09118e-06
0.00019711
-6.90034e-06
0.000197575
-5.77237e-06
0.000197934
-4.70455e-06
0.000198194
-3.69417e-06
0.000198359
-2.73854e-06
0.000198436
-1.83497e-06
0.000198429
-9.80861e-07
0.000198345
-1.73652e-07
0.000198187
5.89528e-07
0.00019796
1.31145e-06
0.00019767
1.99476e-06
0.000197319
2.6419e-06
0.000196914
3.25509e-06
0.000196458
3.83641e-06
0.000195956
4.38774e-06
0.000195413
4.91079e-06
0.000194832
5.40709e-06
0.000194218
5.87797e-06
0.000193575
6.32459e-06