/*--------------------------------*- C++ -*----------------------------------*\
  =========                 |
  \\      /  F ield         | OpenFOAM: The Open Source CFD Toolbox
   \\    /   O peration     | Website:  https://openfoam.org
    \\  /    A nd           | Version:  7
     \\/     M anipulation  |
\*---------------------------------------------------------------------------*/
FoamFile
{
    version     2.0;
    format      ascii;
    class       volScalarField;
    location    "1.5";
    object      p;
}
// * * * * * * * * * * * * * * * * * * * * * * * * * * * * * * * * * * * * * //

dimensions      [0 2 -2 0 0 0 0];

internalField   nonuniform List<scalar> 
2790
(
153.605
153.512
153.779
154.35
155.13
156.087
157.219
158.525
160.001
161.642
163.441
165.391
167.484
169.709
172.048
174.483
176.987
179.525
182.055
184.528
186.884
189.059
190.987
192.604
193.86
194.73
195.162
195.216
195.267
195.479
153.402
153.42
153.712
154.28
155.056
156.009
157.137
158.437
159.906
161.538
163.328
165.268
167.35
169.564
171.892
174.317
176.812
179.344
181.873
184.35
186.717
188.909
190.861
192.506
193.787
194.657
195.05
195.108
195.237
195.516
153.203
153.291
153.602
154.16
154.923
155.864
156.976
158.258
159.706
161.313
163.075
164.984
167.031
169.206
171.494
173.875
176.326
178.816
181.306
183.752
186.1
188.291
190.26
191.947
193.294
194.266
194.855
195.208
195.518
195.813
152.978
153.097
153.421
153.97
154.718
155.643
156.735
157.993
159.412
160.986
162.709
164.574
166.572
168.692
170.92
173.237
175.62
178.042
180.468
182.857
185.162
187.331
189.31
191.047
192.498
193.646
194.51
195.176
195.725
196.242
152.718
152.85
153.182
153.724
154.456
155.359
156.426
157.653
159.035
160.565
162.239
164.048
165.983
168.033
170.184
172.419
174.716
177.049
179.39
181.701
183.944
186.077
188.056
189.844
191.411
192.749
193.876
194.835
195.643
196.388
152.417
152.555
152.89
153.421
154.133
155.011
156.046
157.235
158.572
160.051
161.666
163.408
165.268
167.235
169.296
171.433
173.626
175.854
178.09
180.303
182.464
184.539
186.498
188.316
189.975
191.473
192.816
194.019
195.037
195.954
152.075
152.214
152.545
153.064
153.753
154.6
155.599
156.744
158.029
159.449
160.995
162.66
164.435
166.307
168.263
170.288
172.363
174.467
176.578
178.672
180.725
182.714
184.618
186.426
188.128
189.726
191.217
192.593
193.757
194.803
151.69
151.827
152.151
152.653
153.317
154.13
155.087
156.182
157.41
158.762
160.232
161.811
163.489
165.254
167.093
168.992
170.931
172.894
174.86
176.81
178.725
180.59
182.394
184.133
185.808
187.424
188.977
190.447
191.696
192.846
151.264
151.397
151.711
152.193
152.828
153.603
154.514
155.555
156.718
157.996
159.382
160.866
162.437
164.085
165.795
167.552
169.34
171.142
172.94
174.716
176.457
178.152
179.797
181.394
182.953
184.485
185.991
187.46
188.73
189.969
150.798
150.926
151.226
151.686
152.289
153.023
153.884
154.864
155.958
157.156
158.45
159.831
161.287
162.807
164.375
165.978
167.598
169.219
170.823
172.395
173.92
175.392
176.807
178.171
179.501
180.816
182.134
183.47
184.67
185.974
150.292
150.414
150.699
151.135
151.702
152.393
153.199
154.116
155.135
156.247
157.444
158.714
160.047
161.429
162.846
164.281
165.717
167.136
168.521
169.854
171.119
172.306
173.41
174.434
175.395
176.32
177.247
178.243
179.205
180.523
149.751
149.865
150.133
150.541
151.072
151.715
152.465
153.314
154.254
155.275
156.369
157.523
158.726
159.962
161.217
162.472
163.709
164.909
166.049
167.109
168.068
168.908
169.613
170.175
170.597
170.903
171.142
171.446
171.826
172.998
149.174
149.281
149.53
149.91
150.401
150.995
151.685
152.463
153.32
154.248
155.234
156.267
157.333
158.416
159.501
160.566
161.592
162.555
163.428
164.185
164.796
165.228
165.447
165.419
165.111
164.509
163.629
162.632
161.679
162.18
148.565
148.663
148.893
149.242
149.693
150.236
150.864
151.568
152.341
153.17
154.045
154.953
155.878
156.804
157.712
158.58
159.384
160.097
160.687
161.117
161.345
161.32
160.979
160.244
159.018
157.184
154.616
151.306
147.347
145.3
147.926
148.016
148.225
148.543
148.952
149.441
150.005
150.635
151.32
152.049
152.811
153.591
154.372
155.137
155.864
156.53
157.107
157.562
157.857
157.946
157.772
157.26
156.313
154.797
152.516
149.181
144.333
137.307
126.824
114.561
9.39685
9.27397
8.97444
8.58893
8.18285
7.77925
7.38679
7.01385
6.66913
6.36005
6.09237
5.86931
5.6917
5.55769
5.45881
5.3905
5.34743
5.31774
5.28724
5.23987
5.15937
5.03106
4.84343
4.58763
4.25751
3.84815
3.34028
2.69835
1.87545
0.822384
9.12662
8.99659
8.73691
8.39668
8.02575
7.64801
7.27587
6.91944
6.58785
6.28886
6.02854
5.81022
5.64304
5.532
5.45711
5.3977
5.35294
5.32318
5.29507
5.25162
5.17492
5.04978
4.86459
4.60999
4.2792
3.86221
3.34058
2.68791
1.85459
0.783249
8.93085
8.79636
8.56316
8.2548
7.91229
7.55698
7.20339
6.86307
6.54549
6.25913
6.0159
5.82541
5.66671
5.53988
5.45879
5.40794
5.37331
5.34716
5.31662
5.2688
5.1873
5.05757
4.86872
4.61168
4.27234
3.84315
3.31032
2.64517
1.79729
0.718995
8.83308
8.69204
8.47412
8.18595
7.86421
7.52689
7.18962
6.86563
6.56668
6.30001
6.06089
5.85423
5.69447
5.5766
5.49521
5.44101
5.40272
5.37041
5.33174
5.27395
5.18249
5.04408
4.848
4.58301
4.23391
3.79337
3.24863
2.57193
1.72251
0.658294
8.86694
8.71675
8.50468
8.22608
7.91482
7.58743
7.25913
6.94238
6.64813
6.38154
6.13841
5.93116
5.76536
5.63912
5.54677
5.47988
5.42849
5.38236
5.32988
5.25852
5.15488
5.00662
4.80214
4.52481
4.16489
3.71469
3.15887
2.47565
1.63425
0.596892
9.02142
8.8597
8.63912
8.35681
8.04258
7.71391
7.38516
7.06706
6.76535
6.48458
6.23731
6.0241
5.84764
5.70685
5.59734
5.51196
5.44194
5.37756
5.3079
5.221
5.10416
4.94498
4.73041
4.44375
4.07602
3.61827
3.05456
2.36731
1.5354
0.541649
9.24383
9.06296
8.82352
8.52642
8.19996
7.86229
7.52623
7.19754
6.88739
6.60061
6.34333
6.11808
5.92641
5.76735
5.63734
5.53048
5.43917
5.35455
5.26654
5.16389
5.03435
4.86494
4.64135
4.34843
3.97703
3.51544
2.94733
2.25708
1.43434
0.492934
9.4557
9.25177
8.99271
8.68391
8.34894
8.00211
7.65644
7.3217
7.00329
6.70738
6.43842
6.19906
5.99049
5.81196
5.66065
5.53173
5.41878
5.31398
5.20817
5.09095
4.95046
4.77295
4.54274
4.24789
3.87733
3.41609
2.84661
2.15354
1.33898
0.450596
9.60101
9.39315
9.12444
8.80741
8.46526
8.11274
7.7603
7.41858
7.09327
6.78907
6.50952
6.25694
6.03245
5.83561
5.66434
5.51485
5.38185
5.25861
5.13702
5.00758
4.85884
4.6764
4.44435
4.15182
3.78602
3.32889
2.76024
2.06386
1.2552
0.414461
9.68874
9.47441
9.19887
8.87282
8.52313
8.16702
7.81419
7.47177
7.14445
6.83592
6.54919
6.28643
6.04891
5.83671
5.64851
5.48154
5.33156
5.19296
5.05871
4.92025
4.76663
4.5832
4.35436
4.06863
3.71121
3.26128
2.69478
1.99384
1.18698
0.384764
9.67349
9.44253
9.16166
8.83777
8.4963
8.15047
7.8081
7.47404
7.15181
6.84461
6.55542
6.28671
6.04024
5.81679
5.61588
5.43568
5.27294
5.12307
4.98009
4.83642
4.6818
4.50184
4.28086
4.00588
3.66015
3.21968
2.65574
1.94803
1.13708
0.361936
9.48875
9.25434
8.99016
8.69229
8.38037
8.06225
7.74363
7.42796
7.11821
6.818
6.53114
6.26094
6.00999
5.77996
5.57127
5.38292
5.21247
5.05616
4.90897
4.76428
4.61275
4.44076
4.23184
3.97089
3.63937
3.20964
2.64776
1.93012
1.10762
0.346407
9.11613
8.89109
8.67872
8.44366
8.18846
7.91622
7.63398
7.34526
7.05351
6.76424
6.48329
6.21536
5.96412
5.73226
5.52109
5.33026
5.15783
5.00057
4.85418
4.71295
4.56862
4.4087
4.21552
3.97094
3.65486
3.23595
2.67467
1.94308
1.10029
0.338568
8.51144
8.31596
8.22933
8.11951
7.95254
7.73978
7.5022
7.2451
6.97277
6.69507
6.42147
6.15825
5.91012
5.68092
5.47278
5.28564
5.11763
4.96558
4.8255
4.69238
4.55895
4.41393
4.23921
4.01289
3.71208
3.30282
2.73964
1.98941
1.1167
0.338887
7.56946
7.42903
7.64842
7.77953
7.72668
7.56979
7.37721
7.1512
6.89354
6.62328
6.35592
6.09836
5.85574
5.63322
5.43369
5.25689
5.10031
4.96024
4.83241
4.71219
4.5931
4.46456
4.30989
4.10454
3.81724
3.41449
2.84555
2.07176
1.15916
0.347874
147.247
147.328
147.516
147.8
148.165
148.6
149.098
149.649
150.244
150.871
151.516
152.164
152.797
153.396
153.939
154.397
154.74
154.931
154.924
154.663
154.076
153.067
151.502
149.189
145.827
140.922
133.552
121.795
99.6027
39.6159
146.52
146.591
146.757
147.007
147.326
147.704
148.132
148.603
149.105
149.625
150.149
150.661
151.143
151.572
151.925
152.172
152.277
152.201
151.89
151.28
150.287
148.797
146.653
143.624
139.352
133.254
124.3
110.76
91.2858
62.985
145.751
145.812
145.955
146.168
146.44
146.759
147.117
147.505
147.911
148.323
148.724
149.099
149.426
149.685
149.848
149.883
149.753
149.414
148.808
147.866
146.496
144.579
141.95
138.381
133.547
126.998
118.15
106.378
92.2651
75.8972
144.94
144.992
145.11
145.287
145.51
145.769
146.055
146.359
146.669
146.97
147.249
147.485
147.66
147.749
147.724
147.552
147.195
146.605
145.723
144.479
142.78
140.51
137.518
133.609
128.538
122.018
113.758
103.439
91.0134
76.0619
144.091
144.132
144.226
144.366
144.539
144.737
144.951
145.171
145.383
145.575
145.731
145.831
145.855
145.778
145.572
145.202
144.63
143.807
142.676
141.168
139.196
136.656
133.418
129.329
124.21
117.865
110.1
100.678
89.4391
76.595
143.204
143.235
143.304
143.406
143.53
143.668
143.809
143.944
144.061
144.144
144.179
144.146
144.023
143.787
143.408
142.853
142.083
141.051
139.703
137.974
135.788
133.055
129.67
125.515
120.463
114.381
107.15
98.674
88.9499
78.3919
142.284
142.304
142.349
142.413
142.487
142.564
142.634
142.686
142.707
142.685
142.603
142.441
142.179
141.791
141.251
140.525
139.577
138.362
136.831
134.927
132.583
129.726
126.275
122.144
117.248
111.508
104.873
97.3341
88.9379
80.019
141.332
141.341
141.362
141.389
141.415
141.431
141.43
141.401
141.331
141.206
141.011
140.727
140.333
139.805
139.117
138.238
137.133
135.763
134.084
132.046
129.596
126.675
123.224
119.183
114.501
109.139
103.084
96.3582
89.0117
81.3148
140.353
140.352
140.348
140.338
140.317
140.275
140.205
140.097
139.939
139.716
139.414
139.015
138.498
137.842
137.021
136.007
134.769
133.271
131.477
129.345
126.833
123.897
120.495
116.589
112.151
107.168
101.645
95.6178
89.1397
82.4363
139.35
139.339
139.312
139.267
139.198
139.1
138.965
138.781
138.539
138.224
137.822
137.316
136.687
135.915
134.977
133.847
132.497
130.899
129.021
126.829
124.293
121.379
118.061
114.317
110.135
105.515
100.476
95.0576
89.312
83.423
138.328
138.308
138.258
138.178
138.065
137.914
137.715
137.46
137.138
136.737
136.242
135.639
134.91
134.036
132.996
131.769
130.33
128.656
126.72
124.499
121.967
119.105
115.895
112.326
108.398
104.121
99.5179
94.6278
89.4986
84.2774
137.293
137.263
137.192
137.079
136.924
136.721
136.463
136.141
135.745
135.265
134.686
133.995
133.176
132.213
131.088
129.781
128.274
126.546
124.577
122.35
119.847
117.056
113.967
110.579
106.898
102.937
98.7221
94.289
89.6794
85.0118
136.249
136.21
136.118
135.975
135.779
135.528
135.215
134.831
134.368
133.815
133.16
132.392
131.496
130.457
129.261
127.892
126.334
124.571
122.589
120.375
117.918
115.212
112.252
109.044
105.595
101.923
98.0522
94.0144
89.8455
85.641
135.202
135.155
135.044
134.871
134.639
134.343
133.979
133.538
133.014
132.395
131.674
130.837
129.875
128.774
127.521
126.105
124.512
122.732
120.752
118.566
116.168
113.554
110.726
107.69
104.459
101.048
97.4811
93.7858
89.9922
86.1782
134.158
134.104
133.975
133.775
133.508
133.172
132.761
132.269
131.689
131.014
130.233
129.339
128.321
127.169
125.873
124.423
122.81
121.025
119.061
116.914
114.582
112.064
109.366
106.495
103.463
100.287
96.9884
93.59
90.1177
86.6348
133.124
133.062
132.917
132.693
132.395
132.021
131.569
131.031
130.403
129.677
128.846
127.903
126.84
125.648
124.32
122.848
121.225
119.447
117.509
115.409
113.147
110.726
108.153
105.436
102.587
99.6216
96.5584
93.4181
90.2216
87.0211
132.106
132.038
131.878
131.632
131.305
130.899
130.409
129.831
129.16
128.391
127.518
126.535
125.436
124.214
122.863
121.379
119.757
117.994
116.088
114.04
111.85
109.525
107.07
104.496
101.813
99.0352
96.1797
93.2636
90.3049
87.3463
131.112
131.038
130.865
130.599
130.247
129.811
129.288
128.675
127.968
127.162
126.254
125.239
124.112
122.868
121.505
120.017
118.403
116.661
114.793
112.798
110.681
108.448
106.104
103.66
101.127
98.5165
95.8433
93.1225
90.3692
87.6186
130.148
130.069
129.884
129.6
129.226
128.764
128.213
127.57
126.832
125.997
125.06
124.02
122.873
121.615
120.244
118.76
117.159
115.444
113.615
111.676
109.63
107.483
105.242
102.918
100.518
98.056
95.543
92.9922
90.4165
87.845
129.222
129.139
128.943
128.644
128.25
127.766
127.191
126.522
125.759
124.899
123.941
122.882
121.72
120.454
119.083
117.606
116.024
114.338
112.55
110.665
108.686
106.62
104.475
102.258
99.9782
97.6467
95.2739
92.8711
90.449
88.0321
128.341
128.254
128.049
127.737
127.327
126.824
126.228
125.539
124.755
123.875
122.9
121.827
120.657
119.388
118.02
116.555
114.994
113.338
111.592
109.758
107.843
105.852
103.793
101.672
99.4993
97.283
95.0329
92.7584
90.4692
88.1855
127.514
127.423
127.211
126.886
126.462
125.944
125.331
124.624
123.824
122.93
121.942
120.86
119.685
118.417
117.056
115.606
114.066
112.442
110.735
108.951
107.095
105.172
103.19
101.156
99.0767
96.9612
94.8176
92.6544
90.4797
88.3106
126.748
126.654
126.435
126.1
125.664
125.133
124.506
123.786
122.972
122.067
121.07
119.983
118.807
117.542
116.191
114.756
113.24
111.645
109.976
108.238
106.436
104.574
102.661
100.703
98.7059
96.6781
94.6267
92.5592
90.4827
88.4115
126.051
125.955
125.729
125.386
124.94
124.398
123.76
123.029
122.206
121.292
120.29
119.201
118.025
116.767
115.426
114.007
112.513
110.947
109.313
107.616
105.862
104.056
102.203
100.311
98.3849
96.4326
94.4602
92.4744
90.4815
88.4937
125.432
125.333
125.103
124.752
124.297
123.746
123.099
122.359
121.529
120.61
119.605
118.514
117.342
116.09
114.761
113.358
111.884
110.344
108.742
107.083
105.37
103.611
101.811
99.9756
98.1105
96.2221
94.3165
92.3994
90.4768
88.5585
124.901
124.799
124.563
124.205
123.743
123.184
122.531
121.785
120.95
120.027
119.02
117.931
116.763
115.518
114.199
112.811
111.356
109.84
108.265
106.638
104.962
103.243
101.487
99.6992
97.8849
96.0498
94.1996
92.3396
90.4751
88.6147
124.466
124.361
124.117
123.752
123.283
122.718
122.059
121.309
120.47
119.545
118.538
117.45
116.286
115.048
113.74
112.364
110.926
109.429
107.878
106.277
104.631
102.945
101.225
99.4758
97.7022
95.9098
94.1037
92.2889
90.4703
88.6547
124.141
124.029
123.777
123.405
122.931
122.362
121.699
120.945
120.103
119.177
118.17
117.085
115.924
114.692
113.392
112.028
110.603
109.122
107.589
106.01
104.387
102.728
101.036
99.3163
97.5745
95.8153
94.0436
92.2642
90.4816
88.7021
123.939
123.804
123.534
123.156
122.68
122.109
121.443
120.687
119.845
118.919
117.913
116.829
115.673
114.445
113.152
111.795
110.38
108.91
107.39
105.825
104.219
102.577
100.903
99.2039
97.483
95.7456
93.9962
92.2394
90.4796
88.7216
123.92
123.721
123.424
123.039
122.561
121.986
121.317
120.56
119.716
118.79
117.785
116.704
115.549
114.326
113.037
111.686
110.278
108.816
107.305
105.749
104.154
102.523
100.862
99.1752
97.4676
95.7439
94.0084
92.2658
90.5202
88.7758
-44.9422
-24.9636
-5.13873
42.9293
35.9982
25.0326
58.7991
47.0627
36.3011
60.0321
49.7943
41.9485
64.2196
56.0714
49.4489
68.495
61.6918
55.8921
71.6539
65.8456
60.8547
74.1429
69.1673
64.8943
76.2391
71.9393
68.2516
78.0085
74.2501
71.0337
79.4969
76.1779
73.3444
80.7525
77.7948
75.2748
81.8148
79.1568
76.8957
82.7147
80.3078
78.2626
83.4777
81.2829
79.4195
84.1247
82.1104
80.4012
84.6731
82.8133
81.2356
85.1371
83.4102
81.9453
85.5289
83.9167
82.5487
85.8587
84.3457
83.0611
86.1354
84.7081
83.4954
86.3669
85.0135
83.8624
86.559
85.2691
84.1709
86.7191
85.4834
84.4299
86.849
85.6588
84.6431
86.96
85.8076
84.8224
87.0421
85.9199
84.96
87.1249
86.0258
85.0834
87.1649
86.0823
85.1545
87.2404
86.172
85.2507
5.12646
5.44738
6.78761
7.53699
7.59669
7.44038
7.28451
7.0869
6.83088
6.55832
6.29449
6.04268
5.80709
5.59504
5.41032
5.25164
5.11491
4.99518
4.88712
4.7857
4.68516
4.57518
4.44094
4.25371
3.97835
3.57677
2.99668
2.19415
1.23093
0.365408
11.7747
8.40913
8.54653
8.23712
7.5891
7.26555
7.21963
7.0815
6.79883
6.50534
6.2429
5.99703
5.76895
5.57128
5.40907
5.27837
5.17208
5.08336
5.00471
4.92931
4.85202
4.76135
4.64114
4.47062
4.20704
3.79766
3.19804
2.3614
1.33643
0.390922
22.3582
13.87
10.7443
9.02263
8.26286
7.94673
7.65423
7.22512
6.75991
6.429
6.19368
5.96208
5.74137
5.56202
5.4313
5.33967
5.27579
5.23094
5.19469
5.15605
5.10896
5.03958
4.92926
4.76253
4.50483
4.08861
3.4561
2.57918
1.4855
0.427716
31.4395
21.7231
15.9884
12.3871
10.2322
8.9299
8.06129
7.44976
7.00834
6.64252
6.29988
5.97192
5.70839
5.54609
5.46241
5.42476
5.41919
5.43514
5.45687
5.46848
5.45874
5.41251
5.31195
5.15419
4.89836
4.44114
3.75591
2.8499
1.69176
0.485471
40.2739
30.6536
23.4135
18.1018
14.3187
11.6689
9.82337
8.54755
7.651
6.97723
6.46346
6.09029
5.83901
5.68238
5.59045
5.5579
5.59153
5.67395
5.77011
5.85096
5.89681
5.88861
5.80856
5.64304
5.34101
4.83263
4.13497
3.17792
1.93957
0.561187
47.9952
39.1523
31.315
24.8876
19.9051
16.1271
13.2817
11.1423
9.52708
8.30117
7.38477
6.7216
6.26184
5.97246
5.8363
5.83161
5.91723
6.04389
6.17831
6.30308
6.39761
6.43248
6.3785
6.20749
5.87141
5.32058
4.53667
3.44984
2.19345
0.652108
54.2775
46.5174
38.7824
31.9045
26.2329
21.656
17.9782
15.0388
12.7062
10.8695
9.4402
8.34799
7.53937
6.97814
6.63535
6.47643
6.46219
6.55398
6.7091
6.87677
7.00684
7.06071
7.00978
6.82262
6.45228
5.84823
4.97229
3.7893
2.42109
0.661863
59.3965
52.6834
45.4474
38.6189
32.6959
27.6658
23.4119
19.8464
16.8941
14.4769
12.5208
10.9623
9.75018
8.84221
8.20046
7.78724
7.5645
7.49176
7.52332
7.60991
7.70119
7.74468
7.68653
7.47452
7.05703
6.38597
5.42442
4.14982
2.62307
0.639586
63.5781
57.7597
51.1783
44.6952
38.8414
33.6649
29.1062
25.1321
21.7152
18.8152
16.3842
14.3752
12.7452
11.455
10.4669
9.74329
9.24477
8.92864
8.74901
8.6576
8.60358
8.53279
8.38797
8.10836
7.62968
6.89141
5.84848
4.47489
2.78767
0.592737
66.9943
61.9123
55.999
49.9962
44.407
39.3067
34.6692
30.4937
26.7867
23.5396
20.7304
18.3311
16.3124
14.644
13.2943
12.2293
11.4121
10.8017
10.3536
10.0199
9.74943
9.48785
9.17758
8.75703
8.16081
7.32426
6.19161
4.72034
2.88858
0.479312
69.8034
65.322
60.0224
54.5299
49.2974
44.4065
39.8467
35.6331
31.7915
28.3343
25.2597
22.557
20.211
18.2024
16.5084
15.1018
13.951
13.0198
12.2675
11.6486
11.114
10.6103
10.0808
9.46464
8.69813
7.71721
6.46192
4.87721
2.91115
0.301865
72.1341
68.1443
63.3811
58.3737
53.522
48.9038
44.514
40.3729
36.5142
32.9621
29.7278
26.8135
24.2155
21.9251
19.9282
18.2057
16.7329
15.48
14.4115
13.487
12.661
11.8836
11.1004
10.2532
9.28089
8.12108
6.71266
4.99408
2.89993
0.145562
74.0826
70.499
66.1956
61.6255
57.1419
52.8146
48.639
44.6348
40.8372
37.2752
33.9669
30.9227
28.1472
25.6394
23.3933
21.3969
19.6329
18.0779
16.7029
15.4734
14.3492
13.2853
12.2316
11.134
9.93534
8.57634
6.9973
5.13625
2.92975
0.110057
75.7214
72.477
68.5655
64.3805
60.2355
56.192
52.2439
48.408
44.7173
41.2016
37.8818
34.7726
31.8835
29.2191
26.779
24.5576
22.5433
20.7194
19.063
17.5458
16.1335
14.7869
13.4616
12.1089
10.6766
9.11043
7.3551
5.35403
3.05571
0.240094
77.1063
74.1476
70.5707
66.7213
62.8801
59.1013
55.3767
51.7192
48.1584
44.7224
41.4329
38.3059
35.3535
32.5837
30.0001
27.6013
25.3809
23.3272
21.4232
19.6461
17.9679
16.3553
14.7698
13.169
11.5069
9.73538
7.80605
5.67149
3.29556
0.520383
78.2809
75.5644
72.2738
68.7159
65.1441
61.6064
58.0924
54.6112
51.1886
47.8503
44.6167
41.5041
38.5255
35.6908
33.0057
30.4721
28.0871
25.8434
23.7283
21.7245
19.8092
17.9549
16.1292
14.2959
12.4156
10.4472
8.35013
6.08725
3.63619
0.902356
79.2792
76.7691
73.7244
70.4196
67.0853
63.7641
60.4441
57.1308
53.846
50.6128
47.4498
44.3726
41.3941
38.5248
35.7717
33.1388
30.6258
28.2284
25.9378
23.7408
21.6195
19.5514
17.5099
15.4645
13.3822
11.2289
8.97143
6.58188
4.04753
1.32943
80.1288
77.7951
74.962
71.8772
68.7514
65.6233
62.4793
59.3222
56.1701
53.0431
49.958
46.929
43.9685
41.0867
38.2915
35.5879
32.9773
30.458
28.0239
25.6652
23.3681
21.1144
18.8824
16.647
14.3808
12.0556
9.64482
7.12717
4.49499
1.75263
80.8519
78.6693
76.0187
73.1248
70.1818
67.2248
64.2393
61.2254
58.1979
55.1744
52.1694
49.1958
46.2649
43.3866
40.5687
37.8168
35.1337
32.5189
29.969
27.4767
25.0313
22.6184
20.2205
17.8167
15.3844
12.9003
10.3425
7.69394
4.9478
2.13786
81.467
79.4137
76.9205
74.1924
71.4092
68.6032
65.7591
62.8748
59.9626
57.0372
54.1115
51.1965
48.3025
45.4386
42.6125
39.8297
37.0938
34.4056
31.7631
29.1613
26.5919
24.0436
21.5019
18.9498
16.3683
13.7377
11.039
8.25701
5.38314
2.46719
81.9891
80.0465
77.689
75.1045
72.4606
69.787
67.0682
64.3004
61.4932
58.6592
55.8095
52.9535
50.1003
47.2581
44.434
41.6337
38.8608
36.1169
33.4012
30.7103
28.0378
25.3748
22.7093
20.027
17.3118
14.5462
11.7131
8.79726
5.7867
2.7364
82.4312
80.5832
78.3422
75.8817
73.3585
70.8006
68.1921
65.5277
62.815
60.0647
57.2862
54.4875
51.6764
48.8602
46.0454
43.2373
40.4396
37.6543
34.8814
32.1186
29.361
26.6012
23.8294
21.0333
18.1986
15.3094
12.3493
9.30206
6.15166
2.95063
82.8035
81.0359
78.8945
76.5405
74.1214
71.6636
69.1512
66.5777
63.9491
61.2742
58.561
55.8163
53.0467
50.2585
47.4576
44.6487
41.8355
39.0202
36.2031
33.3826
30.5551
27.7143
24.8518
21.9567
19.016
16.0146
12.9362
9.763
6.47538
3.11865
83.1162
81.4163
79.3596
77.0962
74.766
72.394
69.9644
67.4698
64.9148
62.3067
59.6522
56.9571
54.2267
51.4667
48.6821
45.8772
43.0554
40.2188
37.368
34.5019
31.6175
28.7093
25.77
22.7896
19.7559
16.6541
13.4675
10.1769
6.75958
3.25106
83.3747
81.7312
79.7452
77.558
75.3026
73.0031
70.6438
68.2165
65.7247
63.1745
60.5716
57.9206
55.2262
52.493
49.7254
46.9273
44.1016
41.2504
38.3743
35.4725
32.5422
29.5788
26.5753
23.5224
20.4083
17.2183
13.9352
10.5384
7.00262
3.35334
83.59
81.9925
80.0649
77.9405
75.7469
73.5073
71.2063
68.8353
66.3965
63.8952
61.3363
58.7235
56.0607
53.3518
50.6007
47.8107
44.9844
42.1236
39.229
36.2997
33.3332
30.3253
27.2693
24.1562
20.9743
17.709
14.3422
10.8523
7.21217
3.43603
83.7579
82.1967
80.3154
78.241
76.0965
73.9047
71.6504
69.3245
66.9285
64.4669
61.9438
59.3625
56.7261
54.0379
51.3014
48.5193
45.694
42.827
39.919
36.969
33.9747
30.9318
27.8341
24.6726
21.4356
18.1082
14.6719
11.1038
7.37576
3.49222
83.901
82.3667
80.5207
78.4844
76.3772
74.2218
72.0032
69.7118
67.3486
64.9177
62.4224
59.8656
57.2501
54.5786
51.8541
49.079
46.2556
43.3851
40.468
37.5033
34.4887
31.4201
28.2912
25.093
21.8139
18.4386
14.9479
11.3179
7.51915
3.54363
83.9896
82.4723
80.6494
78.6389
76.557
74.4258
72.2309
69.9627
67.6215
65.211
62.7344
60.1942
57.5927
54.9325
52.2162
49.4461
46.6241
43.7514
40.8283
37.8538
34.8257
31.7397
28.5896
25.3664
22.0583
18.6497
15.1209
11.4469
7.59733
3.55615
84.0854
82.5701
80.7604
78.7657
76.6982
74.5805
72.3987
70.1431
67.8139
65.4146
62.948
60.4166
57.8226
55.1683
52.4563
49.6888
46.8675
43.9936
41.0673
38.0878
35.0526
31.9577
28.7968
25.5609
22.2381
18.8127
15.2642
11.5663
7.68459
3.5818
)
;

boundaryField
{
    inlet
    {
        type            zeroGradient;
    }
    outlet
    {
        type            fixedValue;
        value           uniform 0;
    }
    flap
    {
        type            zeroGradient;
    }
    upperWall
    {
        type            zeroGradient;
    }
    lowerWall
    {
        type            zeroGradient;
    }
    frontAndBack
    {
        type            empty;
    }
}


// ************************************************************************* //
