/*--------------------------------*- C++ -*----------------------------------*\
  =========                 |
  \\      /  F ield         | OpenFOAM: The Open Source CFD Toolbox
   \\    /   O peration     | Website:  https://openfoam.org
    \\  /    A nd           | Version:  7
     \\/     M anipulation  |
\*---------------------------------------------------------------------------*/
FoamFile
{
    version     2.0;
    format      ascii;
    class       surfaceScalarField;
    location    "1.5";
    object      phi;
}
// * * * * * * * * * * * * * * * * * * * * * * * * * * * * * * * * * * * * * //

dimensions      [0 3 -1 0 0 0 0];

internalField   nonuniform List<scalar> 
5457
(
0.198418
0.00158215
0.196481
0.00193689
0.194194
0.00228735
0.191511
0.00268262
0.188431
0.00308003
0.184956
0.00347545
0.181078
0.00387717
0.176786
0.0042926
0.172059
0.00472688
0.166875
0.00518405
0.161207
0.0056676
0.155027
0.00618049
0.148302
0.00672489
0.141
0.00730184
0.133089
0.00791066
0.124541
0.00854835
0.115332
0.00920858
0.105452
0.00988066
0.0949034
0.0105483
0.0837151
0.0111884
0.0719452
0.0117699
0.0596915
0.0122537
0.0470977
0.0125938
0.0343532
0.0127445
0.021655
0.0126981
0.00900252
0.0126525
-0.00288919
0.0118917
-0.00840843
0.00551924
-0.00799002
-0.000418412
-0.00799002
0.199928
0.00165376
0.199176
0.00268885
0.197966
0.00349756
0.196334
0.00431484
0.194275
0.00513893
0.191786
0.00596423
0.188861
0.00680279
0.185485
0.00766812
0.181642
0.00857055
0.177307
0.00951841
0.172456
0.010519
0.167058
0.0115785
0.161081
0.0127019
0.154491
0.0138917
0.147254
0.0151474
0.139339
0.016464
0.130717
0.0178299
0.121373
0.0192252
0.111303
0.0206184
0.100527
0.0219644
0.0890953
0.0232011
0.0771006
0.0242484
0.0646876
0.0250067
0.0520739
0.0253583
0.039609
0.025163
0.0280598
0.0242018
0.0185091
0.0214423
0.00866704
0.0153613
0.00110797
0.00714066
-0.00688206
0.199781
0.00187298
0.199087
0.00338223
0.197947
0.00463779
0.196411
0.00585052
0.194486
0.00706395
0.192169
0.00828202
0.189453
0.00951888
0.186329
0.0107922
0.182782
0.0121171
0.178794
0.0135061
0.174343
0.0149702
0.169403
0.0165189
0.163944
0.0181603
0.157937
0.0198992
0.151348
0.0217366
0.144144
0.0236674
0.136296
0.025678
0.127779
0.0277426
0.118577
0.0298199
0.108694
0.0318478
0.0981555
0.0337393
0.0870262
0.0353777
0.0754223
0.0366107
0.0635383
0.0372423
0.0516904
0.0370109
0.0403492
0.035543
0.0296749
0.0321166
0.0191206
0.0259157
0.0095398
0.0167214
0.00265774
0.199703
0.00216969
0.199008
0.00407709
0.197889
0.00575762
0.196379
0.00736053
0.194492
0.00895096
0.192227
0.0105468
0.18958
0.0121652
0.186546
0.0138268
0.183113
0.0155503
0.179267
0.0173514
0.174994
0.0192441
0.170272
0.0212407
0.165081
0.0233514
0.159397
0.0255832
0.153194
0.0279386
0.146448
0.0304135
0.139133
0.0329939
0.131223
0.0356522
0.122701
0.0383421
0.113556
0.0409926
0.103794
0.043501
0.0934461
0.0457258
0.0825789
0.0474779
0.0713101
0.0485111
0.0598128
0.0485082
0.0482849
0.0470709
0.0367765
0.043625
0.0251619
0.0375302
0.0133242
0.0285591
0.0159819
0.199668
0.00250207
0.198965
0.00477991
0.197864
0.00685827
0.196383
0.00884132
0.194536
0.0107987
0.192322
0.0127602
0.18974
0.0147477
0.186782
0.0167841
0.183442
0.0188907
0.179708
0.0210859
0.175566
0.023386
0.171001
0.0258049
0.165998
0.0283545
0.160539
0.031043
0.154603
0.0338741
0.148172
0.0368443
0.141226
0.0399403
0.133743
0.0431348
0.125705
0.0463806
0.117093
0.0496042
0.107897
0.0526974
0.0981143
0.0555083
0.0877603
0.0578319
0.07687
0.0594013
0.0654962
0.059882
0.0536931
0.058874
0.041438
0.0558801
0.0285753
0.050393
0.0148473
0.0422871
0.0308293
0.199653
0.00284906
0.198949
0.00548353
0.197872
0.00793556
0.196429
0.0102846
0.19463
0.0125976
0.192477
0.0149125
0.189969
0.0172561
0.1871
0.0196537
0.183861
0.0221287
0.180245
0.024702
0.17624
0.0273915
0.171832
0.0302127
0.167008
0.0331787
0.161752
0.0362985
0.15605
0.0395767
0.149883
0.0430108
0.143235
0.0465886
0.136085
0.0502845
0.128413
0.0540534
0.120192
0.0578247
0.111397
0.061493
0.101996
0.0649087
0.09196
0.0678681
0.0812569
0.0701044
0.0698548
0.0712841
0.0577157
0.0710131
0.0447581
0.0688377
0.0308472
0.0643038
0.0158733
0.057261
0.0467026
0.19965
0.00319881
0.198955
0.0061791
0.197906
0.00898455
0.196507
0.0116835
0.194766
0.0143389
0.192685
0.0169935
0.190262
0.0196786
0.187494
0.0224221
0.184373
0.0252497
0.180891
0.0281839
0.177038
0.0312445
0.172802
0.0344486
0.168171
0.0378102
0.163129
0.0413397
0.157663
0.0450426
0.151756
0.0489181
0.145389
0.052956
0.138539
0.0571338
0.131181
0.0614115
0.123281
0.0657253
0.114794
0.0699795
0.105666
0.0740366
0.0958282
0.0777061
0.0851971
0.0807355
0.0736783
0.0828029
0.0611704
0.0835211
0.0475625
0.0824456
0.0327645
0.0791019
0.0167869
0.0732386
0.0634895
0.199655
0.00354396
0.198975
0.00685882
0.19796
0.00999971
0.196612
0.0130315
0.194937
0.016014
0.192937
0.018993
0.190612
0.0220036
0.187958
0.0250763
0.184969
0.0282386
0.181638
0.0315151
0.177955
0.0349271
0.173911
0.0384934
0.169492
0.0422293
0.164684
0.0461468
0.159474
0.0502533
0.153842
0.0545503
0.147766
0.0590311
0.141222
0.0636782
0.134174
0.0684593
0.126578
0.0733214
0.118374
0.0781837
0.109482
0.0829282
0.0998008
0.0873877
0.0892025
0.0913337
0.0775408
0.0944646
0.0646628
0.0963991
0.0504314
0.096677
0.0347793
0.0947539
0.0177966
0.0902214
0.081286
0.199664
0.00387961
0.199007
0.00751624
0.198031
0.0109754
0.196741
0.0143222
0.195139
0.0176151
0.193231
0.0209018
0.191014
0.0242205
0.188486
0.0276039
0.185643
0.0310817
0.182478
0.03468
0.178983
0.038422
0.175149
0.0423279
0.170963
0.046415
0.166413
0.0506972
0.161481
0.0551845
0.15615
0.0598818
0.150394
0.0647874
0.144181
0.069891
0.13747
0.0751703
0.130204
0.080587
0.122308
0.08608
0.113678
0.0915575
0.104182
0.096884
0.09365
0.101866
0.0818825
0.106232
0.068668
0.109614
0.0538197
0.111525
0.0372512
0.111322
0.0190921
0.10838
0.100378
0.199677
0.00420221
0.199048
0.00814612
0.198117
0.0119062
0.196889
0.0155497
0.195369
0.0191352
0.193559
0.0227116
0.19146
0.0263194
0.18907
0.0299939
0.186386
0.0337662
0.183402
0.0376643
0.180111
0.0417129
0.176505
0.0459339
0.172573
0.0503467
0.168303
0.0549676
0.163677
0.0598098
0.158676
0.0648826
0.153273
0.0701905
0.147432
0.0757321
0.141105
0.0814979
0.134225
0.087467
0.126702
0.093603
0.118413
0.0998463
0.109194
0.106103
0.0988331
0.112227
0.0870692
0.117996
0.0736088
0.123074
0.0581678
0.126966
0.0405685
0.128922
0.0209115
0.128037
0.12129
0.199693
0.00450912
0.199095
0.00874417
0.198214
0.0127873
0.197055
0.0167088
0.195622
0.0205679
0.193919
0.0244146
0.191947
0.0282917
0.189705
0.0322361
0.18719
0.0362807
0.1844
0.0404549
0.181328
0.044785
0.177967
0.0492946
0.174308
0.0540052
0.17034
0.0589357
0.166047
0.0641028
0.161409
0.069521
0.156398
0.0752019
0.150976
0.0811541
0.145091
0.0873823
0.138672
0.093886
0.131618
0.100657
0.123791
0.107674
0.115
0.114894
0.104991
0.122236
0.0934316
0.129555
0.0799146
0.136591
0.0639869
0.142894
0.0452527
0.147656
0.0236233
0.149667
0.144913
0.199711
0.00479828
0.199148
0.00930687
0.198321
0.0136144
0.197235
0.0177945
0.195896
0.0219074
0.194306
0.0260043
0.192468
0.0301295
0.190383
0.0343217
0.188048
0.0386151
0.185463
0.0430404
0.182622
0.0476252
0.179522
0.0523949
0.176155
0.0573728
0.17251
0.0625805
0.168574
0.0680384
0.164329
0.073766
0.159749
0.0797822
0.154797
0.0861062
0.149422
0.0927575
0.143551
0.0997567
0.137082
0.107125
0.129871
0.114885
0.121711
0.123053
0.112314
0.131633
0.101278
0.140591
0.0880571
0.149812
0.0719403
0.159011
0.0521056
0.167491
0.0278999
0.173873
0.172813
0.19973
0.00506807
0.199206
0.00983136
0.198436
0.014384
0.197428
0.0188026
0.196187
0.0231488
0.194716
0.0274749
0.193019
0.0318264
0.191097
0.0362433
0.188952
0.0407609
0.186581
0.045411
0.183984
0.0502224
0.181157
0.0552218
0.178096
0.0604341
0.174793
0.0658835
0.171237
0.0715936
0.167415
0.0775886
0.163303
0.0838942
0.15887
0.0905392
0.15407
0.0975568
0.148839
0.104988
0.143082
0.112883
0.136661
0.121306
0.129376
0.130339
0.12093
0.140079
0.110878
0.150643
0.0985471
0.162143
0.0829156
0.174642
0.062458
0.187948
0.0351454
0.201185
0.207958
0.199751
0.00531724
0.199267
0.0103153
0.198558
0.015093
0.197631
0.0197297
0.196491
0.0242882
0.195144
0.0288218
0.193594
0.033377
0.191843
0.0379946
0.189893
0.042711
0.187745
0.0475587
0.1854
0.0525673
0.182857
0.0577645
0.180115
0.0631766
0.177169
0.0688295
0.174013
0.0747494
0.170637
0.0809643
0.167026
0.0875053
0.163157
0.0944088
0.158994
0.10172
0.154487
0.109494
0.149563
0.117808
0.144109
0.12676
0.13796
0.136488
0.130857
0.147182
0.122386
0.159114
0.111852
0.172676
0.0980272
0.188468
0.0785664
0.207409
0.0487016
0.23105
0.25666
0.199772
0.00554482
0.199331
0.010757
0.198685
0.0157392
0.197841
0.0205729
0.196807
0.0253222
0.195588
0.0300411
0.194188
0.0347769
0.192612
0.039571
0.190863
0.0444602
0.188944
0.0494775
0.186858
0.0546531
0.184607
0.0600152
0.182193
0.0655907
0.179616
0.0714067
0.176875
0.077491
0.173965
0.0838739
0.17088
0.0905899
0.167609
0.0976805
0.164131
0.105197
0.160419
0.113206
0.156429
0.121798
0.152096
0.131093
0.14732
0.141263
0.141945
0.152558
0.135709
0.16535
0.128144
0.180241
0.118312
0.198299
0.103966
0.221755
0.077779
0.257237
0.334439
0.00935177
-0.00935177
0.0170336
-0.00768182
0.0234375
-0.00640392
0.0289489
-0.00551137
0.0337702
-0.00482131
0.0380052
-0.00423499
0.0417232
-0.00371807
0.0449758
-0.00325257
0.0477987
-0.00282284
0.0502227
-0.00242405
0.052284
-0.00206125
0.0540103
-0.00172629
0.0554415
-0.00143127
0.0565991
-0.00115758
0.0573885
-0.00078939
0.0576158
-0.00022734
0.0571814
0.000434386
0.0561787
0.00100269
0.054759
0.00141976
0.0531043
0.00165468
0.0514075
0.00169682
0.0498611
0.00154641
0.0486539
0.00120713
0.0479548
0.000699135
0.0477688
0.000186021
0.0481554
-0.000386604
0.0493552
-0.00119982
0.0517808
-0.00242564
0.0558793
-0.0040985
-0.00568985
0.00635082
-0.0157026
0.0123482
-0.0136792
0.0175252
-0.0115809
0.0219756
-0.00996178
0.0258411
-0.00868681
0.0291967
-0.00759063
0.032082
-0.00660339
0.0345175
-0.00568808
0.0365026
-0.00480787
0.0380233
-0.00394476
0.0390512
-0.00308921
0.0394222
-0.0020973
0.0387817
-0.000790757
0.0370249
0.000599259
0.0345387
0.0016968
0.0318037
0.00250768
0.0290476
0.00319043
0.0263337
0.00371662
0.0237286
0.00402486
0.0213622
0.00402107
0.0193568
0.00370222
0.0178155
0.00308773
0.0168345
0.00218818
0.0165058
0.00102778
0.0168262
-0.000134383
0.0179842
-0.00154453
0.0202971
-0.00351279
0.0237316
-0.00586008
0.0284721
-0.00883902
-0.0114889
0.00375184
-0.0194544
0.00741835
-0.0173457
0.0105815
-0.0147441
0.0132319
-0.0126122
0.0153872
-0.010842
0.0170569
-0.00926037
0.0182439
-0.00779038
0.0189332
-0.00637745
0.019062
-0.0049366
0.0184784
-0.0033612
0.0169256
-0.00153637
0.0145056
0.000322685
0.0118692
0.00184561
0.00935812
0.00311037
0.00680999
0.00424493
0.00416359
0.00515408
0.00157127
0.00578275
-0.000831155
0.00611905
-0.00291386
0.00610756
-0.00462541
0.00573262
-0.00590253
0.00497934
-0.00668751
0.00387271
-0.00695262
0.00245328
-0.00669129
0.000766451
-0.00567737
-0.0011483
-0.0038386
-0.00338331
-0.00132794
-0.00602345
0.00190545
-0.00909347
0.00574239
-0.012676
-0.0151615
0.00141132
-0.0208657
0.00267247
-0.0186068
0.00362196
-0.0156935
0.0042496
-0.0132399
0.00444863
-0.0110411
0.0041803
-0.00899204
0.00339273
-0.00700281
0.00202715
-0.00501186
4.72351e-05
-0.00295669
-0.00248641
-0.000827546
-0.00505651
0.00103373
-0.00737852
0.0026447
-0.0096733
0.00414039
-0.0120372
0.00547428
-0.0143768
0.00658453
-0.0166205
0.00739781
-0.0186972
0.00785944
-0.0205118
0.0079336
-0.0219921
0.00758787
-0.0230723
0.00681285
-0.0237087
0.00561578
-0.0238705
0.00403451
-0.0235473
0.00213009
-0.0227378
-4.3063e-05
-0.021403
-0.00248309
-0.0195495
-0.00523681
-0.0173598
-0.00821314
-0.0149872
-0.0114661
-0.0128175
-0.0148456
-0.0174997
-0.000812857
-0.0200529
-0.0018401
-0.0175796
-0.00303963
-0.014494
-0.00448774
-0.0117918
-0.0062411
-0.0092877
-0.00830398
-0.00692916
-0.0106485
-0.0046583
-0.0132393
-0.00242109
-0.0159751
-0.000220859
-0.0185025
0.00169982
-0.0208673
0.00339852
-0.023221
0.00499845
-0.025537
0.0064564
-0.0277678
0.00770502
-0.0298584
0.00867518
-0.0317573
0.00929674
-0.0334113
0.00951343
-0.034764
0.00928626
-0.0357678
0.00859172
-0.0363849
0.00742988
-0.0365954
0.00582633
-0.0363984
0.0038375
-0.0358036
0.00153527
-0.0347847
-0.00106192
-0.0333909
-0.00387692
-0.0317614
-0.00686638
-0.0300284
-0.0099461
-0.0283794
-0.0131151
-0.0269649
-0.0162601
-0.0189364
-0.00286003
-0.0171929
-0.00593411
-0.0145055
-0.00899841
-0.0114297
-0.0121178
-0.00867234
-0.0152748
-0.00613075
-0.0184609
-0.00374302
-0.0216604
-0.00145884
-0.0247164
0.000634967
-0.0274606
0.00252329
-0.030006
0.00424525
-0.0324876
0.00588007
-0.0348714
0.00738228
-0.0371174
0.00870245
-0.0391885
0.00977603
-0.0410474
0.0105341
-0.0426601
0.0109095
-0.0439932
0.0108465
-0.0450143
0.0103073
-0.0456969
0.00927434
-0.0460231
0.00775605
-0.0459881
0.0057914
-0.0456007
0.00345002
-0.0448708
0.00080545
-0.0438367
-0.00209606
-0.042571
-0.00514265
-0.0412108
-0.00822659
-0.039889
-0.0112679
-0.0387581
-0.014246
-0.0378761
-0.0171421
-0.0196568
-0.00465651
-0.0125363
-0.0093662
-0.00979583
-0.0138669
-0.00692896
-0.0181796
-0.00435964
-0.0222767
-0.00203369
-0.0261059
8.62113e-05
-0.0295489
0.00198407
-0.0326398
0.00372593
-0.0355015
0.00538498
-0.0382142
0.0069579
-0.040758
0.00842388
-0.0431161
0.00974047
-0.0452668
0.0108531
-0.0471879
0.0116971
-0.0488581
0.0122043
-0.0502581
0.0123094
-0.0513699
0.0119583
-0.052177
0.0111145
-0.0526666
0.009764
-0.0528321
0.00792149
-0.052676
0.00563529
-0.052212
0.00298605
-0.051463
5.64862e-05
-0.0505019
-0.00305715
-0.0494138
-0.00623079
-0.0483182
-0.00932222
-0.0473436
-0.0122424
-0.0466096
-0.01498
-0.0461579
-0.0175939
-0.0198535
-0.00608817
-0.00644817
-0.0121141
-0.00376993
-0.0176687
-0.00137438
-0.0226765
0.000648196
-0.0271326
0.00242241
-0.0310781
0.00403169
-0.0346328
0.00553883
-0.037909
0.0070021
-0.0409313
0.00840726
-0.0437124
0.00973897
-0.046254
0.0109655
-0.0485532
0.0120397
-0.0506032
0.0129031
-0.0523957
0.0134896
-0.0539223
0.013731
-0.0551755
0.0135626
-0.0561483
0.012931
-0.056834
0.0118001
-0.0572276
0.0101577
-0.0573282
0.00802201
-0.0571413
0.00544839
-0.0566847
0.00252944
-0.0559889
-0.000639286
-0.0551422
-0.00390381
-0.0542382
-0.00713485
-0.0533878
-0.0101726
-0.0527101
-0.0129201
-0.0523052
-0.0153849
-0.0522169
-0.0176822
-0.0196433
-0.0072587
0.000810523
-0.0139997
0.00297109
-0.0199321
0.00455805
-0.0251501
0.00586613
-0.0297827
0.00705501
-0.0339419
0.0081909
-0.037699
0.00929598
-0.0410912
0.0103943
-0.0441576
0.0114737
-0.046925
0.0125064
-0.0494101
0.0134506
-0.0516227
0.0142523
-0.053568
0.0148484
-0.0552488
0.0151704
-0.0566667
0.0151488
-0.0578226
0.0147186
-0.0587171
0.0138255
-0.0593495
0.0124325
-0.0597189
0.010527
-0.0598258
0.00812893
-0.0596758
0.00529836
-0.0592839
0.00213754
-0.0586968
-0.00122641
-0.0579902
-0.00461039
-0.057273
-0.00785202
-0.056651
-0.0107946
-0.0562361
-0.013335
-0.0561199
-0.0155011
-0.0563477
-0.0174544
-0.0191097
-0.00762022
0.00843074
-0.0146197
0.00997058
-0.0208038
0.0107422
-0.0262747
0.011337
-0.0310999
0.0118801
-0.0353597
0.0124508
-0.0391391
0.0130753
-0.0425016
0.0137567
-0.0454996
0.0144717
-0.048172
0.0151788
-0.0505462
0.0158248
-0.0526415
0.0163475
-0.0544716
0.0166785
-0.0560473
0.0167461
-0.0573774
0.0164789
-0.0584693
0.0158105
-0.0593284
0.0146847
-0.0599579
0.013062
-0.0603584
0.0109275
-0.0605296
0.00830017
-0.0604735
0.00524221
-0.0602014
0.00186551
-0.0597576
-0.00167022
-0.059222
-0.00514607
-0.0586963
-0.00837768
-0.0582926
-0.0111983
-0.0581202
-0.0135074
-0.0582688
-0.0153525
-0.0587827
-0.0169405
-0.0182907
-0.0077008
0.0161315
-0.0149016
0.0171714
-0.021225
0.0170656
-0.026708
0.0168201
-0.0314574
0.0166295
-0.0355878
0.0165811
-0.0392022
0.0166897
-0.042384
0.0169386
-0.0451981
0.0172857
-0.0476909
0.0176716
-0.0498952
0.0180292
-0.0518354
0.0182877
-0.0535306
0.0183736
-0.0549965
0.018212
-0.056247
0.0177295
-0.0572943
0.0168578
-0.0581478
0.0155381
-0.0588129
0.0137272
-0.0592906
0.0114052
-0.0595776
0.00858717
-0.05967
0.00533461
-0.0595713
0.00176675
-0.0593151
-0.00192639
-0.0589748
-0.00548638
-0.0586538
-0.00869865
-0.0584683
-0.0113839
-0.0585301
-0.0134455
-0.0589322
-0.0149504
-0.059719
-0.0161537
-0.0171942
-0.00794607
0.0240776
-0.0152715
0.0244968
-0.0214871
0.0232812
-0.026682
0.022015
-0.0310685
0.021016
-0.0348242
0.0203369
-0.0380758
0.0199412
-0.0409208
0.0197836
-0.0434317
0.0197966
-0.045656
0.019896
-0.0476254
0.0199986
-0.0493644
0.0200266
-0.0508937
0.0199029
-0.052232
0.0195503
-0.0533966
0.0188941
-0.0544035
0.0178647
-0.0552659
0.0164005
-0.0559918
0.0144531
-0.0565821
0.0119956
-0.0570306
0.00903568
-0.0573272
0.00563112
-0.0574646
0.00190423
-0.0574552
-0.00193584
-0.0573554
-0.00558615
-0.0572679
-0.0087862
-0.0573147
-0.011337
-0.0576159
-0.0131444
-0.0582721
-0.0142943
-0.0593336
-0.0150921
-0.0158085
-0.00853646
0.0326141
-0.0160346
0.0319949
-0.0218671
0.0291137
-0.0263952
0.0265432
-0.0300876
0.0247083
-0.0332112
0.0234605
-0.0358962
0.0226263
-0.0382447
0.0221321
-0.0403322
0.0218841
-0.0421973
0.0217611
-0.0438611
0.0216624
-0.0453431
0.0215087
-0.0466633
0.0212232
-0.0478413
0.0207283
-0.048897
0.0199498
-0.0498507
0.0188184
-0.0507205
0.0172703
-0.0515185
0.015251
-0.0522473
0.0127244
-0.0528983
0.00968667
-0.0534553
0.00618819
-0.0539014
0.00235033
-0.0542213
-0.001616
-0.0544375
-0.00536991
-0.0546402
-0.00858355
-0.0549562
-0.011021
-0.0555176
-0.0125829
-0.0564411
-0.0133707
-0.0577941
-0.0137391
-0.0141068
-0.00978917
0.0424032
-0.0177081
0.0399138
-0.0227264
0.034132
-0.0260107
0.0298274
-0.0286011
0.0272987
-0.0308379
0.0256972
-0.0327578
0.0245462
-0.034451
0.0238254
-0.0360004
0.0234335
-0.0374195
0.0231803
-0.0387038
0.0229466
-0.0398639
0.0226688
-0.0409183
0.0222777
-0.0418863
0.0216962
-0.0427905
0.020854
-0.0436577
0.0196857
-0.0445144
0.018127
-0.0453808
0.0161174
-0.046265
0.0136085
-0.0471575
0.0105792
-0.0480351
0.00706575
-0.0488715
0.0031867
-0.0496236
-0.000863848
-0.0502644
-0.00472915
-0.0508505
-0.00799738
-0.0515047
-0.0103668
-0.0523701
-0.0117175
-0.0535888
-0.0121521
-0.0552653
-0.0120626
-0.0120504
-0.0124844
0.0548877
-0.0212765
0.0487059
-0.0246048
0.0374603
-0.0255829
0.0308055
-0.026565
0.0282808
-0.027741
0.0268732
-0.028725
0.0255302
-0.0296046
0.024705
-0.0305197
0.0243486
-0.031423
0.0240835
-0.032254
0.0237776
-0.0330175
0.0234323
-0.0337347
0.0229948
-0.034422
0.0223835
-0.0351046
0.0215366
-0.03582
0.0204011
-0.0366086
0.0189157
-0.0375049
0.0170137
-0.0385286
0.0146321
-0.0396734
0.0117241
-0.0409076
0.00829996
-0.0421962
0.00447528
-0.0435047
0.000444675
-0.0447449
-0.00348901
-0.0458941
-0.00684813
-0.0470389
-0.0092221
-0.0483044
-0.010452
-0.0498669
-0.0105895
-0.0519127
-0.0100168
-0.00958418
0.207447
0.00575747
0.207035
0.0111694
0.206432
0.0163414
0.205648
0.021357
0.204689
0.0262811
0.203562
0.0311684
0.202273
0.0360664
0.200827
0.0410169
0.19923
0.0460571
0.197487
0.05122
0.195605
0.0565357
0.193587
0.0620325
0.19144
0.0677374
0.189169
0.0736777
0.186779
0.0798816
0.184273
0.0863799
0.181654
0.0932083
0.178926
0.100409
0.176087
0.108036
0.173136
0.116157
0.17007
0.124863
0.166885
0.134278
0.163576
0.144572
0.160148
0.155986
0.156625
0.168873
0.153108
0.183759
0.149971
0.201436
0.148918
0.222808
0.160829
0.245325
0.258158
0.23711
0.212491
0.0059498
0.212118
0.0115421
0.211575
0.0168847
0.210869
0.0220626
0.210009
0.0271414
0.209001
0.0321758
0.207854
0.0372136
0.206574
0.0422966
0.20517
0.0474617
0.203648
0.0527416
0.202018
0.058166
0.200288
0.0637625
0.198468
0.0695575
0.196568
0.0755774
0.1946
0.0818494
0.192577
0.0884032
0.190513
0.0952723
0.188426
0.102497
0.186336
0.110125
0.184274
0.11822
0.182278
0.126859
0.180412
0.136145
0.178773
0.14621
0.177537
0.157223
0.177026
0.169384
0.1779
0.182885
0.181584
0.197751
0.190701
0.213691
0.206268
0.229759
0.244987
0.219439
0.217658
0.00611965
0.217329
0.0118709
0.21685
0.0173632
0.216231
0.0226821
0.215479
0.0278936
0.214602
0.0330525
0.213609
0.0382061
0.21251
0.043396
0.211313
0.0486583
0.21003
0.0540251
0.208671
0.0595249
0.207249
0.0651842
0.205779
0.071028
0.204276
0.0770805
0.202759
0.0833667
0.201249
0.0899129
0.199773
0.0967484
0.198363
0.103907
0.197061
0.111427
0.195923
0.119358
0.195027
0.127755
0.194486
0.136685
0.194471
0.146225
0.195245
0.156449
0.19722
0.16741
0.201005
0.1791
0.207367
0.191389
0.216955
0.204103
0.229456
0.217258
0.228267
0.246177
0.222951
0.00626503
0.22267
0.0121521
0.222262
0.0177712
0.221736
0.0232083
0.2211
0.0285292
0.220365
0.0337882
0.219539
0.0390322
0.218633
0.044302
0.217658
0.0496325
0.216629
0.0550547
0.215558
0.0605956
0.214463
0.0662797
0.213361
0.0721296
0.212275
0.0781669
0.211229
0.0844127
0.210253
0.0908885
0.209384
0.0976171
0.208668
0.104623
0.208162
0.111933
0.207944
0.119576
0.208114
0.127584
0.208814
0.135986
0.210236
0.144804
0.212641
0.154043
0.216375
0.163676
0.221852
0.173623
0.229515
0.183726
0.239921
0.193698
0.253971
0.203208
0.209996
0.272242
0.228374
0.0063841
0.228144
0.012382
0.227812
0.0181036
0.227386
0.0236345
0.226875
0.02904
0.226289
0.0343737
0.22564
0.0396815
0.224939
0.0450029
0.2242
0.0503717
0.223438
0.0558169
0.22267
0.0613638
0.221915
0.0670342
0.221197
0.0728479
0.220541
0.0788226
0.219979
0.0849749
0.219547
0.0913203
0.21929
0.0978736
0.219264
0.104649
0.219538
0.11166
0.220198
0.118916
0.221357
0.126425
0.22316
0.134183
0.22579
0.142174
0.229476
0.150357
0.234494
0.158658
0.241169
0.166947
0.249874
0.175022
0.261045
0.182526
0.275146
0.189107
0.193679
0.291463
0.233929
0.00647515
0.233754
0.0125574
0.233502
0.0183558
0.233182
0.0239548
0.232803
0.029419
0.232376
0.0348007
0.231912
0.0401446
0.231426
0.0454888
0.230933
0.0508653
0.230449
0.056301
0.229994
0.0618187
0.22959
0.0674375
0.229265
0.0731736
0.229047
0.0790405
0.228972
0.0850495
0.229083
0.0912096
0.229429
0.0975273
0.230072
0.104006
0.231085
0.110647
0.232559
0.117442
0.234605
0.124379
0.237357
0.13143
0.240978
0.138552
0.245659
0.145677
0.251617
0.1527
0.25909
0.159474
0.268315
0.165796
0.279465
0.171376
0.292626
0.175946
0.178995
0.30731
0.23962
0.00653669
0.239502
0.0126754
0.239334
0.0185235
0.239125
0.024164
0.238884
0.0296599
0.238622
0.0350623
0.238353
0.0404143
0.238089
0.0457519
0.237849
0.0511054
0.237651
0.0564992
0.237517
0.0619533
0.23747
0.0674839
0.237541
0.0731032
0.237761
0.0788203
0.238169
0.0846411
0.238811
0.0905681
0.239738
0.0965998
0.241014
0.102731
0.242712
0.108949
0.244919
0.115235
0.247737
0.121561
0.251285
0.127883
0.255695
0.134142
0.261117
0.140255
0.267704
0.146113
0.275602
0.151576
0.284929
0.156469
0.295725
0.16058
0.307975
0.163696
0.165553
0.321417
0.245448
0.00656748
0.24539
0.0127337
0.24531
0.0186035
0.245216
0.0242578
0.245118
0.0297578
0.245028
0.0351531
0.244957
0.0404846
0.244923
0.0457865
0.244942
0.0510865
0.245034
0.0564068
0.245223
0.0617645
0.245534
0.0671723
0.245999
0.0726387
0.246651
0.0781685
0.24753
0.0837622
0.248681
0.0894165
0.250158
0.095123
0.252021
0.100868
0.254338
0.106631
0.25719
0.112384
0.260664
0.118087
0.264858
0.123689
0.269875
0.129125
0.275819
0.134311
0.282789
0.139143
0.290864
0.143501
0.300088
0.147245
0.310449
0.150219
0.321878
0.152267
0.153259
0.334172
0.251418
0.00656648
0.251422
0.0127302
0.251432
0.0185928
0.251457
0.0242327
0.251506
0.029709
0.25159
0.035069
0.251723
0.0403517
0.25192
0.0455891
0.252201
0.0508063
0.252584
0.056023
0.253096
0.0612532
0.253761
0.0665066
0.254612
0.0717879
0.255683
0.0770978
0.257013
0.0824325
0.258646
0.0877832
0.260633
0.0931362
0.263029
0.0984718
0.265896
0.103763
0.269303
0.108977
0.273321
0.114069
0.278025
0.118985
0.28349
0.12366
0.289784
0.128017
0.296962
0.131965
0.305058
0.135406
0.314071
0.138232
0.323955
0.140335
0.334612
0.14161
0.142
0.345871
0.257532
0.00653295
0.257599
0.0126636
0.257702
0.0184897
0.257848
0.0240866
0.258046
0.029511
0.258307
0.0348079
0.258645
0.040014
0.259075
0.0451588
0.259617
0.0502652
0.26029
0.0553498
0.261119
0.0604243
0.26213
0.0654949
0.263355
0.0705633
0.264826
0.0756267
0.266581
0.0806772
0.268662
0.0857023
0.271114
0.0906842
0.273987
0.0955993
0.277332
0.100418
0.281206
0.105103
0.285665
0.10961
0.290761
0.113888
0.296546
0.117876
0.303057
0.121506
0.310318
0.124704
0.31833
0.127393
0.327067
0.129496
0.336464
0.130938
0.346417
0.131657
0.131631
0.356787
0.263794
0.00646641
0.263925
0.0125329
0.264122
0.0182929
0.26439
0.0238182
0.264738
0.0291628
0.265177
0.0343692
0.265719
0.0394716
0.266381
0.0444972
0.26718
0.0494661
0.268137
0.0543928
0.269275
0.059286
0.270621
0.0641495
0.272202
0.068982
0.274051
0.0737777
0.276202
0.0785261
0.278693
0.0832118
0.281562
0.0878146
0.284853
0.0923089
0.288607
0.0966638
0.292867
0.100843
0.297673
0.104804
0.303062
0.108499
0.309062
0.111876
0.315689
0.114879
0.322944
0.117449
0.330808
0.119529
0.339239
0.121065
0.348167
0.12201
0.357494
0.122329
0.122021
0.367104
0.270207
0.0063667
0.270402
0.0123379
0.270692
0.0180022
0.271083
0.0234274
0.271581
0.0286647
0.272197
0.033754
0.272941
0.0387268
0.273831
0.0436079
0.274882
0.0484151
0.276114
0.0531604
0.27755
0.0578502
0.279213
0.062486
0.281131
0.0670642
0.283332
0.071577
0.285846
0.0760119
0.288706
0.080352
0.291945
0.0845758
0.295596
0.0886576
0.299693
0.0925673
0.304265
0.0962704
0.30934
0.0997289
0.314938
0.102901
0.32107
0.105744
0.327738
0.108212
0.334926
0.110261
0.342604
0.111851
0.350723
0.112946
0.359214
0.113519
0.367989
0.113554
0.113061
0.376949
0.276774
0.00623391
0.277033
0.0120789
0.277417
0.017618
0.277929
0.0229153
0.278575
0.0280186
0.279364
0.032965
0.280307
0.0377837
0.281418
0.0424969
0.282713
0.0471202
0.28421
0.0516635
0.285929
0.0561312
0.287892
0.0605227
0.290123
0.0648332
0.292647
0.0690531
0.29549
0.0731691
0.298678
0.0771636
0.302239
0.0810154
0.306197
0.0846997
0.310575
0.0881885
0.315395
0.0914509
0.32067
0.0944537
0.326409
0.0971624
0.332611
0.0995417
0.339265
0.101558
0.346347
0.103179
0.353821
0.104377
0.361635
0.105132
0.369724
0.105429
0.378013
0.105265
0.104657
0.386417
0.283498
0.00606842
0.28382
0.0117565
0.284297
0.0171417
0.284928
0.0222838
0.28572
0.0272273
0.286678
0.0320065
0.287814
0.0366482
0.289138
0.0411721
0.290667
0.0455918
0.292415
0.0499153
0.294401
0.0541454
0.296643
0.0582803
0.299163
0.0623137
0.30198
0.0662357
0.305117
0.0700324
0.308593
0.0736869
0.31243
0.0771788
0.316644
0.0804854
0.321251
0.0835817
0.326261
0.0864408
0.33168
0.089035
0.337506
0.0913366
0.343729
0.0933184
0.350331
0.0949557
0.357283
0.0962267
0.364545
0.0971146
0.372069
0.0976082
0.379795
0.0977037
0.387656
0.0974042
0.0967297
0.395583
0.290384
0.00587087
0.290768
0.0113721
0.291335
0.0165754
0.292082
0.0215359
0.293015
0.026295
0.294137
0.0308842
0.295458
0.0353276
0.296987
0.0396429
0.298737
0.0438418
0.300722
0.0479307
0.302956
0.0519111
0.305456
0.0557803
0.308238
0.0595316
0.311319
0.0631547
0.314715
0.0666363
0.318442
0.0699603
0.322512
0.0731085
0.326937
0.0760603
0.331724
0.0787943
0.336877
0.0812881
0.342393
0.0835193
0.348263
0.0854664
0.354472
0.0871094
0.360997
0.0884313
0.367805
0.0894183
0.374858
0.0900614
0.38211
0.0903567
0.389507
0.0903065
0.396993
0.0899187
0.0892139
0.404508
0.297435
0.00564212
0.297879
0.0109274
0.298533
0.0159216
0.299393
0.0206755
0.300461
0.0252269
0.301741
0.0296047
0.303238
0.0338305
0.304961
0.03792
0.306919
0.0418834
0.309124
0.0457256
0.311588
0.0494474
0.314323
0.0530453
0.317342
0.0565126
0.320658
0.0598394
0.32428
0.0630134
0.328221
0.06602
0.332486
0.0688428
0.337082
0.0714646
0.342009
0.0738673
0.347264
0.0760327
0.35284
0.0779437
0.358722
0.0795842
0.364891
0.0809403
0.371322
0.082001
0.377981
0.0827588
0.384832
0.0832104
0.391832
0.0833569
0.398934
0.0832044
0.406089
0.0827635
0.0820543
0.413249
0.304654
0.00538325
0.305157
0.0104246
0.305895
0.0151837
0.306863
0.019707
0.308061
0.0240289
0.30949
0.0281756
0.311154
0.0321664
0.313059
0.0360151
0.315212
0.0397306
0.317621
0.0433167
0.320295
0.0467735
0.323243
0.0500974
0.326473
0.0532819
0.329995
0.056318
0.333814
0.0591944
0.337935
0.0618985
0.342362
0.0644162
0.347093
0.0667332
0.352126
0.0688349
0.357451
0.0707073
0.363057
0.0723374
0.368927
0.0737141
0.375039
0.0748284
0.381366
0.075674
0.387877
0.0762481
0.394536
0.0765514
0.401305
0.0765881
0.408142
0.0763668
0.415007
0.0758991
0.0752042
0.421857
0.312046
0.00509547
0.312605
0.00986597
0.313423
0.0143653
0.314495
0.0186355
0.315816
0.0227076
0.317386
0.0266051
0.319207
0.0303454
0.321282
0.0339405
0.323615
0.0373978
0.326211
0.0407207
0.329076
0.0439086
0.332215
0.0469583
0.335633
0.0498636
0.339334
0.0526165
0.343322
0.0552073
0.347595
0.0576251
0.352153
0.0598584
0.356991
0.0618956
0.3621
0.0637255
0.36747
0.0653374
0.373085
0.0667225
0.378926
0.0678732
0.38497
0.0687846
0.39119
0.069454
0.397556
0.0698819
0.404035
0.0700716
0.410594
0.0700296
0.417196
0.0697652
0.423804
0.0692906
0.0686234
0.430385
0.319615
0.0047801
0.320227
0.00925417
0.321122
0.0134704
0.322291
0.0174663
0.323729
0.0212699
0.325432
0.024902
0.327399
0.028378
0.329631
0.0317083
0.33213
0.0348995
0.334896
0.037954
0.337934
0.0408713
0.341244
0.0436484
0.344827
0.0462798
0.348685
0.0487586
0.352816
0.0510766
0.357216
0.053225
0.36188
0.0551944
0.3668
0.056976
0.371964
0.0585612
0.377359
0.0599427
0.382967
0.0611146
0.388767
0.0620725
0.394738
0.0628143
0.400851
0.0633402
0.40708
0.0636528
0.413395
0.0637571
0.419764
0.0636607
0.426156
0.0633733
0.43254
0.0629067
0.062277
0.438886
0.327365
0.0044385
0.328027
0.0085919
0.328995
0.0125029
0.330256
0.0162049
0.331803
0.0197228
0.33363
0.0230749
0.335734
0.0262745
0.338111
0.0293309
0.340761
0.0322494
0.343683
0.0350322
0.346876
0.0376788
0.350338
0.0401863
0.354067
0.0425504
0.358061
0.0447651
0.362313
0.0468238
0.366819
0.0487195
0.371568
0.050445
0.376551
0.0519935
0.381753
0.0533592
0.387158
0.0545372
0.392749
0.055524
0.398504
0.0563177
0.404399
0.0569184
0.410412
0.0573281
0.416514
0.0575508
0.422678
0.0575925
0.428878
0.057461
0.435085
0.0571662
0.441273
0.0567189
0.0561337
0.447416
0.3353
0.00407204
0.33601
0.00788181
0.337046
0.0114669
0.338394
0.0148569
0.340044
0.0180733
0.341987
0.0211322
0.344216
0.024045
0.346727
0.0268196
0.349516
0.0294606