/*--------------------------------*- C++ -*----------------------------------*\
  =========                 |
  \\      /  F ield         | OpenFOAM: The Open Source CFD Toolbox
   \\    /   O peration     | Website:  https://openfoam.org
    \\  /    A nd           | Version:  7
     \\/     M anipulation  |
\*---------------------------------------------------------------------------*/
FoamFile
{
    version     2.0;
    format      ascii;
    class       volVectorField;
    location    "1.5";
    object      U;
}
// * * * * * * * * * * * * * * * * * * * * * * * * * * * * * * * * * * * * * //

dimensions      [0 1 -1 0 0 0 0];

internalField   nonuniform List<vector> 
2790
(
(9.94399 0.0205207 0)
(9.87574 0.0295821 0)
(9.77525 0.0359806 0)
(9.64952 0.042544 0)
(9.50423 0.0493703 0)
(9.34027 0.0564108 0)
(9.15681 0.0637968 0)
(8.95296 0.071692 0)
(8.72786 0.0802366 0)
(8.48054 0.0895575 0)
(8.20978 0.0997821 0)
(7.91418 0.111041 0)
(7.59223 0.123465 0)
(7.24231 0.137182 0)
(6.86281 0.152305 0)
(6.45219 0.16892 0)
(6.00915 0.187068 0)
(5.5328 0.206713 0)
(5.02288 0.227708 0)
(4.48012 0.249753 0)
(3.90657 0.27234 0)
(3.30597 0.294707 0)
(2.68416 0.315811 0)
(2.04924 0.334478 0)
(1.41019 0.350789 0)
(0.796459 0.37311 0)
(0.105964 0.320752 0)
(-0.462246 -0.113552 0)
(-0.452164 -0.288573 0)
(-0.228578 -0.417605 0)
(9.99851 0.0406952 0)
(9.98147 0.0623659 0)
(9.93579 0.0791136 0)
(9.86425 0.0965889 0)
(9.77111 0.11508 0)
(9.65735 0.134437 0)
(9.52232 0.15492 0)
(9.36518 0.176887 0)
(9.18511 0.200654 0)
(8.98112 0.226504 0)
(8.75201 0.254711 0)
(8.49639 0.285546 0)
(8.21271 0.319259 0)
(7.89929 0.356063 0)
(7.55444 0.396097 0)
(7.17649 0.439383 0)
(6.76392 0.48576 0)
(6.3156 0.534803 0)
(5.83094 0.585726 0)
(5.31028 0.637261 0)
(4.75522 0.687543 0)
(4.16913 0.733999 0)
(3.55765 0.773294 0)
(2.92957 0.801388 0)
(2.29766 0.81395 0)
(1.69042 0.807271 0)
(1.10342 0.745846 0)
(0.656606 0.546112 0)
(0.175136 0.217887 0)
(-0.00698048 -0.454463 0)
(9.9956 0.0431937 0)
(9.97558 0.0752433 0)
(9.93185 0.103302 0)
(9.86498 0.132311 0)
(9.77792 0.162985 0)
(9.67174 0.195314 0)
(9.54613 0.229651 0)
(9.40046 0.26651 0)
(9.23404 0.306382 0)
(9.04608 0.349732 0)
(8.83558 0.397018 0)
(8.60134 0.448699 0)
(8.342 0.505211 0)
(8.05604 0.566935 0)
(7.74188 0.634146 0)
(7.39787 0.706941 0)
(7.02243 0.78513 0)
(6.61412 0.868106 0)
(6.17189 0.954666 0)
(5.69534 1.04281 0)
(5.18503 1.1295 0)
(4.64302 1.21044 0)
(4.07349 1.27981 0)
(3.48371 1.32992 0)
(2.88484 1.35053 0)
(2.2972 1.32661 0)
(1.729 1.22027 0)
(1.21352 0.97267 0)
(0.698247 0.569856 0)
(0.35419 -0.161294 0)
(9.99403 0.0494809 0)
(9.97183 0.0931671 0)
(9.92793 0.133511 0)
(9.86233 0.174126 0)
(9.77707 0.216331 0)
(9.67317 0.260544 0)
(9.55057 0.307302 0)
(9.40881 0.357284 0)
(9.2474 0.411165 0)
(9.06577 0.469595 0)
(8.86318 0.533218 0)
(8.63873 0.602678 0)
(8.39142 0.678599 0)
(8.1201 0.761548 0)
(7.82357 0.851977 0)
(7.50055 0.950129 0)
(7.14972 1.05591 0)
(6.76982 1.16873 0)
(6.35974 1.28722 0)
(5.91867 1.40901 0)
(5.44638 1.53032 0)
(4.94359 1.6456 0)
(4.41246 1.74708 0)
(3.85725 1.82409 0)
(3.28451 1.86207 0)
(2.70487 1.84073 0)
(2.12389 1.72582 0)
(1.55259 1.47732 0)
(0.956728 1.08222 0)
(0.509302 0.498682 0)
(9.99331 0.0571903 0)
(9.96996 0.110909 0)
(9.92597 0.162026 0)
(9.86154 0.213242 0)
(9.77812 0.266227 0)
(9.67653 0.321764 0)
(9.55678 0.380539 0)
(9.41852 0.443321 0)
(9.26134 0.510894 0)
(9.08476 0.584025 0)
(8.88819 0.663472 0)
(8.67091 0.749993 0)
(8.43215 0.844324 0)
(8.17104 0.94715 0)
(7.88667 1.05904 0)
(7.57806 1.18035 0)
(7.24422 1.31109 0)
(6.88412 1.45073 0)
(6.49673 1.59793 0)
(6.08108 1.75018 0)
(5.63637 1.90341 0)
(5.16217 2.05142 0)
(4.65864 2.18532 0)
(4.12687 2.29283 0)
(3.56884 2.35747 0)
(2.98817 2.35788 0)
(2.386 2.26485 0)
(1.76557 2.04671 0)
(1.08949 1.68906 0)
(0.536635 1.14958 0)
(9.99302 0.0655104 0)
(9.96925 0.128641 0)
(9.92561 0.190019 0)
(9.86261 0.251716 0)
(9.78141 0.315421 0)
(9.68262 0.382138 0)
(9.56625 0.452678 0)
(9.43201 0.527898 0)
(9.27956 0.608683 0)
(9.10847 0.695906 0)
(8.91824 0.790434 0)
(8.70824 0.893128 0)
(8.47782 1.00483 0)
(8.22624 1.12631 0)
(7.95272 1.25824 0)
(7.65647 1.40109 0)
(7.33661 1.55496 0)
(6.9922 1.71944 0)
(6.62223 1.89329 0)
(6.22551 2.07414 0)
(5.80074 2.25792 0)
(5.34643 2.4384 0)
(4.86101 2.60646 0)
(4.34289 2.74945 0)
(3.79047 2.85059 0)
(3.20254 2.88884 0)
(2.57645 2.83816 0)
(1.9133 2.67052 0)
(1.17273 2.37136 0)
(0.550068 1.88967 0)
(9.99297 0.0740419 0)
(9.96928 0.146243 0)
(9.92641 0.217373 0)
(9.86516 0.289143 0)
(9.78655 0.363172 0)
(9.69102 0.440616 0)
(9.57857 0.522431 0)
(9.449 0.609574 0)
(9.30199 0.703025 0)
(9.13717 0.803755 0)
(8.95408 0.912727 0)
(8.75217 1.03089 0)
(8.53084 1.15917 0)
(8.2894 1.29844 0)
(8.02712 1.44944 0)
(7.74323 1.61275 0)
(7.43684 1.7886 0)
(7.10695 1.97674 0)
(6.75236 2.17615 0)
(6.37157 2.38474 0)
(5.96267 2.59883 0)
(5.52322 2.81261 0)
(5.0501 3.01746 0)
(4.53957 3.20124 0)
(3.98718 3.34778 0)
(3.38839 3.43667 0)
(2.73766 3.4433 0)
(2.03655 3.34041 0)
(1.24205 3.11095 0)
(0.563717 2.68852 0)
(9.99307 0.0825504 0)
(9.96983 0.163526 0)
(9.92811 0.243925 0)
(9.86892 0.32531 0)
(9.79324 0.409238 0)
(9.70142 0.496967 0)
(9.59345 0.589579 0)
(9.46915 0.688128 0)
(9.32827 0.793679 0)
(9.1705 0.907292 0)
(8.99542 1.03002 0)
(8.80253 1.1629 0)
(8.59126 1.30694 0)
(8.36097 1.46312 0)
(8.11091 1.63229 0)
(7.84027 1.81514 0)
(7.54808 2.01208 0)
(7.23315 2.22308 0)
(6.89399 2.44747 0)
(6.52869 2.68359 0)
(6.13465 2.92842 0)
(5.70847 3.17697 0)
(5.24565 3.42164 0)
(4.74053 3.65146 0)
(4.18627 3.85134 0)
(3.57555 4.00162 0)
(2.90028 4.07796 0)
(2.16275 4.0514 0)
(1.31665 3.89923 0)
(0.583501 3.53579 0)
(9.99326 0.0908863 0)
(9.97074 0.180319 0)
(9.9305 0.269527 0)
(9.87369 0.360053 0)
(9.80129 0.453415 0)
(9.71359 0.550944 0)
(9.61058 0.653824 0)
(9.49213 0.7632 0)
(9.35805 0.880218 0)
(9.20806 1.00602 0)
(9.04181 1.14174 0)
(8.85885 1.28851 0)
(8.65866 1.44745 0)
(8.4406 1.61961 0)
(8.20395 1.80601 0)
(7.94782 2.00748 0)
(7.67114 2.22466 0)
(7.37251 2.45783 0)
(7.05016 2.70677 0)
(6.70167 2.97043 0)
(6.3238 3.24667 0)
(5.91218 3.53166 0)
(5.461 3.81926 0)
(4.96277 4.10017 0)
(4.40828 4.36091 0)
(3.78734 4.58281 0)
(3.08851 4.74118 0)
(2.31354 4.80362 0)
(1.41131 4.73888 0)
(0.614649 4.43795 0)
(9.99353 0.0989459 0)
(9.97192 0.19648 0)
(9.93344 0.294041 0)
(9.87931 0.39321 0)
(9.8105 0.495502 0)
(9.72731 0.602298 0)
(9.62972 0.714869 0)
(9.51764 0.834442 0)
(9.39095 0.962235 0)
(9.24942 1.09947 0)
(9.09276 1.24736 0)
(8.9206 1.40713 0)
(8.73244 1.58 0)
(8.52772 1.76714 0)
(8.3057 1.96971 0)
(8.0655 2.18876 0)
(7.80593 2.42521 0)
(7.52548 2.67973 0)
(7.22208 2.95262 0)
(6.89295 3.24365 0)
(6.53427 3.55174 0)
(6.1408 3.87453 0)
(5.70551 4.20779 0)
(5.21909 4.54445 0)
(4.66977 4.87337 0)
(4.04378 5.17761 0)
(3.32468 5.43243 0)
(2.5107 5.60127 0)
(1.54262 5.6416 0)
(0.664449 5.41454 0)
(9.99385 0.106654 0)
(9.97332 0.211893 0)
(9.93683 0.317335 0)
(9.88564 0.424632 0)
(9.82073 0.535315 0)
(9.74239 0.650809 0)
(9.65061 0.772452 0)
(9.54538 0.901545 0)
(9.42661 1.03937 0)
(9.29415 1.18723 0)
(9.14778 1.3464 0)
(8.98719 1.5182 0)
(8.81198 1.70393 0)
(8.62162 1.90493 0)
(8.41546 2.12249 0)
(8.19261 2.35791 0)
(7.9519 2.61241 0)
(7.69175 2.88712 0)
(7.40997 3.18299 0)
(7.10355 3.50067 0)
(6.76828 3.84037 0)
(6.39834 4.2015 0)
(5.98569 4.58214 0)
(5.51939 4.97823 0)
(4.9849 5.38208 0)
(4.36401 5.78005 0)
(3.63282 6.1492 0)
(2.78108 6.45007 0)
(1.73428 6.62693 0)
(0.745285 6.50014 0)
(9.99421 0.113952 0)
(9.97488 0.22646 0)
(9.94059 0.339294 0)
(9.89257 0.454184 0)
(9.83182 0.572691 0)
(9.75863 0.696278 0)
(9.67304 0.82634 0)
(9.57506 0.964236 0)
(9.46468 1.11131 0)
(9.34183 1.26892 0)
(9.20635 1.43842 0)
(9.05804 1.6212 0)
(8.89658 1.81866 0)
(8.72154 2.03225 0)
(8.53237 2.26346 0)
(8.32827 2.5138 0)
(8.10816 2.78485 0)
(7.87052 3.07819 0)
(7.61323 3.39547 0)
(7.33329 3.73831 0)
(7.02645 4.10833 0)
(6.68671 4.50691 0)
(6.30555 4.93494 0)
(5.87093 5.39217 0)
(5.36588 5.87589 0)
(4.76731 6.3785 0)
(4.04144 6.88311 0)
(3.16239 7.35289 0)
(2.02567 7.72191 0)
(0.881291 7.75479 0)
(9.9946 0.120796 0)
(9.97658 0.240102 0)
(9.94464 0.359817 0)
(9.90001 0.481747 0)
(9.84364 0.607488 0)
(9.77586 0.738535 0)
(9.69675 0.876328 0)
(9.60638 1.02228 0)
(9.5048 1.17778 0)
(9.392 1.34422 0)
(9.26795 1.52304 0)
(9.13251 1.71567 0)
(8.9855 1.92362 0)
(8.82663 2.14844 0)
(8.65546 2.39178 0)
(8.47138 2.65537 0)
(8.27349 2.94112 0)
(8.06049 3.25106 0)
(7.83053 3.5875 0)
(7.58093 3.95306 0)
(7.30783 4.35073 0)
(7.00566 4.784 0)
(6.66627 5.25683 0)
(6.27769 5.77348 0)
(5.82195 6.33794 0)
(5.27238 6.95232 0)
(4.58494 7.61316 0)
(3.71086 8.30009 0)
(2.48932 8.95712 0)
(1.12528 9.29181 0)
(9.99501 0.12715 0)
(9.97839 0.252755 0)
(9.94894 0.378821 0)
(9.90784 0.507221 0)
(9.85605 0.639586 0)
(9.79391 0.77744 0)
(9.72154 0.922258 0)
(9.63906 1.07549 0)
(9.54659 1.23855 0)
(9.44423 1.41289 0)
(9.33202 1.59997 0)
(9.20995 1.80128 0)
(9.07797 2.0184 0)
(8.93595 2.25297 0)
(8.78364 2.50677 0)
(8.62065 2.78173 0)
(8.44638 3.08 0)
(8.25989 3.40404 0)
(8.05981 3.75672 0)
(7.8441 4.1415 0)
(7.60978 4.56265 0)
(7.35242 5.02558 0)
(7.06544 5.5372 0)
(6.73879 6.1065 0)
(6.35657 6.74518 0)
(5.89322 7.46834 0)
(5.3007 8.29522 0)
(4.50976 9.24654 0)
(3.27055 10.3406 0)
(1.60647 11.3593 0)
(9.99545 0.132987 0)
(9.98027 0.264368 0)
(9.95342 0.396233 0)
(9.916 0.530512 0)
(9.86894 0.668866 0)
(9.81261 0.812841 0)
(9.74717 0.963935 0)
(9.67281 1.12362 0)
(9.58972 1.29335 0)
(9.49807 1.47458 0)
(9.39802 1.6688 0)
(9.28969 1.87755 0)
(9.17318 2.10243 0)
(9.04852 2.34516 0)
(8.91571 2.6076 0)
(8.77464 2.89181 0)
(8.62507 3.20015 0)
(8.46655 3.53534 0)
(8.29837 3.90068 0)
(8.1194 4.30024 0)
(7.92796 4.73922 0)
(7.72151 5.22444 0)
(7.49627 5.7651 0)
(7.24639 6.37398 0)
(6.96247 7.06952 0)
(6.6291 7.87954 0)
(6.21366 8.84957 0)
(5.66692 10.0629 0)
(4.6937 11.7287 0)
(2.69092 14.5965 0)
(0.29668 -0.387975 0)
(0.655036 -0.303021 0)
(1.00777 -0.241153 0)
(1.31508 -0.198634 0)
(1.57613 -0.167338 0)
(1.80177 -0.142513 0)
(1.99968 -0.122071 0)
(2.17351 -0.104942 0)
(2.32518 -0.0904165 0)
(2.45612 -0.0781601 0)
(2.56794 -0.0681801 0)
(2.66237 -0.0608258 0)
(2.741 -0.0575505 0)
(2.80568 -0.0578446 0)
(2.85627 -0.0568611 0)
(2.88501 -0.0495097 0)
(2.87902 -0.0356909 0)
(2.84122 -0.0191695 0)
(2.77822 -0.00341041 0)
(2.69847 0.00915404 0)
(2.61165 0.0173008 0)
(2.52773 0.0205999 0)
(2.45647 0.0192121 0)
(2.40724 0.0138086 0)
(2.38886 0.00614878 0)
(2.39457 0.000986338 0)
(2.42981 -0.00349583 0)
(2.51696 -0.0165382 0)
(2.67101 -0.0423815 0)
(2.98609 -0.0740115 0)
(0.157994 -0.647237 0)
(0.46942 -0.53199 0)
(0.744798 -0.434128 0)
(0.990759 -0.362883 0)
(1.20104 -0.308669 0)
(1.38171 -0.264101 0)
(1.53754 -0.225985 0)
(1.6706 -0.192669 0)
(1.78144 -0.162855 0)
(1.86956 -0.136141 0)
(1.93391 -0.11313 0)
(1.97196 -0.0920119 0)
(1.97334 -0.066217 0)
(1.9093 -0.0334942 0)
(1.79494 0.000728079 0)
(1.65938 0.0332375 0)
(1.52268 0.0612973 0)
(1.38517 0.082643 0)
(1.24987 0.0956469 0)
(1.12275 0.0992365 0)
(1.01092 0.0941366 0)
(0.920364 0.0813818 0)
(0.856142 0.0614764 0)
(0.823949 0.0349533 0)
(0.829749 0.00959332 0)
(0.86246 -0.014083 0)
(0.9484 -0.0509632 0)
(1.09842 -0.102492 0)
(1.29024 -0.1648 0)
(1.62068 -0.21711 0)
(0.0723374 -0.901444 0)
(0.286897 -0.783688 0)
(0.445053 -0.655712 0)
(0.596504 -0.554291 0)
(0.718741 -0.472847 0)
(0.81533 -0.403284 0)
(0.887503 -0.34173 0)
(0.935158 -0.285855 0)
(0.956966 -0.232894 0)
(0.949011 -0.179088 0)
(0.902566 -0.119131 0)
(0.795213 -0.0508561 0)
(0.656167 0.0163168 0)
(0.534397 0.0713449 0)
(0.408576 0.111313 0)
(0.275997 0.139264 0)
(0.14428 0.158434 0)
(0.0159495 0.168697 0)
(-0.0965601 0.168744 0)
(-0.193488 0.157935 0)
(-0.270033 0.136888 0)
(-0.322722 0.10697 0)
(-0.348792 0.0697136 0)
(-0.345432 0.0275266 0)
(-0.320133 -0.0164256 0)
(-0.240739 -0.0682225 0)
(-0.129598 -0.130747 0)
(0.0157886 -0.201443 0)
(0.185312 -0.283566 0)
(0.418499 -0.345185 0)
(0.00940156 -1.0152 0)
(0.114788 -0.887707 0)
(0.149493 -0.734906 0)
(0.197417 -0.610964 0)
(0.218461 -0.50625 0)
(0.218218 -0.413061 0)
(0.193686 -0.32685 0)
(0.141887 -0.244282 0)
(0.0597374 -0.161799 0)
(-0.053664 -0.0788879 0)
(-0.195104 0.00151845 0)
(-0.310347 0.0665691 0)
(-0.423016 0.117797 0)
(-0.540694 0.160752 0)
(-0.659344 0.196148 0)
(-0.775046 0.220788 0)
(-0.88442 0.23359 0)
(-0.983032 0.234546 0)
(-1.06635 0.223182 0)
(-1.13142 0.199849 0)
(-1.17528 0.165282 0)
(-1.1958 0.121182 0)
(-1.19128 0.0697267 0)
(-1.16137 0.0131568 0)
(-1.11093 -0.0505284 0)
(-1.02579 -0.119917 0)
(-0.921652 -0.193906 0)
(-0.803523 -0.272658 0)
(-0.683983 -0.351502 0)
(-0.585195 -0.407625 0)
(-0.0472998 -1.01837 0)
(-0.0533501 -0.879623 0)
(-0.130609 -0.715657 0)
(-0.189745 -0.578692 0)
(-0.269333 -0.457751 0)
(-0.363616 -0.348826 0)
(-0.47294 -0.24815 0)
(-0.595544 -0.153364 0)
(-0.729702 -0.0633672 0)
(-0.86908 0.0192602 0)
(-0.984472 0.0876206 0)
(-1.10189 0.146776 0)
(-1.21899 0.198306 0)
(-1.33324 0.240246 0)
(-1.44191 0.271195 0)
(-1.54231 0.289395 0)
(-1.63189 0.293783 0)
(-1.70776 0.284091 0)
(-1.76724 0.260404 0)
(-1.80826 0.223579 0)
(-1.82932 0.175071 0)
(-1.82956 0.117209 0)
(-1.80885 0.0527168 0)
(-1.77028 -0.016516 0)
(-1.70711 -0.0907099 0)
(-1.62929 -0.167301 0)
(-1.54267 -0.244241 0)
(-1.45441 -0.32158 0)
(-1.37649 -0.395605 0)
(-1.32914 -0.450967 0)
(-0.106465 -0.918017 0)
(-0.213057 -0.77156 0)
(-0.382848 -0.60903 0)
(-0.532901 -0.469556 0)
(-0.688759 -0.345392 0)
(-0.846295 -0.233492 0)
(-1.0048 -0.130604 0)
(-1.16413 -0.0348792 0)
(-1.3107 0.04873 0)
(-1.43773 0.119245 0)
(-1.56372 0.180921 0)
(-1.68552 0.23535 0)
(-1.80149 0.28115 0)
(-1.90972 0.316384 0)
(-2.00831 0.33927 0)
(-2.09546 0.348274 0)
(-2.16949 0.342458 0)
(-2.22869 0.321592 0)
(-2.27155 0.286109 0)
(-2.29695 0.237232 0)
(-2.30427 0.176962 0)
(-2.29337 0.108037 0)
(-2.26491 0.0331644 0)
(-2.22146 -0.0461023 0)
(-2.16106 -0.127187 0)
(-2.09381 -0.206856 0)
(-2.02473 -0.28309 0)
(-1.96123 -0.355629 0)
(-1.91273 -0.42321 0)
(-1.88957 -0.475949 0)
(-0.162025 -0.730139 0)
(-0.349544 -0.583431 0)
(-0.593027 -0.431715 0)
(-0.809584 -0.301642 0)
(-1.01806 -0.185927 0)
(-1.21573 -0.0806445 0)
(-1.39928 0.0133852 0)
(-1.5596 0.0920307 0)
(-1.70643 0.16088 0)
(-1.84559 0.222605 0)
(-1.97698 0.277418 0)
(-2.09955 0.324145 0)
(-2.21233 0.361339 0)
(-2.31423 0.387262 0)
(-2.40414 0.400228 0)
(-2.48104 0.398837 0)
(-2.54398 0.382254 0)
(-2.59208 0.350342 0)
(-2.62457 0.303722 0)
(-2.64095 0.243859 0)
(-2.64103 0.173095 0)
(-2.62512 0.0944878 0)
(-2.5944 0.0110509 0)
(-2.55126 -0.0748775 0)
(-2.49776 -0.159555 0)
(-2.44165 -0.239427 0)
(-2.38837 -0.312471 0)
(-2.34524 -0.378666 0)
(-2.31897 -0.438949 0)
(-2.31049 -0.486363 0)
(-0.209806 -0.474564 0)
(-0.460842 -0.340025 0)
(-0.759905 -0.206607 0)
(-1.02083 -0.0871881 0)
(-1.25591 0.0119196 0)
(-1.46373 0.0922809 0)
(-1.64808 0.160402 0)
(-1.81817 0.222824 0)
(-1.97506 0.279839 0)
(-2.11981 0.330845 0)
(-2.25267 0.375149 0)
(-2.37355 0.411409 0)
(-2.4822 0.438033 0)
(-2.57821 0.453291 0)
(-2.66116 0.455546 0)
(-2.73065 0.443472 0)
(-2.7863 0.416288 0)
(-2.82776 0.373906 0)
(-2.85472 0.317045 0)
(-2.86697 0.247322 0)
(-2.86454 0.167321 0)
(-2.84802 0.0804342 0)
(-2.81901 -0.00984526 0)
(-2.77923 -0.100464 0)
(-2.73365 -0.186835 0)
(-2.68828 -0.265235 0)
(-2.64906 -0.333665 0)
(-2.62325 -0.392701 0)
(-2.61499 -0.445008 0)
(-2.61706 -0.485724 0)
(-0.251606 -0.153273 0)
(-0.545123 -0.0115512 0)
(-0.866886 0.0848764 0)
(-1.1401 0.153836 0)
(-1.38293 0.212183 0)
(-1.60091 0.26579 0)
(-1.79744 0.315276 0)
(-1.97523 0.361116 0)
(-2.13601 0.40306 0)
(-2.28138 0.440394 0)
(-2.41234 0.471933 0)
(-2.52952 0.496101 0)
(-2.63326 0.511127 0)
(-2.72375 0.515197 0)
(-2.80108 0.506645 0)
(-2.86531 0.484144 0)
(-2.91649 0.446899 0)
(-2.9546 0.394808 0)
(-2.97957 0.328603 0)
(-2.99134 0.249979 0)
(-2.98993 0.161689 0)
(-2.97602 0.0674425 0)
(-2.95133 -0.0286631 0)
(-2.91739 -0.122414 0)
(-2.88019 -0.209056 0)
(-2.84514 -0.284791 0)
(-2.81869 -0.347682 0)
(-2.8082 -0.398991 0)
(-2.81543 -0.442794 0)
(-2.82611 -0.476375 0)
(-0.260989 0.248869 0)
(-0.569234 0.316301 0)
(-0.903462 0.358161 0)
(-1.19027 0.392344 0)
(-1.44486 0.421889 0)
(-1.66995 0.449231 0)
(-1.86947 0.475592 0)
(-2.04694 0.501423 0)
(-2.20516 0.52599 0)
(-2.34633 0.54797 0)
(-2.47205 0.565656 0)
(-2.58343 0.57712 0)
(-2.68127 0.580349 0)
(-2.76616 0.573384 0)
(-2.8386 0.55447 0)
(-2.89897 0.522215 0)
(-2.94762 0.475758 0)
(-2.98474 0.414921 0)
(-3.01042 0.340376 0)
(-3.02457 0.25382 0)
(-3.02715 0.158102 0)
(-3.01866 0.0572072 0)
(-3.00043 -0.0440091 0)
(-2.97438 -0.140046 0)
(-2.94616 -0.226138 0)
(-2.92127 -0.298451 0)
(-2.90681 -0.355197 0)
(-2.91041 -0.398331 0)
(-2.93169 -0.433255 0)
(-2.95009 -0.459707 0)
(-0.257194 0.601087 0)
(-0.576258 0.648659 0)
(-0.921588 0.649285 0)
(-1.21197 0.642567 0)
(-1.46501 0.635783 0)
(-1.68483 0.632453 0)
(-1.87685 0.633243 0)
(-2.04558 0.637614 0)
(-2.19461 0.644006 0)
(-2.32664 0.650289 0)
(-2.44357 0.654126 0)
(-2.54678 0.653168 0)
(-2.63732 0.645129 0)
(-2.71604 0.62787 0)
(-2.78369 0.599512 0)
(-2.84092 0.558563 0)
(-2.88828 0.504048 0)
(-2.92616 0.435658 0)
(-2.95468 0.353934 0)
(-2.9737 0.260488 0)
(-2.98297 0.15819 0)
(-2.98263 0.051289 0)
(-2.97342 -0.0545118 0)
(-2.95701 -0.152679 0)
(-2.93865 -0.237891 0)
(-2.92419 -0.306356 0)
(-2.92147 -0.356554 0)
(-2.93863 -0.391138 0)
(-2.97338 -0.416854 0)
(-2.9992 -0.436226 0)
(-0.261555 0.982227 0)
(-0.591956 0.996358 0)
(-0.938843 0.943645 0)
(-1.21818 0.887756 0)
(-1.45455 0.840678 0)
(-1.65573 0.805152 0)
(-1.82918 0.780013 0)
(-1.98038 0.763323 0)
(-2.11342 0.752359 0)
(-2.23118 0.743927 0)
(-2.33552 0.734956 0)
(-2.42781 0.722678 0)
(-2.50915 0.704553 0)
(-2.5805 0.678271 0)
(-2.64278 0.641829 0)
(-2.69682 0.593622 0)
(-2.74339 0.532535 0)
(-2.78301 0.458071 0)
(-2.81591 0.370557 0)
(-2.84186 0.271421 0)
(-2.86037 0.163475 0)
(-2.87111 0.05117 0)
(-2.8742 -0.0590215 0)
(-2.87011 -0.159385 0)
(-2.86343 -0.243784 0)
(-2.8604 -0.308309 0)
(-2.86985 -0.351776 0)
(-2.90074 -0.377521 0)
(-2.94906 -0.393686 0)
(-2.98248 -0.405897 0)
(-0.280677 1.3868 0)
(-0.629679 1.35335 0)
(-0.969982 1.22805 0)
(-1.22056 1.11219 0)
(-1.42218 1.0227 0)
(-1.59 0.956407 0)
(-1.73342 0.907384 0)
(-1.85807 0.871999 0)
(-1.96822 0.846193 0)
(-2.06651 0.825333 0)
(-2.15429 0.805529 0)
(-2.23253 0.783735 0)
(-2.30222 0.757266 0)
(-2.36431 0.723685 0)
(-2.41982 0.680903 0)
(-2.46978 0.627234 0)
(-2.51518 0.561417 0)
(-2.55681 0.482739 0)
(-2.59502 0.391249 0)
(-2.62957 0.288105 0)
(-2.65976 0.175974 0)
(-2.68478 0.0593494 0)
(-2.70415 -0.0549876 0)
(-2.71659 -0.158158 0)
(-2.72495 -0.242572 0)
(-2.73565 -0.303694 0)
(-2.75862 -0.34058 0)
(-2.80414 -0.357336 0)
(-2.86685 -0.363571 0)
(-2.90845 -0.36835 0)
(-0.325824 1.83033 0)
(-0.712358 1.72498 0)
(-1.03751 1.48757 0)
(-1.23177 1.29491 0)
(-1.37374 1.16547 0)
(-1.49199 1.07502 0)
(-1.59416 1.00682 0)
(-1.68339 0.957044 0)
(-1.76396 0.920741 0)
(-1.83785 0.891004 0)
(-1.90509 0.86309 0)
(-1.96583 0.834128 0)
(-2.02083 0.801517 0)
(-2.07101 0.762753 0)
(-2.11743 0.715747 0)
(-2.16138 0.658813 0)
(-2.20424 0.590571 0)
(-2.24724 0.510045 0)
(-2.29109 0.416901 0)
(-2.33565 0.311849 0)
(-2.38003 0.197242 0)
(-2.42289 0.0775073 0)
(-2.46307 -0.0406616 0)
(-2.49774 -0.147462 0)
(-2.52628 -0.23297 0)
(-2.55484 -0.291473 0)
(-2.5941 -0.322244 0)
(-2.65608 -0.330121 0)
(-2.73471 -0.325969 0)
(-2.78544 -0.322656 0)
(-0.443102 2.51426 0)
(-0.88149 2.21132 0)
(-1.18116 1.7217 0)
(-1.26576 1.40178 0)
(-1.30866 1.24726 0)
(-1.36154 1.15108 0)
(-1.41399 1.07061 0)
(-1.45957 1.01205 0)
(-1.50443 0.971746 0)
(-1.54991 0.937818 0)
(-1.59301 0.904778 0)
(-1.63255 0.871194 0)
(-1.66922 0.834883 0)
(-1.70392 0.793217 0)
(-1.73771 0.744246 0)
(-1.77221 0.686457 0)
(-1.80947 0.61841 0)
(-1.85146 0.538838 0)
(-1.89959 0.446931 0)
(-1.95403 0.342782 0)
(-2.01375 0.22825 0)
(-2.07701 0.107767 0)
(-2.14176 -0.0121502 0)
(-2.20686 -0.122179 0)
(-2.26494 -0.210084 0)
(-2.32018 -0.267939 0)
(-2.38205 -0.294476 0)
(-2.46394 -0.294406 0)
(-2.56069 -0.279336 0)
(-2.6219 -0.266681 0)
(9.9959 0.138379 0)
(9.98226 0.275097 0)
(9.95813 0.412308 0)
(9.92457 0.551986 0)
(9.88247 0.695818 0)
(9.83223 0.845361 0)
(9.77406 1.00213 0)
(9.70821 1.1676 0)
(9.63496 1.34324 0)
(9.55458 1.53052 0)
(9.46732 1.73092 0)
(9.37346 1.946 0)
(9.27324 2.17738 0)
(9.16693 2.42679 0)
(9.05476 2.69614 0)
(8.93697 2.98756 0)
(8.81373 3.30347 0)
(8.6852 3.64676 0)
(8.55144 4.02092 0)
(8.41247 4.4303 0)
(8.26822 4.8805 0)
(8.11863 5.37896 0)
(7.96366 5.93581 0)
(7.80365 6.56535 0)
(7.63992 7.28859 0)
(7.47764 8.13805 0)
(7.33046 9.16763 0)
(7.28939 10.4709 0)
(7.75625 12.1928 0)
(7.9584 14.9106 0)
(9.99639 0.143337 0)
(9.98434 0.284947 0)
(9.96307 0.427029 0)
(9.93355 0.571589 0)
(9.89661 0.720326 0)
(9.85267 0.874805 0)
(9.80202 1.03654 0)
(9.74495 1.20701 0)
(9.68184 1.38769 0)
(9.61303 1.58001 0)
(9.53892 1.78547 0)
(9.45991 2.00559 0)
(9.37644 2.24199 0)
(9.28897 2.49637 0)
(9.19804 2.77062 0)
(9.1042 3.06683 0)
(9.00812 3.38743 0)
(8.91053 3.73523 0)
(8.81236 4.11367 0)
(8.71479 4.52697 0)
(8.61944 4.98053 0)
(8.52869 5.48132 0)
(8.44628 6.0386 0)
(8.37852 6.66488 0)
(8.33668 7.37725 0)
(8.34298 8.19894 0)
(8.43658 9.15975 0)
(8.67373 10.2923 0)
(9.32381 11.5397 0)
(9.82036 12.611 0)
(9.99689 0.147771 0)
(9.98651 0.293755 0)
(9.9682 0.440174 0)
(9.94285 0.589053 0)
(9.91124 0.742095 0)
(9.87381 0.900859 0)
(9.83088 1.06685 0)
(9.78283 1.24153 0)
(9.73009 1.42634 0)
(9.67311 1.6227 0)
(9.6124 1.83206 0)
(9.54851 2.05591 0)
(9.48204 2.29579 0)
(9.4137 2.55335 0)
(9.34427 2.83039 0)
(9.27466 3.1289 0)
(9.20597 3.45112 0)
(9.13953 3.79968 0)
(9.07703 4.17767 0)
(9.02067 4.58881 0)
(8.97348 5.03767 0)
(8.93973 5.52987 0)
(8.92572 6.07232 0)
(8.94098 6.67331 0)
(9.00001 7.34211 0)
(9.12494 8.08712 0)
(9.34672 8.90976 0)
(9.6745 9.79813 0)
(10.237 10.6996 0)
(10.9189 11.4013 0)
(9.9974 0.151631 0)
(9.98874 0.301413 0)
(9.97348 0.451576 0)
(9.9524 0.604148 0)
(9.92625 0.760824 0)
(9.89546 0.923147 0)
(9.86041 1.0926 0)
(9.82154 1.27061 0)
(9.77933 1.45858 0)
(9.73434 1.65789 0)
(9.68717 1.86993 0)
(9.63851 2.09609 0)
(9.58914 2.33784 0)
(9.53994 2.59671 0)
(9.49195 2.87435 0)
(9.44641 3.17255 0)
(9.40478 3.49329 0)
(9.36888 3.83881 0)
(9.34101 4.21168 0)
(9.32412 4.61484 0)
(9.32213 5.05164 0)
(9.34032 5.52587 0)
(9.38592 6.04159 0)
(9.46879 6.60267 0)
(9.60208 7.21173 0)
(9.80248 7.86825 0)
(10.0925 8.56484 0)
(10.4805 9.28646 0)
(11.0324 10.0227 0)
(11.817 10.6602 0)
(9.99792 0.154869 0)
(9.99101 0.307829 0)
(9.97885 0.4611 0)
(9.96213 0.616696 0)
(9.94151 0.776294 0)
(9.91745 0.941409 0)
(9.89037 1.11348 0)
(9.86075 1.29391 0)
(9.82914 1.48403 0)
(9.79618 1.68514 0)
(9.76255 1.89857 0)
(9.72907 2.1256 0)
(9.69665 2.36756 0)
(9.66636 2.62585 0)
(9.63943 2.90188 0)
(9.61735 3.19719 0)
(9.60188 3.51342 0)
(9.59517 3.85232 0)
(9.59992 4.21579 0)
(9.61948 4.60585 0)
(9.65816 5.02457 0)
(9.72145 5.47391 0)
(9.81637 5.95543 0)
(9.95183 6.46976 0)
(10.1388 7.01574 0)
(10.3901 7.58937 0)
(10.723 8.18245 0)
(11.1486 8.78022 0)
(11.6897 9.37112 0)
(12.4334 9.88042 0)
(9.99845 0.157442 0)
(9.99331 0.312917 0)
(9.98428 0.468619 0)
(9.97194 0.626533 0)
(9.9569 0.788303 0)
(9.9396 0.955405 0)
(9.9205 1.12923 0)
(9.90012 1.31112 0)
(9.87908 1.50233 0)
(9.85804 1.7041 0)
(9.83781 1.91761 0)
(9.81928 2.14405 0)
(9.80347 2.38459 0)
(9.79158 2.64042 0)
(9.78499 2.91272 0)
(9.78536 3.20272 0)
(9.79463 3.51163 0)
(9.81515 3.8407 0)
(9.84976 4.19113 0)
(9.90193 4.56401 0)
(9.97592 4.96022 0)
(10.0769 5.38021 0)
(10.2112 5.82367 0)
(10.3862 6.28911 0)
(10.6107 6.77324 0)
(10.8941 7.27026 0)
(11.2477 7.77095 0)
(11.6791 8.25978 0)
(12.1888 8.72016 0)
(12.8554 9.11071 0)
(9.99898 0.15931 0)
(9.9956 0.316602 0)
(9.98971 0.474021 0)
(9.98176 0.63351 0)
(9.97228 0.79667 0)
(9.96171 0.964924 0)
(9.95053 1.13961 0)
(9.9393 1.32198 0)
(9.92867 1.51322 0)
(9.91936 1.71446 0)
(9.91222 1.92678 0)
(9.90822 2.1512 0)
(9.90845 2.38872 0)
(9.9142 2.64031 0)
(9.92693 2.9069 0)
(9.94838 3.18936 0)
(9.98057 3.4885 0)
(10.0259 3.80504 0)
(10.0871 4.13952 0)
(10.1676 4.49222 0)
(10.2713 4.86303 0)
(10.4027 5.25123 0)
(10.567 5.65522 0)
(10.7702 6.07219 0)
(11.0186 6.49765 0)
(11.3184 6.92492 0)
(11.6757 7.3447 0)
(12.0944 7.74365 0)
(12.5684 8.10736 0)
(13.1655 8.41549 0)
(9.99951 0.160441 0)
(9.99789 0.318815 0)
(9.9951 0.477207 0)
(9.9915 0.637502 0)
(9.98751 0.801243 0)
(9.98358 0.969794 0)
(9.98019 1.14442 0)
(9.97793 1.32629 0)
(9.97745 1.51649 0)
(9.97953 1.71605 0)
(9.98504 1.9259 0)
(9.99498 2.14692 0)
(10.0105 2.37992 0)
(10.0329 2.62563 0)
(10.0637 2.8847 0)
(10.1045 3.15769 0)
(10.1575 3.445 0)
(10.2249 3.74687 0)
(10.3093 4.06327 0)
(10.4137 4.39381 0)
(10.5415 4.73762 0)
(10.6965 5.09318 0)
(10.8827 5.45809 0)
(11.1045 5.82885 0)
(11.3661 6.20058 0)
(11.6711 6.56674 0)
(12.0224 6.91915 0)
(12.4213 7.24756 0)
(12.8602 7.541 0)
(13.3962 7.78831 0)
(10 0.160805 0)
(10.0001 0.319503 0)
(10.0004 0.478098 0)
(10.0011 0.638407 0)
(10.0025 0.801905 0)
(10.005 0.969884 0)
(10.0092 1.14353 0)
(10.0156 1.32392 0)
(10.025 1.51204 0)
(10.038 1.70879 0)
(10.0556 1.91496 0)
(10.0787 2.13128 0)
(10.1086 2.35835 0)
(10.1464 2.59669 0)
(10.1937 2.84669 0)
(10.2522 3.10859 0)
(10.3236 3.38244 0)
(10.4102 3.66806 0)
(10.5142 3.96496 0)
(10.6381 4.27225 0)
(10.7849 4.58856 0)
(10.9574 4.91186 0)
(11.1586 5.23938 0)
(11.3915 5.56742 0)
(11.6585 5.89126 0)
(11.9614 6.2051 0)
(12.3012 6.50214 0)
(12.6774 6.77465 0)
(13.0824 7.01439 0)
(13.5644 7.21461 0)
(10.0005 0.160382 0)
(10.0023 0.318622 0)
(10.0056 0.476635 0)
(10.0104 0.636151 0)
(10.017 0.798572 0)
(10.0258 0.96511 0)
(10.0373 1.13686 0)
(10.0521 1.3148 0)
(10.0708 1.49982 0)
(10.0942 1.69268 0)
(10.1231 1.89404 0)
(10.1586 2.10445 0)
(10.2017 2.32435 0)
(10.2537 2.55402 0)
(10.3159 2.79364 0)
(10.39 3.04316 0)
(10.4775 3.30233 0)
(10.5803 3.57065 0)
(10.7004 3.84729 0)
(10.84 4.13102 0)
(11.001 4.42015 0)
(11.1858 4.71245 0)
(11.3964 5.00504 0)
(11.6345 5.29437 0)
(11.9013 5.57619 0)
(12.1976 5.84555 0)
(12.5227 6.097 0)
(12.8754 6.3247 0)
(13.2487 6.5227 0)
(13.6838 6.6869 0)
(10.001 0.159157 0)
(10.0044 0.316145 0)
(10.0106 0.472777 0)
(10.0194 0.630689 0)
(10.031 0.791199 0)
(10.0459 0.955432 0)
(10.0643 1.12439 0)
(10.087 1.29896 0)
(10.1145 1.4799 0)
(10.1476 1.66785 0)
(10.1871 1.86334 0)
(10.2339 2.06677 0)
(10.2891 2.2784 0)
(10.3538 2.49833 0)
(10.4293 2.72651 0)
(10.5169 2.96268 0)
(10.6181 3.20636 0)
(10.7344 3.45681 0)
(10.8674 3.71296 0)
(11.0188 3.97339 0)
(11.1901 4.23628 0)
(11.3829 4.49937 0)
(11.5983 4.75989 0)
(11.8373 5.01461 0)
(12.1002 5.25985 0)
(12.3868 5.49156 0)
(12.6959 5.70544 0)
(13.0256 5.8972 0)
(13.3699 6.06265 0)
(13.7649 6.1993 0)
(10.0015 0.157121 0)
(10.0065 0.312057 0)
(10.0154 0.466506 0)
(10.028 0.622003 0)
(10.0444 0.779776 0)
(10.0649 0.940859 0)
(10.09 1.10616 0)
(10.1201 1.27645 0)
(10.1558 1.4524 0)
(10.1979 1.63451 0)
(10.2471 1.82319 0)
(10.3042 2.01869 0)
(10.3702 2.22112 0)
(10.4461 2.43042 0)
(10.5331 2.64637 0)
(10.6322 2.86854 0)
(10.7447 3.09627 0)
(10.8718 3.32867 0)
(11.0148 3.56453 0)
(11.1749 3.80237 0)
(11.3531 4.04036 0)
(11.5503 4.27632 0)
(11.7671 4.50774 0)
(12.0039 4.7318 0)
(12.2603 4.9454 0)
(12.5356 5.14529 0)
(12.8283 5.32819 0)
(13.1364 5.49098 0)
(13.4546 5.63077 0)
(13.815 5.74606 0)
(10.0019 0.154274 0)
(10.0084 0.306357 0)
(10.0199 0.457825 0)
(10.0361 0.610106 0)
(10.0571 0.764332 0)
(10.0829 0.921444 0)
(10.1141 1.08225 0)
(10.1511 1.24743 0)
(10.1944 1.41753 0)
(10.2447 1.59296 0)
(10.3026 1.77399 0)
(10.3689 1.96075 0)
(10.4445 2.15323 0)
(10.5301 2.35123 0)
(10.6268 2.55439 0)
(10.7355 2.76217 0)
(10.8572 2.9738 0)
(10.9927 3.18828 0)
(11.1431 3.4044 0)
(11.309 3.62065 0)
(11.4912 3.8353 0)
(11.69 4.04636 0)
(11.9057 4.2516 0)
(12.138 4.44862 0)
(12.3863 4.63491 0)
(12.6496 4.80792 0)
(12.9262 4.96516 0)
(13.2142 5.1044 0)
(13.5092 5.22367 0)
(13.8399 5.32211 0)
(10.0024 0.150622 0)
(10.0102 0.299058 0)
(10.0241 0.446758 0)
(10.0437 0.595038 0)
(10.0689 0.744931 0)
(10.0997 0.897285 0)
(10.1365 1.05281 0)
(10.1798 1.2121 0)
(10.23 1.37558 0)
(10.2877 1.54357 0)
(10.3534 1.71623 0)
(10.4278 1.89359 0)
(10.5116 2.07551 0)
(10.6055 2.26172 0)
(10.7103 2.45177 0)
(10.8268 2.645 0)
(10.9556 2.84062 0)
(11.0974 3.03759 0)
(11.2528 3.23472 0)
(11.4223 3.43057 0)
(11.6062 3.62356 0)
(11.8045 3.81192 0)
(12.0171 3.99373 0)
(12.2434 4.16701 0)
(12.4828 4.32973 0)
(12.7338 4.47994 0)
(12.9951 4.61579 0)
(13.2647 4.73569 0)
(13.5389 4.83833 0)
(13.844 4.92326 0)
(10.0027 0.146177 0)
(10.0119 0.290185 0)
(10.0281 0.433348 0)
(10.0508 0.576864 0)
(10.0798 0.72167 0)
(10.1151 0.868519 0)
(10.1571 1.01803 0)
(10.2061 1.1707 0)
(10.2625 1.32687 0)
(10.3267 1.48676 0)
(10.3992 1.65044 0)
(10.4806 1.81786 0)
(10.5714 1.98881 0)
(10.6722 2.16292 0)
(10.7836 2.33968 0)
(10.9061 2.51843 0)
(11.0403 2.69832 0)
(11.1865 2.87836 0)
(11.345 3.05741 0)
(11.5162 3.23416 0)
(11.6999 3.40718 0)
(11.8961 3.57494 0)
(12.1042 3.73585 0)
(12.3237 3.88827 0)
(12.5536 4.03062 0)
(12.7927 4.1614 0)
(13.0395 4.27928 0)
(13.2924 4.38313 0)
(13.5481 4.47209 0)
(13.8308 4.546 0)
(10.0031 0.140957 0)
(10.0134 0.279778 0)
(10.0317 0.417657 0)
(10.0573 0.555676 0)
(10.0898 0.694675 0)
(10.1292 0.835318 0)
(10.1758 0.978137 0)
(10.2299 1.12353 0)
(10.2917 1.27178 0)
(10.3616 1.42301 0)
(10.44 1.57722 0)
(10.5273 1.73429 0)
(10.624 1.89396 0)
(10.7304 2.0558 0)
(10.8469 2.21929 0)
(10.974 2.38375 0)
(11.1119 2.54836 0)
(11.2609 2.71217 0)
(11.421 2.87414 0)
(11.5922 3.0331 0)
(11.7744 3.18779 0)
(11.9672 3.33693 0)
(12.17 3.47919 0)
(12.3821 3.61327 0)
(12.6025 3.73795 0)
(12.83 3.85208 0)
(13.0634 3.95472 0)
(13.301 4.0451 0)
(13.5403 4.12266 0)
(13.8034 4.1874 0)
(10.0034 0.134987 0)
(10.0148 0.267885 0)
(10.035 0.39976 0)
(10.0631 0.531583 0)
(10.0988 0.664097 0)
(10.1419 0.79788 0)
(10.1927 0.933382 0)
(10.2512 1.07093 0)
(10.3177 1.21071 0)
(10.3926 1.35281 0)
(10.4759 1.49717 0)
(10.5682 1.6436 0)
(10.6695 1.7918 0)
(10.7803 1.94135 0)
(10.9007 2.09169 0)
(11.0311 2.24218 0)
(11.1714 2.39204 0)
(11.3217 2.54041 0)
(11.4821 2.68632 0)
(11.6522 2.82878 0)
(11.8318 2.9667 0)
(12.0203 3.099 0)
(12.2173 3.22463 0)