/*--------------------------------*- C++ -*----------------------------------*\
  =========                 |
  \\      /  F ield         | OpenFOAM: The Open Source CFD Toolbox
   \\    /   O peration     | Website:  https://openfoam.org
    \\  /    A nd           | Version:  7
     \\/     M anipulation  |
\*---------------------------------------------------------------------------*/
FoamFile
{
    version     2.0;
    format      ascii;
    class       surfaceVectorField;
    location    "1.5";
    object      Uf;
}
// * * * * * * * * * * * * * * * * * * * * * * * * * * * * * * * * * * * * * //

dimensions      [0 1 -1 0 0 0 0];

internalField   nonuniform List<vector> 
5457
(
(9.92089 0.0251055 0)
(9.97125 0.0387405 0)
(9.82405 0.0328196 0)
(9.92861 0.0485739 0)
(9.70968 0.0393015 0)
(9.85552 0.0587505 0)
(9.57555 0.0459979 0)
(9.75689 0.0705694 0)
(9.42155 0.0529326 0)
(9.63767 0.0829839 0)
(9.24778 0.0601479 0)
(9.49881 0.0959025 0)
(9.05392 0.0677916 0)
(9.33956 0.109576 0)
(8.83929 0.0760154 0)
(9.15907 0.124251 0)
(8.60294 0.0849528 0)
(8.95648 0.140131 0)
(8.34374 0.0947309 0)
(8.73083 0.157402 0)
(8.06036 0.105479 0)
(8.48089 0.176246 0)
(7.75134 0.117327 0)
(8.20529 0.196845 0)
(7.41509 0.130405 0)
(7.90247 0.219365 0)
(7.05 0.144834 0)
(7.5708 0.243946 0)
(6.65447 0.160712 0)
(7.20862 0.270679 0)
(6.22705 0.178103 0)
(6.81434 0.299574 0)
(5.76662 0.197008 0)
(6.38654 0.330518 0)
(5.27259 0.217336 0)
(5.9242 0.363219 0)
(4.74517 0.238862 0)
(5.42691 0.397142 0)
(4.18575 0.261182 0)
(4.8952 0.43143 0)
(3.59726 0.283657 0)
(4.3309 0.464832 0)
(2.98457 0.305385 0)
(3.73755 0.495646 0)
(2.35488 0.325256 0)
(3.1209 0.521725 0)
(1.71766 0.342731 0)
(2.48941 0.54074 0)
(1.08275 0.362083 0)
(1.85393 0.551805 0)
(0.450126 0.346618 0)
(1.24344 0.563122 0)
(-0.14446 0.101005 0)
(0.604694 0.542064 0)
(-0.420422 -0.202108 0)
(0.09718 0.257671 0)
(-0.399501 -0.35386 0)
(-0.138514 -0.0200065 0)
(-0.117779 -0.391287 0)
(9.99642 0.05166 0)
(9.99705 0.040494 0)
(9.95882 0.0708398 0)
(9.97853 0.0674318 0)
(9.89831 0.0879556 0)
(9.93382 0.0898345 0)
(9.8167 0.105945 0)
(9.86462 0.113507 0)
(9.71375 0.124874 0)
(9.77451 0.138456 0)
(9.58932 0.144801 0)
(9.66455 0.164579 0)
(9.44303 0.166035 0)
(9.53423 0.192259 0)
(9.27426 0.188913 0)
(9.38282 0.221957 0)
(9.08208 0.213734 0)
(9.20957 0.254079 0)
(8.86536 0.240776 0)
(9.0136 0.289005 0)
(8.62279 0.270313 0)
(8.7938 0.32711 0)
(8.35289 0.302604 0)
(8.54887 0.368769 0)
(8.05404 0.337881 0)
(8.27735 0.414333 0)
(7.72454 0.376319 0)
(7.97767 0.464105 0)
(7.36271 0.417999 0)
(7.64816 0.518298 0)
(6.96693 0.462848 0)
(7.28718 0.576974 0)
(6.53586 0.510575 0)
(6.89317 0.639959 0)
(6.06863 0.560569 0)
(6.46486 0.706731 0)
(5.56513 0.611802 0)
(6.00142 0.776282 0)
(5.02633 0.662702 0)
(5.50281 0.846959 0)
(4.45476 0.711048 0)
(4.97012 0.91629 0)
(3.85503 0.753881 0)
(4.40607 0.980816 0)
(3.23438 0.787509 0)
(3.81557 1.03596 0)
(2.60369 0.807744 0)
(3.20664 1.07593 0)
(1.98045 0.810571 0)
(2.59125 1.09347 0)
(1.40299 0.776192 0)
(1.99381 1.07714 0)
(0.925457 0.644786 0)
(1.41621 0.977412 0)
(0.433352 0.380039 0)
(0.935062 0.717159 0)
(0.0553983 -0.122305 0)
(0.436692 0.341433 0)
(0.173605 -0.337027 0)
(9.98904 0.05941 0)
(9.99481 0.0458617 0)
(9.95437 0.0894402 0)
(9.9737 0.0848205 0)
(9.89736 0.11798 0)
(9.92989 0.119121 0)
(9.82057 0.147832 0)
(9.86366 0.153905 0)
(9.72432 0.179343 0)
(9.77749 0.190321 0)
(9.60843 0.212687 0)
(9.67246 0.228536 0)
(9.47263 0.248301 0)
(9.54835 0.26902 0)
(9.31643 0.286684 0)
(9.40463 0.312385 0)
(9.1391 0.328316 0)
(9.24072 0.359219 0)
(8.93971 0.373657 0)
(9.05593 0.410082 0)
(8.71715 0.423167 0)
(8.84938 0.465529 0)
(8.47013 0.477293 0)
(8.62004 0.526118 0)
(8.19721 0.536442 0)
(8.36671 0.592384 0)
(7.89684 0.600942 0)
(8.08807 0.664809 0)
(7.56738 0.670978 0)
(7.78273 0.743761 0)
(7.2072 0.746502 0)
(7.44921 0.829418 0)
(6.8148 0.827114 0)
(7.08607 0.921645 0)
(6.38893 0.911903 0)
(6.69197 1.01984 0)
(5.92885 0.999264 0)
(6.26582 1.12271 0)
(5.43468 1.08667 0)
(5.807 1.22807 0)
(4.90777 1.17046 0)
(5.3157 1.33248 0)
(4.35131 1.24554 0)
(4.7933 1.43098 0)
(3.77111 1.30516 0)
(4.24298 1.51667 0)
(3.17691 1.34035 0)
(3.67048 1.58016 0)
(2.58452 1.33843 0)
(3.08467 1.60833 0)
(2.01746 1.2728 0)
(2.50104 1.5819 0)
(1.48374 1.09499 0)
(1.92645 1.46398 0)
(0.956028 0.768856 0)
(1.38305 1.2099 0)
(0.47699 0.199912 0)
(0.827488 0.79954 0)
(0.431746 0.130155 0)
(9.98516 0.071585 0)
(9.99367 0.053127 0)
(9.95042 0.11358 0)
(9.97089 0.102246 0)
(9.89443 0.154061 0)
(9.92695 0.147884 0)
(9.81893 0.195481 0)
(9.86193 0.193628 0)
(9.72458 0.238702 0)
(9.77759 0.241162 0)
(9.61134 0.284202 0)
(9.67485 0.29103 0)
(9.47902 0.332592 0)
(9.55367 0.343811 0)
(9.32729 0.384547 0)
(9.41367 0.400224 0)
(9.15564 0.440729 0)
(9.25437 0.460996 0)
(8.96337 0.501787 0)
(9.07527 0.526834 0)
(8.74968 0.568363 0)
(8.87568 0.598437 0)
(8.51359 0.641092 0)
(8.65482 0.676504 0)
(8.25403 0.720569 0)
(8.41178 0.761719 0)
(7.96983 0.807303 0)
(8.14557 0.854706 0)
(7.65972 0.901639 0)
(7.85512 0.955976 0)
(7.32242 1.00365 0)
(7.53931 1.06583 0)
(6.95663 1.113 0)
(7.19697 1.18423 0)
(6.56115 1.22868 0)
(6.82697 1.3106 0)
(6.13504 1.34884 0)
(6.42823 1.44358 0)
(5.6778 1.47039 0)
(5.99987 1.5807 0)
(5.18971 1.58865 0)
(5.54137 1.718 0)
(4.67231 1.69695 0)
(5.05288 1.84955 0)
(4.12895 1.78605 0)
(4.53555 1.96687 0)
(3.56551 1.84331 0)
(3.99206 2.05829 0)
(2.99064 1.85127 0)
(3.42667 2.10795 0)
(2.41425 1.78259 0)
(2.84652 2.09497 0)
(1.83882 1.60009 0)
(2.25494 1.98857 0)
(1.2581 1.27741 0)
(1.65908 1.75213 0)
(0.66621 0.786962 0)
(1.02311 1.36556 0)
(0.522969 0.782666 0)
(9.98338 0.0843706 0)
(9.99317 0.0612656 0)
(9.94824 0.136773 0)
(9.9696 0.119872 0)
(9.89321 0.18794 0)
(9.92579 0.176154 0)
(9.81917 0.240051 0)
(9.86207 0.232582 0)
(9.72678 0.294327 0)
(9.77976 0.290944 0)
(9.61611 0.351503 0)
(9.67958 0.352109 0)
(9.48699 0.412305 0)
(9.56151 0.416797 0)
(9.33912 0.477511 0)
(9.42527 0.485823 0)
(9.1721 0.547897 0)
(9.27045 0.560024 0)
(8.98538 0.624224 0)
(9.09662 0.640224 0)
(8.77828 0.70725 0)
(8.90321 0.727237 0)
(8.55007 0.797722 0)
(8.68958 0.821871 0)
(8.29992 0.896351 0)
(8.45499 0.924919 0)
(8.02693 1.00376 0)
(8.19864 1.03711 0)
(7.73015 1.12042 0)
(7.9197 1.15907 0)
(7.40862 1.2465 0)
(7.61727 1.2912 0)
(7.06129 1.38174 0)
(7.29042 1.43355 0)
(6.68716 1.52521 0)
(6.93816 1.58566 0)
(6.28524 1.67496 0)
(6.55948 1.74622 0)
(5.85466 1.82771 0)
(6.1533 1.91277 0)
(5.39484 1.9783 0)
(5.71856 2.0812 0)
(4.90571 2.11917 0)
(5.2543 2.24524 0)
(4.38801 2.23972 0)
(4.75982 2.39581 0)
(3.8435 2.32554 0)
(4.23488 2.52035 0)
(3.27481 2.35768 0)
(3.67966 2.60221 0)
(2.68466 2.31081 0)
(3.09536 2.62029 0)
(2.0719 2.15448 0)
(2.48123 2.5472 0)
(1.42876 1.86575 0)
(1.83944 2.35264 0)
(0.742366 1.41609 0)
(1.13111 2.02197 0)
(0.543351 1.50977 0)
(9.98265 0.097453 0)
(9.993 0.0697621 0)
(9.94747 0.159697 0)
(9.96926 0.137518 0)
(9.8936 0.221236 0)
(9.92601 0.203824 0)
(9.82144 0.283949 0)
(9.86388 0.27055 0)
(9.73149 0.349178 0)
(9.78398 0.339412 0)
(9.62387 0.417829 0)
(9.68682 0.411501 0)
(9.49845 0.490738 0)
(9.57241 0.487689 0)
(9.35498 0.568773 0)
(9.4405 0.568884 0)
(9.19307 0.652815 0)
(9.29077 0.656019 0)
(9.01227 0.743735 0)
(9.12282 0.750019 0)
(8.81199 0.842394 0)
(8.93616 0.851797 0)
(8.5916 0.949644 0)
(8.73021 0.962257 0)
(8.35039 1.06629 0)
(8.50433 1.08228 0)
(8.08762 1.19306 0)
(8.25782 1.21269 0)
(7.80249 1.33052 0)
(7.98992 1.35419 0)
(7.49417 1.47894 0)
(7.69985 1.5073 0)
(7.16175 1.63818 0)
(7.38672 1.67218 0)
(6.80427 1.8074 0)
(7.04958 1.84849 0)
(6.42063 1.9848 0)
(6.68729 2.0351 0)
(6.00961 2.16713 0)
(6.29854 2.22975 0)
(5.56983 2.34924 0)
(5.88171 2.42856 0)
(5.09981 2.52344 0)
(5.43482 2.62547 0)
(4.598 2.67881 0)
(4.95556 2.81158 0)
(4.06284 2.80062 0)
(4.44123 2.97448 0)
(3.49274 2.86994 0)
(3.88883 3.09769 0)
(2.88578 2.8632 0)
(3.29546 3.16056 0)
(2.2379 2.75334 0)
(2.65706 3.13785 0)
(1.54236 2.51915 0)
(1.97492 3.00209 0)
(0.793666 2.12764 0)
(1.20739 2.73795 0)
(0.556893 2.28711 0)
(9.98251 0.110574 0)
(9.99302 0.0783259 0)
(9.94773 0.182233 0)
(9.96955 0.154961 0)
(9.89528 0.253687 0)
(9.92726 0.230767 0)
(9.82534 0.3266 0)
(9.86704 0.307349 0)
(9.73828 0.402357 0)
(9.78989 0.386326 0)
(9.63423 0.482012 0)
(9.69622 0.468922 0)
(9.51311 0.566523 0)
(9.58601 0.556152 0)
(9.37469 0.656858 0)
(9.45907 0.649018 0)
(9.21864 0.753992 0)
(9.31513 0.748541 0)
(9.04455 0.858892 0)
(9.15384 0.855738 0)
(8.8519 0.972515 0)
(8.97475 0.971615 0)
(8.6401 1.0958 0)
(8.77735 1.09717 0)
(8.40853 1.22964 0)
(8.56105 1.23336 0)
(8.15647 1.37484 0)
(8.32518 1.38111 0)
(7.88317 1.53207 0)
(8.06902 1.54122 0)
(7.58781 1.70173 0)
(7.79175 1.71432 0)
(7.26944 1.88379 0)
(7.49246 1.90072 0)
(6.92697 2.07764 0)
(7.17005 2.10027 0)
(6.55906 2.28169 0)
(6.82318 2.31213 0)
(6.16403 2.49306 0)
(6.45013 2.53441 0)
(5.7397 2.707 0)
(6.04866 2.76373 0)
(5.28331 2.91626 0)
(5.61584 2.99468 0)
(4.79141 3.11045 0)
(5.14788 3.21914 0)
(4.25986 3.27539 0)
(4.64005 3.42554 0)
(3.68391 3.39275 0)
(4.08673 3.59825 0)
(3.05852 3.44002 0)
(3.48197 3.71725 0)
(2.37813 3.39124 0)
(2.81897 3.75814 0)
(1.63822 3.22431 0)
(2.09965 3.69295 0)
(0.839344 2.89721 0)
(1.27935 3.50192 0)
(0.573609 3.1092 0)
(9.98274 0.123522 0)
(9.99316 0.0867774 0)
(9.94876 0.204205 0)
(9.97028 0.172007 0)
(9.898 0.285104 0)
(9.9293 0.256842 0)
(9.8306 0.367776 0)
(9.87131 0.342808 0)
(9.74685 0.453627 0)
(9.79727 0.431457 0)
(9.64687 0.543826 0)
(9.70751 0.524097 0)
(9.53062 0.639443 0)
(9.60201 0.62186 0)
(9.39791 0.741535 0)
(9.48064 0.725843 0)
(9.24847 0.851165 0)
(9.34316 0.83715 0)
(9.08191 0.969389 0)
(9.18928 0.956882 0)
(8.89777 1.09725 0)
(9.01862 1.08613 0)
(8.69553 1.23578 0)
(8.83069 1.22599 0)
(8.47458 1.38597 0)
(8.62496 1.37751 0)
(8.23422 1.54872 0)
(8.40078 1.54171 0)
(7.97369 1.72481 0)
(8.15743 1.71952 0)
(7.69208 1.91478 0)
(7.89405 1.9117 0)
(7.38832 2.11884 0)
(7.60961 2.11877 0)
(7.0611 2.33661 0)
(7.30283 2.34085 0)
(6.70871 2.56694 0)
(6.97208 2.57748 0)
(6.32891 2.80747 0)
(6.61518 2.82731 0)
(5.9187 3.05418 0)
(6.22923 3.08774 0)
(5.47412 3.30076 0)
(5.81033 3.35434 0)
(4.99004 3.53792 0)
(5.35333 3.62022 0)
(4.46013 3.75259 0)
(4.85165 3.87522 0)
(3.87704 3.92737 0)
(4.29727 4.10501 0)
(3.23314 4.04024 0)
(3.68145 4.29041 0)
(2.52157 4.06452 0)
(2.9944 4.40686 0)
(1.73897 3.97441 0)
(2.23814 4.42368 0)
(0.889828 3.71534 0)
(1.36398 4.31396 0)
(0.599075 3.98073 0)
(9.98322 0.136137 0)
(9.99339 0.0949959 0)
(9.95035 0.225456 0)
(9.97133 0.188494 0)
(9.90156 0.315331 0)
(9.93197 0.281901 0)
(9.83703 0.407292 0)
(9.8765 0.376761 0)
(9.75697 0.502762 0)
(9.8059 0.474597 0)
(9.66153 0.602999 0)
(9.72045 0.576771 0)
(9.55069 0.709166 0)
(9.62015 0.684513 0)
(9.4243 0.822408 0)
(9.50489 0.799007 0)
(9.28215 0.943871 0)
(9.3745 0.921435 0)
(9.1239 1.07469 0)
(9.22874 1.05298 0)
(8.94916 1.21601 0)
(9.06729 1.19481 0)
(8.75743 1.36893 0)
(8.88973 1.34812 0)
(8.54815 1.53456 0)
(8.69555 1.51405 0)
(8.32063 1.71392 0)
(8.48416 1.69374 0)
(8.07407 1.90794 0)
(8.25483 1.88825 0)
(7.80749 2.11736 0)
(8.00666 2.09854 0)
(7.51968 2.34264 0)
(7.73853 2.32538 0)
(7.20904 2.58379 0)
(7.449 2.56924 0)
(6.87349 2.84017 0)
(7.13612 2.83015 0)
(6.51021 3.1102 0)
(6.79731 3.10748 0)
(6.11539 3.39087 0)
(6.42903 3.39959 0)
(5.68392 3.67718 0)
(6.02649 3.70338 0)
(5.20911 3.9614 0)
(5.58325 4.01363 0)
(4.6825 4.2321 0)
(5.09093 4.32209 0)
(4.09413 4.47319 0)
(4.53902 4.61638 0)
(3.4334 4.66294 0)
(3.91556 4.87854 0)
(2.69099 4.77278 0)
(3.2066 5.0837 0)
(1.86256 4.77086 0)
(2.41212 5.1972 0)
(0.954603 4.58661 0)
(1.47697 5.18224 0)
(0.639549 4.91571 0)
(9.98387 0.148296 0)
(9.99369 0.102895 0)
(9.95238 0.245844 0)
(9.97262 0.204291 0)
(9.90584 0.344218 0)
(9.93514 0.305809 0)
(9.84446 0.444967 0)
(9.88248 0.409054 0)
(9.76845 0.549538 0)
(9.81562 0.515552 0)
(9.67797 0.659256 0)
(9.73485 0.626709 0)
(9.57302 0.77537 0)
(9.64017 0.743833 0)
(9.45352 0.899102 0)
(9.53151 0.868185 0)
(9.31929 1.03167 0)
(9.40878 1.00102 0)
(9.17008 1.1743 0)
(9.27179 1.14359 0)
(9.00554 1.3282 0)
(9.12027 1.29715 0)
(8.82524 1.4946 0)
(8.95389 1.46297 0)
(8.62865 1.67469 0)
(8.77221 1.6423 0)
(8.41513 1.86963 0)
(8.57467 1.83641 0)
(8.18386 2.08055 0)
(8.36058 2.04651 0)
(7.93382 2.3084 0)
(8.12905 2.27379 0)
(7.66367 2.55399 0)
(7.87892 2.51931 0)
(7.37161 2.8178 0)
(7.60861 2.78396 0)
(7.05524 3.09988 0)
(7.31603 3.06838 0)
(6.71124 3.39954 0)
(6.99825 3.37278 0)
(6.33509 3.71506 0)
(6.65127 3.6967 0)
(5.92065 4.04315 0)
(6.26957 4.03865 0)
(5.45971 4.37813 0)
(5.8456 4.39554 0)
(4.94166 4.71087 0)
(5.36924 4.7617 0)
(4.35346 5.0273 0)
(4.82733 5.12758 0)
(3.68044 5.30654 0)
(4.20389 5.47762 0)
(2.90839 5.51786 0)
(3.47875 5.78755 0)
(2.02843 5.62168 0)
(2.64589 6.01884 0)
(1.04558 5.52671 0)
(1.63845 6.12215 0)
(0.704867 5.93978 0)
(9.98465 0.159902 0)
(9.99403 0.11041 0)
(9.95475 0.265244 0)
(9.9741 0.219289 0)
(9.9107 0.371625 0)
(9.93871 0.328439 0)
(9.85275 0.480635 0)
(9.88911 0.439544 0)
(9.78111 0.593752 0)
(9.82628 0.554151 0)
(9.69596 0.712357 0)
(9.75051 0.673703 0)
(9.59735 0.83777 0)
(9.66183 0.799572 0)
(9.48524 0.971283 0)
(9.56022 0.933086 0)
(9.35951 1.11418 0)
(9.44565 1.07556 0)
(9.21998 1.26777 0)
(9.31799 1.22832 0)
(9.06638 1.43333 0)
(9.17707 1.39269 0)
(8.89834 1.61217 0)
(9.02262 1.57 0)
(8.71542 1.80563 0)
(8.85428 1.76164 0)
(8.51702 2.01501 0)
(8.67158 1.96897 0)
(8.30237 2.24161 0)
(8.47391 2.19341 0)
(8.07044 2.48668 0)
(8.26044 2.43634 0)
(7.81988 2.75141 0)
(8.03003 2.69918 0)
(7.54878 3.03682 0)
(7.78114 2.98328 0)
(7.25456 3.34373 0)
(7.5116 3.28993 0)
(6.93361 3.67255 0)
(7.21842 3.6203 0)
(6.58091 4.02309 0)
(6.89737 3.97528 0)
(6.18954 4.39409 0)
(6.54253 4.35526 0)
(5.75001 4.78256 0)
(6.14562 4.75971 0)
(5.24954 5.18257 0)
(5.69516 5.18639 0)
(4.67158 5.58344 0)
(5.17539 5.6299 0)
(3.99573 5.96683 0)
(4.56566 6.07922 0)
(3.19934 6.30143 0)
(3.83713 6.51359 0)
(2.26264 6.53956 0)
(2.97173 6.89346 0)
(1.18117 6.56278 0)
(1.87997 7.15636 0)
(0.813288 7.09666 0)
(9.98554 0.170878 0)
(9.9944 0.11749 0)
(9.95741 0.283551 0)
(9.97573 0.2334 0)
(9.91605 0.397425 0)
(9.94261 0.349684 0)
(9.86177 0.514146 0)
(9.89629 0.468105 0)
(9.79479 0.635223 0)
(9.83773 0.59024 0)
(9.71531 0.762086 0)
(9.76725 0.71757 0)
(9.62341 0.896112 0)
(9.6849 0.851514 0)
(9.51913 1.03865 0)
(9.59072 0.993456 0)
(9.40241 1.19106 0)
(9.48474 1.14477 0)
(9.27314 1.35468 0)
(9.36692 1.30682 0)
(9.13112 1.5309 0)
(9.23715 1.48101 0)
(8.97611 1.72111 0)
(9.09528 1.66875 0)
(8.80773 1.92673 0)
(8.94104 1.87149 0)
(8.62549 2.14924 0)
(8.77409 2.09074 0)
(8.42871 2.39013 0)
(8.59391 2.32807 0)
(8.21646 2.65095 0)
(8.39982 2.58511 0)
(7.98745 2.93327 0)
(8.19082 2.86358 0)
(7.73984 3.23873 0)
(7.9655 3.16532 0)
(7.47108 3.56894 0)
(7.72188 3.49231 0)
(7.17755 3.92553 0)
(7.45711 3.84668 0)
(6.85412 4.31 0)
(7.16714 4.23074 0)
(6.49354 4.72348 0)
(6.84619 4.64696 0)
(6.08555 5.16629 0)
(6.48591 5.09775 0)
(5.61571 5.63692 0)
(6.07431 5.58508 0)
(5.06392 6.1302 0)
(5.59391 6.10946 0)
(4.40285 6.63382 0)
(5.01984 6.66766 0)
(3.59702 7.12081 0)
(4.31319 7.24825 0)
(2.60528 7.53961 0)
(3.43663 7.81946 0)
(1.395 7.73855 0)
(2.25749 8.31377 0)
(1.00328 8.46298 0)
(9.98651 0.181162 0)
(9.9948 0.124097 0)
(9.96029 0.300675 0)
(9.97748 0.246553 0)
(9.92181 0.421511 0)
(9.94679 0.369451 0)
(9.8714 0.545369 0)
(9.90392 0.494625 0)
(9.80933 0.673794 0)
(9.84985 0.623688 0)
(9.73579 0.808255 0)
(9.78489 0.758151 0)
(9.65095 0.950175 0)
(9.70915 0.899471 0)
(9.55487 1.10096 0)
(9.62272 1.04908 0)
(9.44758 1.26199 0)
(9.5257 1.20838 0)
(9.32905 1.4347 0)
(9.41812 1.3788 0)
(9.1992 1.6205 0)
(9.29999 1.56177 0)
(9.05785 1.82088 0)
(9.17123 1.75878 0)
(8.90479 2.03737 0)
(9.03174 1.97135 0)
(8.73963 2.27156 0)
(8.88129 2.20109 0)
(8.56187 2.52515 0)
(8.71955 2.44972 0)
(8.37074 2.79995 0)
(8.54601 2.71907 0)
(8.16514 3.09794 0)
(8.35993 3.01117 0)
(7.94349 3.42129 0)
(8.16019 3.32828 0)
(7.70352 3.77246 0)
(7.94517 3.673 0)
(7.44196 4.15427 0)
(7.71252 4.04839 0)
(7.15409 4.56995 0)
(7.4588 4.45812 0)
(6.83304 5.02324 0)
(7.17904 4.90668 0)
(6.46879 5.51824 0)
(6.86586 5.39955 0)
(6.04648 6.05908 0)
(6.50824 5.94345 0)
(5.54388 6.6488 0)
(6.08926 6.54627 0)
(4.92736 7.28669 0)
(5.5828 7.21645 0)
(4.14578 7.96073 0)
(4.94282 7.96078 0)
(3.1229 8.63253 0)
(4.11031 8.77454 0)
(1.75727 9.12647 0)
(2.87994 9.61973 0)
(1.36587 10.1841 0)
(9.98754 0.190703 0)
(9.99523 0.130198 0)
(9.96334 0.316541 0)
(9.97933 0.258691 0)
(9.92789 0.443788 0)
(9.95118 0.387663 0)
(9.88154 0.574194 0)
(9.91192 0.519013 0)
(9.82457 0.709337 0)
(9.8625 0.654386 0)
(9.75722 0.850715 0)
(9.80326 0.795317 0)
(9.6797 0.999787 0)
(9.73435 0.943292 0)
(9.59213 1.15799 0)
(9.65593 1.09977 0)
(9.49463 1.32676 0)
(9.56816 1.26619 0)
(9.38724 1.50755 0)
(9.47115 1.44401 0)
(9.26999 1.70183 0)
(9.36502 1.63469 0)
(9.14285 1.91114 0)
(9.24982 1.83976 0)
(9.00573 2.13709 0)
(9.12557 2.06081 0)
(8.85843 2.38139 0)
(8.99223 2.29951 0)
(8.70064 2.64589 0)
(8.84967 2.5577 0)
(8.53186 2.93265 0)
(8.69765 2.83737 0)
(8.35131 3.24396 0)
(8.53572 3.14078 0)
(8.15783 3.58248 0)
(8.36322 3.47053 0)
(7.94969 3.95141 0)
(8.17909 3.82973 0)
(7.72437 4.35459 0)
(7.98175 4.22216 0)
(7.47814 4.79688 0)
(7.76887 4.65261 0)
(7.20547 5.28445 0)
(7.53697 5.12726 0)
(6.89801 5.82525 0)
(7.28085 5.65429 0)
(6.54285 6.42966 0)
(6.99259 6.24484 0)
(6.11928 7.11108 0)
(6.65952 6.9144 0)
(5.59262 7.88672 0)
(6.26116 7.68525 0)
(4.90136 8.77656 0)
(5.75718 8.59098 0)
(3.92832 9.80013 0)
(5.08834 9.68309 0)
(2.43508 10.8561 0)
(3.98213 11.0477 0)
(2.1487 12.5691 0)
(9.98862 0.199463 0)
(9.99567 0.13577 0)
(9.96654 0.331089 0)
(9.98125 0.269767 0)
(9.93423 0.464175 0)
(9.95573 0.404258 0)
(9.89207 0.600516 0)
(9.9202 0.541194 0)
(9.84037 0.741714 0)
(9.87558 0.682245 0)
(9.77941 0.889291 0)
(9.82223 0.828963 0)
(9.70941 1.04473 0)
(9.76036 0.982855 0)
(9.63059 1.2095 0)
(9.69018 1.1454 0)
(9.54314 1.38505 0)
(9.61191 1.31805 0)
(9.4472 1.57285 0)
(9.52579 1.50227 0)
(9.3429 1.77442 0)
(9.43202 1.69956 0)
(9.23037 1.99133 0)
(9.33079 1.91145 0)
(9.10967 2.22525 0)
(9.22227 2.13956 0)
(8.98081 2.47795 0)
(9.10661 2.38562 0)
(8.84373 2.7514 0)
(8.98393 2.65151 0)
(8.69825 3.04782 0)
(8.85428 2.93933 0)
(8.54401 3.36974 0)
(8.71763 3.25149 0)
(8.38043 3.72019 0)
(8.57382 3.5908 0)
(8.20656 4.10285 0)
(8.42253 3.96065 0)
(8.02095 4.52236 0)
(8.26318 4.3653 0)
(7.82145 4.98473 0)
(8.09489 4.81019 0)
(7.6048 5.498 0)
(7.91634 5.30253 0)
(7.36601 6.07318 0)
(7.72557 5.85214 0)
(7.09724 6.7259 0)
(7.51978 6.47291 0)
(6.78544 7.47937 0)
(7.29483 7.18539 0)
(6.40718 8.37035 0)
(7.0454 8.02195 0)
(5.91562 9.46349 0)
(6.76157 9.03912 0)
(5.1983 10.9057 0)
(6.46291 10.3529 0)
(3.88895 13.1797 0)
(6.19621 12.2999 0)
(5.27518 16.3781 0)
(0.467588 -0.346006 0)
(0.227337 -0.457974 0)
(0.85168 -0.272457 0)
(0.562228 -0.367309 0)
(1.17188 -0.220147 0)
(0.876286 -0.298973 0)
(1.44744 -0.183173 0)
(1.15292 -0.251226 0)
(1.68851 -0.155074 0)
(1.38859 -0.214581 0)
(1.90026 -0.132414 0)
(1.59174 -0.184034 0)
(2.08616 -0.113609 0)
(1.76861 -0.157755 0)
(2.24879 -0.0977661 0)
(1.92206 -0.134745 0)
(2.38993 -0.0843615 0)
(2.05331 -0.11418 0)
(2.51114 -0.0732297 0)
(2.16284 -0.095734 0)
(2.6142 -0.0645469 0)
(2.25092 -0.0794832 0)
(2.70051 -0.0592078 0)
(2.31716 -0.0649944 0)
(2.77208 -0.0576958 0)
(2.35717 -0.0526143 0)
(2.82995 -0.0573587 0)
(2.35749 -0.0415483 0)
(2.86942 -0.0532293 0)
(2.3256 -0.0276639 0)
(2.88079 -0.0426829 0)
(2.27219 -0.00777888 0)
(2.85907 -0.0275289 0)
(2.20085 0.0145123 0)
(2.80894 -0.0113841 0)
(2.11319 0.0327077 0)
(2.73795 0.00279674 0)
(2.01404 0.0452186 0)
(2.65522 0.0131787 0)
(1.91061 0.0514559 0)
(2.57037 0.0189306 0)
(1.81129 0.0515199 0)
(2.49305 0.0199143 0)
(1.72405 0.0458443 0)
(2.4327 0.0165427 0)
(1.65631 0.0349408 0)
(2.39774 0.0100245 0)
(1.61559 0.0197588 0)
(2.38844 0.0035984 0)
(1.60931 0.00513313 0)
(2.40777 -0.00122797 0)
(1.62852 -0.0104161 0)
(2.46776 -0.0099391 0)
(1.6891 -0.0315627 0)
(2.58904 -0.0293055 0)
(1.80769 -0.0623022 0)
(2.79397 -0.0580075 0)
(1.98062 -0.102783 0)
(2.30338 -0.139321 0)
(0.317541 -0.590302 0)
(0.115166 -0.768986 0)
(0.617409 -0.483644 0)
(0.378158 -0.654074 0)
(0.876258 -0.398931 0)
(0.594925 -0.540666 0)
(1.09878 -0.3361 0)
(0.793631 -0.454091 0)
(1.29205 -0.286651 0)
(0.959893 -0.386622 0)
(1.45984 -0.245271 0)
(1.09852 -0.329855 0)
(1.6041 -0.209526 0)
(1.21252 -0.280177 0)
(1.72588 -0.17794 0)
(1.30288 -0.235641 0)
(1.82513 -0.149658 0)
(1.3692 -0.194472 0)
(1.90116 -0.124773 0)
(1.40928 -0.155792 0)
(1.95256 -0.102697 0)
(1.41824 -0.119122 0)
(1.97111 -0.0792686 0)
(1.38358 -0.078963 0)
(1.93909 -0.0500512 0)
(1.31475 -0.0290687 0)
(1.85124 -0.0165876 0)
(1.22185 0.0215089 0)
(1.72694 0.0167885 0)
(1.10176 0.059464 0)
(1.59018 0.0470997 0)
(0.96769 0.0858054 0)
(1.45238 0.0718426 0)
(0.833481 0.106589 0)
(1.31669 0.0890673 0)
(0.700558 0.121235 0)
(1.18643 0.0974203 0)
(0.576654 0.128189 0)
(1.06811 0.0967171 0)
(0.464632 0.125044 0)
(0.967841 0.0878355 0)
(0.370443 0.11241 0)
(0.890775 0.071548 0)
(0.298821 0.0915374 0)
(0.841723 0.0483733 0)
(0.253675 0.0633377 0)
(0.825291 0.0224248 0)
(0.239259 0.0290468 0)
(0.841311 -0.00210335 0)
(0.254808 -0.0037082 0)
(0.899208 -0.0323027 0)
(0.31086 -0.0416137 0)
(1.01486 -0.0764195 0)
(0.409401 -0.0924083 0)
(1.18658 -0.133274 0)
(0.557106 -0.150516 0)
(1.42361 -0.190642 0)
(0.737774 -0.221667 0)
(1.01959 -0.281317 0)
(0.187592 -0.843269 0)
(0.0408695 -0.952721 0)
(0.370917 -0.720464 0)
(0.200843 -0.829389 0)
(0.529075 -0.605607 0)
(0.297273 -0.68834 0)
(0.661597 -0.514055 0)
(0.39696 -0.574907 0)
(0.769358 -0.438481 0)
(0.468601 -0.482543 0)
(0.852845 -0.372875 0)
(0.516774 -0.402415 0)
(0.912194 -0.314126 0)
(0.540595 -0.33054 0)
(0.946662 -0.259691 0)
(0.538522 -0.264199 0)
(0.953099 -0.206313 0)
(0.508352 -0.199679 0)
(0.923921 -0.149468 0)
(0.447673 -0.132745 0)
(0.846279 -0.0854015 0)
(0.353731 -0.0592432 0)
(0.725279 -0.017671 0)
(0.242433 0.012149 0)
(0.593461 0.043502 0)
(0.116576 0.0678458 0)
(0.467906 0.09109 0)
(-0.00314844 0.111639 0)
(0.3405 0.125122 0)
(-0.125384 0.148762 0)
(0.20818 0.148734 0)
(-0.249525 0.176357 0)
(0.0785637 0.163504 0)
(-0.37007 0.193195 0)
(-0.0415577 0.16872 0)
(-0.483541 0.199602 0)
(-0.145693 0.163404 0)
(-0.581457 0.194522 0)
(-0.231271 0.147537 0)
(-0.662453 0.178268 0)
(-0.295126 0.122107 0)
(-0.722656 0.151186 0)
(-0.334376 0.0885642 0)
(-0.759263 0.114809 0)
(-0.347631 0.0488722 0)
(-0.770038 0.0710112 0)
(-0.334565 0.0058131 0)
(-0.753402 0.0216613 0)
(-0.283869 -0.0420146 0)
(-0.715531 -0.0316865 0)
(-0.19193 -0.0991113 0)
(-0.633265 -0.0911549 0)
(-0.066397 -0.165673 0)
(-0.525625 -0.158454 0)
(0.0952724 -0.242014 0)
(-0.393867 -0.233565 0)
(0.287119 -0.314007 0)
(-0.249335 -0.317891 0)
(-0.0833482 -0.371243 0)
(0.0705658 -0.952217 0)
(-0.0189491 -1.02184 0)
(0.133623 -0.812219 0)
(0.0307192 -0.889692 0)
(0.181098 -0.673675 0)
(0.00944183 -0.732668 0)
(0.21248 -0.559232 0)
(0.00383584 -0.603517 0)
(0.222432 -0.460212 0)
(-0.0254363 -0.491402 0)
(0.209015 -0.370471 0)
(-0.0726992 -0.390754 0)
(0.169637 -0.286059 0)
(-0.139627 -0.297124 0)
(0.101357 -0.203533 0)
(-0.226829 -0.207627 0)
(0.00236175 -0.120839 0)
(-0.334982 -0.119594 0)
(-0.124321 -0.0391652 0)
(-0.461372 -0.0326826 0)
(-0.252825 0.0336551 0)
(-0.589788 0.0398612 0)
(-0.368926 0.0918769 0)
(-0.70612 0.0995724 0)
(-0.483665 0.139018 0)
(-0.821004 0.152203 0)
(-0.60186 0.178239 0)
(-0.936965 0.196485 0)
(-0.718841 0.208321 0)
(-1.05063 0.230753 0)
(-0.831027 0.227113 0)
(-1.15868 0.253131 0)
(-0.934862 0.234063 0)
(-1.25816 0.262575 0)
(-1.02559 0.228932 0)
(-1.3454 0.258792 0)
(-1.0996 0.211655 0)
(-1.4168 0.241669 0)
(-1.15362 0.182772 0)
(-1.46984 0.21186 0)
(-1.18544 0.143495 0)
(-1.5023 0.17051 0)
(-1.19353 0.0957615 0)
(-1.51268 0.119605 0)
(-1.17737 0.0417797 0)
(-1.50007 0.0616564 0)
(-1.13689 -0.0183053 0)
(-1.46582 -0.00121703 0)
(-1.07015 -0.0848082 0)
(-1.40902 -0.0685191 0)
(-0.977477 -0.156469 0)
(-1.32754 -0.141093 0)
(-0.867992 -0.232811 0)
(-1.23216 -0.216057 0)
(-0.749361 -0.311609 0)
(-1.12897 -0.294506 0)
(-0.640877 -0.379228 0)
(-1.03024 -0.372303 0)
(-0.957166 -0.428496 0)
(-0.0406428 -0.949826 0)
(-0.0768825 -0.982028 0)
(-0.0920051 -0.79862 0)
(-0.133204 -0.840573 0)
(-0.151982 -0.647993 0)
(-0.256728 -0.676667 0)
(-0.224387 -0.518944 0)
(-0.361323 -0.537507 0)
(-0.312055 -0.403939 0)
(-0.479046 -0.413365 0)
(-0.415199 -0.299089 0)
(-0.604956 -0.30111 0)
(-0.532424 -0.201323 0)
(-0.738868 -0.197648 0)
(-0.661963 -0.108903 0)
(-0.879836 -0.100299 0)
(-0.798755 -0.0225472 0)
(-1.0202 -0.00893347 0)
(-0.925123 0.053032 0)
(-1.15341 0.0671316 0)
(-1.04336 0.116845 0)
(-1.2741 0.131049 0)
(-1.16105 0.172233 0)
(-1.39371 0.188191 0)
(-1.27685 0.219026 0)
(-1.51024 0.237341 0)
(-1.38839 0.255536 0)
(-1.62148 0.276552 0)
(-1.49292 0.280186 0)
(-1.72511 0.304019 0)
(-1.58787 0.291563 0)
(-1.81889 0.318106 0)
(-1.67057 0.288995 0)
(-1.90069 0.317833 0)
(-1.7382 0.272389 0)
(-1.96823 0.302916 0)
(-1.78839 0.242212 0)
(-2.01939 0.273641 0)
(-1.81924 0.199615 0)
(-2.05261 0.231048 0)
(-1.82977 0.146486 0)
(-2.0668 0.176903 0)
(-1.81992 0.0853484 0)
(-2.06146 0.113765 0)
(-1.79018 0.0185141 0)
(-2.03688 0.0444389 0)
(-1.73924 -0.0531696 0)
(-1.99587 -0.0300118 0)
(-1.66955 -0.128548 0)
(-1.93408 -0.106981 0)
(-1.58807 -0.205311 0)
(-1.86155 -0.184998 0)
(-1.50142 -0.282448 0)
(-1.7837 -0.261644 0)
(-1.41897 -0.35815 0)
(-1.70782 -0.33686 0)
(-1.34824 -0.422955 0)
(-1.64461 -0.407776 0)
(-1.60935 -0.463675 0)
(-0.143001 -0.845663 0)
(-0.134245 -0.841967 0)
(-0.296706 -0.691266 0)
(-0.281301 -0.693585 0)
(-0.449921 -0.540127 0)
(-0.487937 -0.533607 0)
(-0.605891 -0.408216 0)
(-0.671243 -0.395314 0)
(-0.763739 -0.290111 0)
(-0.85341 -0.27286 0)
(-0.923045 -0.182663 0)
(-1.03101 -0.162655 0)
(-1.08302 -0.0833134 0)
(-1.20204 -0.0618976 0)
(-1.23582 0.00642581 0)
(-1.36186 0.0263048 0)
(-1.37303 0.083566 0)
(-1.50856 0.102064 0)
(-1.5003 0.149714 0)
(-1.64166 0.167659 0)
(-1.62438 0.20781 0)
(-1.77035 0.226739 0)
(-1.74357 0.257976 0)
(-1.89253 0.277942 0)
(-1.85587 0.298557 0)
(-2.00691 0.319907 0)
(-1.95942 0.327691 0)
(-2.11197 0.350885 0)
(-2.05237 0.343719 0)
(-2.20622 0.369165 0)
(-2.13301 0.345401 0)
(-2.28825 0.373289 0)
(-2.19966 0.33215 0)
(-2.35674 0.36237 0)
(-2.25071 0.304063 0)
(-2.41038 0.336224 0)
(-2.28484 0.261963 0)
(-2.44806 0.295382 0)
(-2.30115 0.207457 0)
(-2.46895 0.241191 0)
(-2.29941 0.142912 0)
(-2.47265 0.175843 0)
(-2.28003 0.0710482 0)
(-2.45924 0.102278 0)
(-2.24354 -0.00599533 0)
(-2.42966 0.0233141 0)
(-2.19183 -0.0861602 0)
(-2.38636 -0.0592385 0)
(-2.12855 -0.166545 0)
(-2.32941 -0.141908 0)
(-2.06054 -0.244518 0)
(-2.26773 -0.221645 0)
(-1.99445 -0.318926 0)
(-2.20655 -0.296414 0)
(-1.9379 -0.389016 0)
(-2.15324 -0.365908 0)
(-1.8938 -0.449264 0)
(-2.11585 -0.429895 0)
(-2.10003 -0.481315 0)
(-0.232826 -0.657662 0)
(-0.185915 -0.613929 0)
(-0.46831 -0.508479 0)
(-0.405193 -0.46839 0)
(-0.693347 -0.367456 0)
(-0.676466 -0.323485 0)
(-0.908982 -0.244476 0)
(-0.915207 -0.198727 0)
(-1.11384 -0.133915 0)
(-1.13698 -0.0905129 0)
(-1.3053 -0.0341915 0)
(-1.33973 0.00374636 0)
(-1.47744 0.052238 0)
(-1.52368 0.0841826 0)
(-1.63199 0.126044 0)
(-1.68888 0.154354 0)
(-1.77508 0.191373 0)
(-1.84074 0.217816 0)
(-1.91071 0.249684 0)
(-1.9827 0.274791 0)
(-2.0379 0.300502 0)
(-2.11482 0.32483 0)
(-2.15581 0.34252 0)
(-2.23655 0.366727 0)
(-2.26334 0.374146 0)
(-2.34727 0.398967 0)
(-2.3594 0.393668 0)
(-2.44622 0.419838 0)
(-2.44291 0.399541 0)
(-2.53265 0.427697 0)
(-2.5129 0.390645 0)
(-2.60584 0.421191 0)
(-2.56849 0.366489 0)
(-2.66514 0.399513 0)
(-2.60885 0.32731 0)
(-2.70992 0.362551 0)
(-2.63333 0.274148 0)
(-2.73965 0.310977 0)
(-2.6416 0.2089 0)
(-2.75396 0.246336 0)
(-2.6338 0.134261 0)
(-2.75279 0.171102 0)
(-2.6106 0.0532679 0)
(-2.73657 0.088523 0)
(-2.57315 -0.0313999 0)
(-2.70671 0.00163501 0)
(-2.5251 -0.11671 0)
(-2.66524 -0.0864004 0)
(-2.47069 -0.199014 0)
(-2.61571 -0.171934 0)
(-2.41591 -0.275513 0)
(-2.56496 -0.251164 0)
(-2.36718 -0.345173 0)
(-2.51871 -0.322052 0)
(-2.33048 -0.408448 0)
(-2.48425 -0.38476 0)
(-2.30789 -0.462373 0)
(-2.46698 -0.441224 0)
(-2.46378 -0.486132 0)
(-0.304409 -0.408099 0)
(-0.230706 -0.315779 0)
(-0.605704 -0.274114 0)
(-0.502982 -0.18026 0)
(-0.883433 -0.147611 0)
(-0.813395 -0.0641643 0)
(-1.13382 -0.0382264 0)
(-1.08047 0.0295469 0)
(-1.35663 0.0516201 0)
(-1.31942 0.107814 0)
(-1.5539 0.125934 0)
(-1.53232 0.1752 0)
(-1.73164 0.19124 0)
(-1.72276 0.235008 0)
(-1.89545 0.250991 0)
(-1.8967 0.290077 0)
(-2.04656 0.305037 0)
(-2.05554 0.340063 0)
(-2.18562 0.352732 0)
(-2.20059 0.384625 0)
(-2.3127 0.393062 0)
(-2.33251 0.422837 0)
(-2.42766 0.424562 0)
(-2.45154 0.453293 0)
(-2.53016 0.445571 0)
(-2.55773 0.474326 0)
(-2.61978 0.454405 0)
(-2.65098 0.484175 0)
(-2.69612 0.449581 0)
(-2.73112 0.481197 0)
(-2.75878 0.430043 0)
(-2.79798 0.464072 0)
(-2.80741 0.39535 0)
(-2.85139 0.432011 0)
(-2.8417 0.345815 0)
(-2.89118 0.384918 0)
(-2.86138 0.2826 0)
(-2.91715 0.323516 0)
(-2.86641 0.2078 0)
(-2.92915 0.249462 0)
(-2.85706 0.124397 0)
(-2.92724 0.165428 0)
(-2.83423 0.0358339 0)
(-2.91202 0.0749866 0)
(-2.79944 -0.054613 0)
(-2.88517 -0.0185044 0)
(-2.75711 -0.143133 0)
(-2.84831 -0.110329 0)
(-2.71191 -0.225567 0)
(-2.80692 -0.196881 0)
(-2.66939 -0.299041 0)
(-2.76671 -0.274075 0)
(-2.6355 -0.36283 0)
(-2.73388 -0.33988 0)
(-2.61526 -0.418542 0)
(-2.71572 -0.39516 0)
(-2.61084 -0.465123 0)
(-2.71521 -0.443438 0)
(-2.72159 -0.480986 0)
(-0.362935 -0.0832591 0)
(-0.256298 0.0396929 0)
(-0.699985 0.0360864 0)
(-0.557178 0.142063 0)
(-0.996607 0.118944 0)
(-0.885174 0.212797 0)
(-1.2575 0.182661 0)
(-1.16519 0.267398 0)
(-1.48913 0.238666 0)
(-1.4139 0.313995 0)
(-1.69709 0.290238 0)
(-1.63543 0.35594 0)
(-1.88495 0.337922 0)
(-1.83346 0.394421 0)
(-2.05456 0.381837 0)
(-2.01108 0.430604 0)
(-2.20788 0.421504 0)
(-2.17059 0.464096 0)
(-2.34625 0.455975 0)
(-2.31385 0.49392 0)
(-2.47051 0.483872 0)
(-2.44219 0.518664 0)
(-2.58114 0.503524 0)
(-2.55647 0.536597 0)
(-2.6784 0.513138 0)
(-2.65726 0.545837 0)
(-2.76244 0.510972 0)