/*--------------------------------*- C++ -*----------------------------------*\
  =========                 |
  \\      /  F ield         | OpenFOAM: The Open Source CFD Toolbox
   \\    /   O peration     | Website:  https://openfoam.org
    \\  /    A nd           | Version:  7
     \\/     M anipulation  |
\*---------------------------------------------------------------------------*/
FoamFile
{
    version     2.0;
    format      ascii;
    class       volScalarField;
    location    "1.8";
    object      p;
}
// * * * * * * * * * * * * * * * * * * * * * * * * * * * * * * * * * * * * * //

dimensions      [0 2 -2 0 0 0 0];

internalField   nonuniform List<scalar> 
2790
(
151.921
151.829
152.097
152.669
153.45
154.409
155.543
156.851
158.329
159.972
161.772
163.725
165.819
168.045
170.386
172.821
175.325
177.863
180.393
182.866
185.222
187.397
189.325
190.943
192.201
193.073
193.508
193.564
193.615
193.827
151.718
151.736
152.029
152.598
153.376
154.331
155.461
156.763
158.234
159.868
161.659
163.601
165.685
167.9
170.23
172.655
175.15
177.683
180.212
182.688
185.054
187.247
189.199
190.845
192.127
193
193.396
193.451
193.583
193.867
151.519
151.607
151.919
152.478
153.243
154.185
155.3
156.584
158.033
159.643
161.406
163.317
165.366
167.542
169.831
172.213
174.665
177.155
179.645
182.091
184.439
186.629
188.599
190.287
191.635
192.609
193.201
193.556
193.87
194.168
151.294
151.413
151.737
152.288
153.037
153.964
155.059
156.319
157.739
159.315
161.041
162.907
164.907
167.028
169.257
171.575
173.959
176.382
178.808
181.197
183.502
185.671
187.651
189.388
190.841
191.991
192.858
193.527
194.079
194.597
151.033
151.166
151.499
152.042
152.775
153.68
154.749
155.978
157.362
158.895
160.57
162.381
164.318
166.369
168.522
170.758
173.056
175.39
177.731
180.043
182.286
184.419
186.399
188.188
189.756
191.097
192.225
193.186
193.995
194.741
150.732
150.87
151.205
151.738
152.452
153.331
154.369
155.559
156.899
158.38
159.997
161.741
163.603
165.572
167.634
169.772
171.967
174.196
176.432
178.647
180.808
182.884
184.844
186.662
188.323
189.823
191.167
192.371
193.39
194.306
150.389
150.528
150.86
151.38
152.071
152.92
153.921
155.068
156.355
157.777
159.326
160.993
162.77
164.644
166.602
168.628
170.704
172.81
174.923
177.018
179.072
181.062
182.968
184.776
186.48
188.078
189.57
190.947
192.11
193.155
150.003
150.141
150.466
150.969
151.634
152.449
153.408
154.506
155.735
157.09
158.562
160.144
161.824
163.591
165.432
167.333
169.274
171.239
173.206
175.158
177.074
178.941
180.747
182.487
184.164
185.781
187.334
188.804
190.052
191.201
149.576
149.71
150.024
150.508
151.144
151.922
152.835
153.877
155.042
156.323
157.711
159.198
160.772
162.422
164.134
165.894
167.684
169.488
171.288
173.067
174.81
176.508
178.155
179.754
181.314
182.848
184.354
185.823
187.092
188.329
149.109
149.237
149.539
150
150.604
151.34
152.203
153.186
154.282
155.482
156.779
158.163
159.621
161.144
162.715
164.32
165.943
167.567
169.173
170.748
172.276
173.751
175.169
176.536
177.868
179.186
180.505
181.841
183.04
184.342
148.603
148.725
149.011
149.447
150.017
150.709
151.518
152.436
153.458
154.572
155.772
157.045
158.381
159.766
161.185
162.623
164.062
165.485
166.873
168.209
169.478
170.669
171.777
172.806
173.77
174.698
175.628
176.626
177.586
178.903
148.06
148.175
148.443
148.853
149.385
150.031
150.782
151.633
152.576
153.6
154.696
155.854
157.059
158.298
159.556
160.815
162.056
163.259
164.403
165.467
166.431
167.275
167.985
168.553
168.981
169.292
169.536
169.844
170.224
171.395
147.482
147.589
147.839
148.22
148.713
149.309
150.001
150.781
151.641
152.571
153.56
154.596
155.665
156.752
157.84
158.909
159.939
160.906
161.784
162.546
163.162
163.6
163.825
163.804
163.505
162.91
162.039
161.049
160.101
160.604
146.871
146.97
147.201
147.551
148.004
148.548
149.178
149.885
150.66
151.492
152.37
153.281
154.209
155.139
156.051
156.923
157.732
158.449
159.044
159.48
159.714
159.696
159.363
158.637
157.421
155.599
153.043
149.748
145.803
143.766
146.231
146.321
146.532
146.85
147.261
147.752
148.318
148.95
149.638
150.37
151.135
151.917
152.702
153.471
154.202
154.872
155.454
155.914
156.215
156.311
156.144
155.64
154.702
153.197
150.928
147.608
142.779
135.777
125.328
113.104
7.59327
7.52329
7.32343
7.04626
6.73869
6.42044
6.09892
5.77951
5.46781
5.16934
4.8888
4.62881
4.39094
4.18059
4.00336
3.85437
3.7281
3.621
3.52973
3.43652
3.32733
3.19482
3.03545
2.84582
2.62002
2.34926
2.02102
1.61681
1.10623
0.450332
7.43444
7.35655
7.17457
6.92219
6.63618
6.33481
6.02696
5.71883
5.41632
5.12545
4.85159
4.59707
4.36279
4.15549
3.97909
3.82428
3.70484
3.61091
3.53148
3.44766
3.34317
3.21114
3.0503
2.8587
2.63166
2.36146
2.0363
1.63302
1.11818
0.452043
7.30073
7.21503
7.04398
6.81023
6.543
6.25705
5.96208
5.66453
5.3703
5.08625
4.81961
4.57065
4.33141
4.12763
3.98053
3.84193
3.71195
3.61232
3.53288
3.4506
3.34868
3.2202
3.06204
2.8709
2.64348
2.37422
2.04445
1.62599
1.10433
0.429862
7.2129
7.11834
6.95346
6.73193
6.4792
6.20545
5.92219
5.63477
5.34808
5.06825
4.80828
4.57914
4.36891
4.15392
3.98659
3.84572
3.72847
3.63229
3.54959
3.46193
3.35502
3.22184
3.05869
2.86221
2.62977
2.35564
2.01973
1.59713
1.06693
0.397103
7.20769
7.10372
6.94279
6.72769
6.48394
6.21589
5.94145
5.66339
5.3878
5.11988
4.86658
4.63
4.41259
4.21578
4.04691
3.89988
3.77591
3.67026
3.57372
3.47174
3.35229
3.20833
3.03564
2.8306
2.58964
2.30579
1.96106
1.5364
1.01076
0.361284
7.30091
7.1851
7.01986
6.80258
6.55664
6.29185
6.01882
5.74385
5.47201
5.20884
4.95593
4.71674
4.49638
4.29828
4.12398
3.96965
3.83397
3.71257
3.59698
3.47576
3.33886
3.17956
2.99336
2.77647
2.52433
2.22916
1.87682
1.45263
0.938286
0.325297
7.48153
7.34805
7.16697
6.93709
6.68039
6.40849
6.13052
5.85332
5.58017
5.31279
5.05814
4.81945
4.59743
4.39431
4.21105
4.04521
3.89427
3.75377
3.61641
3.47303
3.31536
3.13722
2.93424
2.70274
2.43783
2.13163
1.77369
1.35258
0.854898
0.289601
7.70031
7.54153
7.33545
7.08554
6.81367
6.53177
6.24891
5.96611
5.69003
5.4239
5.16921
4.92872
4.70323
4.49363
4.29995
4.12036
3.9521
3.79087
3.63043
3.46346
3.2831
3.08395
2.86203
2.61403
2.33543
2.01896
1.65798
1.24203
0.765539
0.254307
7.89049
7.70475
7.47516
7.21339
6.93106
6.64214
6.35368
6.07106
5.79545
5.52987
5.27562
5.03381
4.80478
4.58854
4.38445
4.19076
4.00478
3.82261
3.63903
3.44814
3.24432
3.02302
2.78085
2.51518
2.22258
1.89753
1.53458
1.12557
0.67373
0.219342
8.0272
7.826
7.58463
7.30683
7.01659
6.72394
6.43474
6.15368
5.88184
5.62008
5.36869
5.12765
4.89659
4.67487
4.46143
4.25453
4.05166
3.84941
3.64349
3.42917
3.20193
2.95803
2.69484
2.41076
2.10402
1.77061
1.40706
1.00647
0.581522
0.184701
8.09381
7.8792
7.62298
7.33548
7.04274
6.75441
6.47413
6.20316
5.94137
5.68847
5.44391
5.20686
4.97631
4.75121
4.5303
4.31189
4.09373
3.87294
3.64604
3.40928
3.15913
2.89263
2.60791
2.30469
1.98339
1.64246
1.27823
0.886801
0.489851
0.150365
8.02662
7.79344
7.53818
7.26384
6.99033
6.72395
6.46623
6.21596
5.97196
5.73378
5.50069
5.27136
5.04436
4.81844
4.59238
4.36463
4.13322
3.89579
3.64956
3.39163
3.11928
2.83033
2.52368
2.20039
1.86353
1.51445
1.14958
0.767586
0.398908
0.116206
7.76695
7.52558
7.30621
7.08217
6.85729
6.63438
6.41506
6.19649
5.97748
5.75926
5.54196
5.32395
5.10343
4.87926
4.65047
4.41573
4.17332
3.92127
3.65745
3.37962
3.08579
2.7745
2.44534
2.10066
1.74649
1.38769
1.02153
0.648961
0.308298
0.0819577
7.24505
7.01415
6.90704
6.79981
6.65966
6.50068
6.33471
6.15692
5.96702
5.77177
5.57344
5.36969
5.15803
4.93778
4.70854
4.46915
4.21795
3.95327
3.67344
3.37679
3.06192
2.7281
2.37552
2.00757
1.63331
1.2621
0.893742
0.530378
0.217178
0.0471954
6.32686
6.13105
6.31947
6.45889
6.43647
6.34941
6.24787
6.11629
5.95308
5.78
5.60247
5.41508
5.21363
4.99869
4.77098
4.5292
4.27137
3.99587
3.70143
3.38673
3.05084
2.69374
2.31632
1.92254
1.52432
1.13717
0.76522
0.410394
0.124371
0.0111905
145.55
145.631
145.821
146.106
146.472
146.909
147.409
147.963
148.561
149.19
149.838
150.489
151.126
151.729
152.276
152.739
153.087
153.283
153.283
153.029
152.45
151.45
149.896
147.595
144.248
139.361
132.015
120.293
98.163
38.3508
144.822
144.893
145.06
145.311
145.631
146.011
146.442
146.915
147.419
147.942
148.469
148.985
149.47
149.904
150.261
150.512
150.624
150.553
150.249
149.647
148.662
147.183
145.051
142.035
137.779
131.7
122.771
109.263
89.8301
61.5685
144.05
144.112
144.255
144.47
144.743
145.064
145.424
145.815
146.223
146.638
147.042
147.42
147.752
148.015
148.182
148.222
148.098
147.765
147.167
146.233
144.873
142.967
140.35
136.795
131.977
125.447
116.619
104.868
90.7678
74.3878
143.238
143.289
143.409
143.587
143.811
144.072
144.36
144.667
144.979
145.283
145.564
145.804
145.983
146.076
146.056
145.89
145.539
144.955
144.081
142.845
141.156
138.897
135.918
132.024
126.969
120.466
112.223
101.919
89.5026
74.5491
142.386
142.427
142.522
142.663
142.838
143.038
143.254
143.475
143.691
143.885
144.044
144.147
144.175
144.103
143.901
143.537
142.971
142.155
141.033
139.533
137.572
135.043
131.818
127.743
122.64
116.312
108.563
99.1567
87.9306
75.0949
141.497
141.528
141.598
141.701
141.827
141.965
142.109
142.246
142.365
142.451
142.489
142.459
142.341
142.109
141.735
141.185
140.421
139.396
138.056
136.337
134.161
131.44
128.068
123.928
118.891
112.825
105.611
97.1526
87.4439
76.899
140.574
140.594
140.64
140.705
140.781
140.859
140.93
140.984
141.009
140.989
140.909
140.751
140.493
140.11
139.574
138.854
137.912
136.704
135.181
133.286
130.953
128.108
124.67
120.553
115.672
109.949
103.332
95.8109
87.4322
78.5302
139.619
139.629
139.65
139.678
139.705
139.723
139.724
139.696
139.629
139.507
139.314
139.033
138.643
138.119
137.436
136.562
135.464
134.101
132.429
130.401
127.961
125.052
121.614
117.587
112.921
107.576
101.539
94.8311
87.5037
79.8267
138.637
138.636
138.633
138.624
138.604
138.563
138.495
138.389
138.233
138.013
137.713
137.317
136.804
136.152
135.335
134.326
133.094
131.603
129.817
127.694
125.192
122.267
118.878
114.986
110.564
105.597
100.092
94.0839
87.6258
80.9438
137.631
137.62
137.594
137.549
137.482
137.385
137.251
137.069
136.828
136.516
136.116
135.613
134.988
134.219
133.285
132.16
130.817
129.225
127.354
125.171
122.644
119.741
116.436
112.705
108.538
103.934
98.9129
93.5131
87.7877
81.9202
136.606
136.586
136.537
136.457
136.345
136.195
135.997
135.744
135.424
135.024
134.532
133.931
133.205
132.334
131.298
130.075
128.642
126.974
125.046
122.832
120.31
117.457
114.259
110.703
106.789
102.527
97.9409
93.0689
87.9589
82.7584
135.567
135.537
135.466
135.354
135.2
134.998
134.741
134.42
134.026
133.547
132.97
132.281
131.465
130.505
129.383
128.081
126.578
124.855
122.893
120.673
118.178
115.396
112.319
108.943
105.274
101.327
97.1279
92.7114
88.1196
83.471
134.519
134.481
134.389
134.246
134.051
133.801
133.488
133.106
132.643
132.091
131.438
130.672
129.778
128.742
127.549
126.183
124.629
122.871
120.894
118.687
116.237
113.539
110.589
107.391
103.954
100.294
96.4372
92.4142
88.261
84.0733
133.468
133.421
133.311
133.138
132.906
132.611
132.247
131.807
131.283
130.666
129.946
129.111
128.15
127.051
125.801
124.387
122.797
121.02
119.046
116.865
114.472
111.865
109.045
106.019
102.797
99.3973
95.8419
92.1592
88.379
84.5789
132.42
132.366
132.237
132.038
131.771
131.435
131.024
130.533
129.953
129.278
128.499
127.605
126.588
125.438
124.143
122.695
121.084
119.302
117.341
115.198
112.871
110.359
107.666
104.802
101.779
98.6117
95.3219
91.9336
88.4718
84.9998
131.382
131.321
131.176
130.951
130.653
130.28
129.827
129.289
128.661
127.935
127.104
126.162
125.099
123.907
122.58
121.109
119.487
117.711
115.775
113.677
111.418
109.002
106.433
103.72
100.877
97.9183
94.8619
91.7287
88.5399
85.3471
130.36
130.292
130.132
129.886
129.559
129.152
128.661
128.083
127.412
126.642
125.769
124.785
123.686
122.463
121.113
119.629
118.007
116.244
114.339
112.291
110.104
107.78
105.328
102.756
100.076
97.3023
94.4507
91.5389
88.5847
85.6305
129.361
129.288
129.114
128.847
128.495
128.059
127.535
126.921
126.213
125.407
124.498
123.481
122.353
121.108
119.743
118.254
116.639
114.897
113.027
111.032
108.915
106.681
104.338
101.894
99.3616
96.7521
94.0801
91.3605
88.6084
85.8589
128.393
128.314
128.129
127.844
127.469
127.007
126.455
125.81
125.071
124.234
123.296
122.254
121.104
119.844
118.471
116.984
115.382
113.664
111.833
109.891
107.843
105.693
103.451
101.124
98.7231
96.259
93.7441
91.1915
88.6138
86.04
127.463
127.379
127.183
126.883
126.489
126.004
125.427
124.756
123.991
123.129
122.168
121.106
119.942
118.673
117.298
115.818
114.232
112.542
110.75
108.861
106.878
104.808
102.658
100.436
98.1522
95.8162
93.4387
91.0309
88.6037
86.1812
126.578
126.49
126.285
125.971
125.56
125.056
124.458
123.766
122.98
122.098
121.119
120.043
118.869
117.596
116.224
114.754
113.187
111.526
109.774
107.935
106.013
104.016
101.95
99.8225
97.6425
95.4188
93.161
90.8787
88.5812
86.2887
125.746
125.655
125.442
125.116
124.691
124.17
123.555
122.846
122.043
121.145
120.153
119.067
117.887
116.614
115.248
113.791
112.245
110.614
108.9
107.108
105.244
103.313
101.322
99.2779
97.1892
95.0637
92.9097
90.7357
88.5498
86.3688
124.976
124.882
124.662
124.326
123.888
123.354
122.725
122.002
121.185
120.275
119.274
118.182
117
115.729
114.372
112.929
111.405
109.802
108.124
106.376
104.564
102.692
100.768
98.7976
96.7887
94.7483
92.6839
90.6028
88.5123
86.4264
124.275
124.179
123.952
123.608
123.16
122.615
121.974
121.239
120.412
119.494
118.487
117.391
116.21
114.944
113.596
112.168
110.665
109.089
107.444
105.737
103.97
102.151
100.286
98.3795
96.4395
94.4722
92.4842
90.4823
88.4729
86.4677
123.653
123.554
123.322
122.97
122.513
121.958
121.308
120.565
119.73
118.806
117.794
116.698
115.518
114.258
112.92
111.507
110.024
108.472
106.858
105.186
103.46
101.687
99.8719
98.0205
96.139
94.2335
92.31
90.3746
88.433
86.495
123.118
123.016
122.779
122.419
121.955
121.393
120.736
119.986
119.146
118.217
117.204
116.108
114.931
113.677
112.349
110.951
109.485
107.955
106.368
104.726
103.035
101.301
99.5281
97.7226
95.89
94.0359
92.1659
90.2855
88.3999
86.5177
122.681
122.576
122.331
121.963
121.492
120.924
120.261
119.506
118.661
117.731
116.716
115.621
114.448
113.201
111.882
110.495
109.045
107.534
105.969
104.353
102.69
100.988
99.2494
97.4809
95.6875
93.8744
92.0469
90.2099
88.3685
86.5295
122.354
122.242
121.988
121.614
121.138
120.565
119.898
119.139
118.292
117.359
116.345
115.251
114.082
112.84
111.528
110.152
108.714
107.219
105.671
104.075
102.436
100.758
99.0464
97.3067
95.5438
93.7626
91.9681
90.1651
88.3583
86.5538
122.15
122.015
121.744
121.364
120.885
120.31
119.64
118.879
118.031
117.098
116.084
114.993
113.826
112.589
111.283
109.914
108.485
107.001
105.465
103.883
102.259
100.598
98.9046
97.1841
95.4413
93.681
91.9079
90.1267
88.3416
86.5578
122.131
121.932
121.632
121.246
120.764
120.186
119.513
118.75
117.901
116.968
115.955
114.865
113.702
112.467
111.167
109.803
108.381
106.904
105.376
103.804
102.19
100.54
98.8579
97.1497
95.4196
93.6724
91.9126
90.1448
88.3733
86.6023
-45.8739
-25.8416
-6.16843
41.511
34.5087
23.3379
57.2462
45.4621
34.6217
58.5023
48.2473
40.3786
62.7142
54.5581
47.928
67.0034
60.1985
54.4002
70.1728
64.3684
59.385
72.667
67.6989
63.4367
74.761
70.4704
66.7948
76.5207
72.7718
69.5678
77.9924
74.6826
71.8607
79.225
76.2756
73.766
80.2585
77.6077
75.3554
81.1248
78.7236
76.6857
81.8499
79.6594
77.8015
82.4556
80.4441
78.7386
82.9598
81.1015
79.5257
83.3777
81.6509
80.1861
83.722
82.1085
80.7389
84.0039
82.4882
81.2004
84.2327
82.8015
81.584
84.4172
83.0588
81.9014
84.5641
83.2681
82.1622
84.6816
83.4387
82.3762
84.7724
83.574
82.5481
84.8484
83.6869
82.6905
84.9011
83.769
82.797
84.9597
83.85
82.8949
84.9837
83.8901
82.9489
85.0491
83.9695
83.0346
3.67509
3.95823
5.32156
6.17741
6.27181
6.20995
6.178
6.09876
5.94818
5.7923
5.63759
5.46874
5.2776
5.06844
4.84415
4.60241
4.34005
4.05526
3.74697
3.41411
3.05604
2.67372
2.26895
1.84554
1.41771
1.00916
0.630551
0.284125
0.0255401
-0.0281153
9.94372
6.66641
7.07812
6.83021
6.13668
5.93815
6.11839
6.1538
5.96659
5.8146
5.68721
5.54019
5.3568
5.15249
4.9341
4.69555
4.43104
4.13836
3.81663
3.46486
3.0826
2.67154
2.23462
1.77538
1.30952
0.871644
0.483087
0.145782
-0.0850534
-0.0735528
20.6192
12.1687
9.13795
7.37575
6.7358
6.65762
6.70139
6.33178
5.91221
5.79109
5.7464
5.63928
5.45497
5.25224
5.04393
4.81286
4.54895
4.25028
3.91635
3.54536
3.13595
2.69042
2.21578
1.71655
1.20442
0.726412
0.321888
-0.00699227
-0.208606
-0.127752
29.8454
20.1333
14.4169
10.8354
8.79902
7.66318
6.99618
6.50879
6.28366
6.16472
6.01661
5.79651
5.54765
5.34719
5.16846
4.95531
4.69598
4.3943
4.05032
3.65999
3.22118
2.73813
2.22141
1.67233
1.09614
0.561329
0.136265
-0.180817
-0.347851
-0.194153
38.7492
29.1426
21.9343
16.6812
12.9972
10.4747
8.78774
7.6887
7.01077
6.55406
6.2319
5.99862
5.80639
5.61895
5.40496
5.15288
4.87128
4.56214
4.21247
3.80718
3.3407
2.81716
2.24788
1.6429
1.00103
0.409873
-0.0498961
-0.377649
-0.507693
-0.278991
46.5137
37.6985
29.9026
23.5378
18.6466
14.9913
12.3016
10.3405
8.91752
7.88625
7.15118
6.62988
6.24208
5.92965
5.65961
5.40353
5.13124
4.81712
4.44375
4.00398
3.49841
2.93105
2.30907
1.64135
0.939173
0.280152
-0.251605
-0.620165
-0.693195
-0.399498
52.8271
45.1021
37.4107
30.5926
25.0052
20.5399
16.9994
14.2147
12.0475
10.3789
9.10362
8.12674
7.36784
6.76772
6.28246
5.86995
5.48941
5.10673
4.69378
4.22724
3.69151
3.08165
2.40339
1.66953
0.903806
0.175883
-0.423241
-0.817861
-0.876823
-0.55026
57.9622
51.287
44.0948
37.3221
31.4729
26.5362
22.3935
18.9521
16.1308
13.8423
11.9968
10.5106
9.31002
8.3334
7.528
6.84576
6.24323
5.68244
5.12955
4.55469
3.93473
3.25605
2.51557
1.72133
0.899825
0.117182
-0.532554
-0.957668
-1.03935
-0.743799
62.1456
56.3651
49.8254
43.3924
37.6006
32.4988
28.0258
24.1444
20.8213
18.0071
15.6404
13.6577
11.9978
10.6039
9.42396
8.40982
7.51703
6.70486
5.93635
5.17911
4.40726
3.6035
2.76083
1.88529
1.00344
0.174857
-0.514172
-0.970866
-1.09387
-0.899321
65.552
60.5057
54.6306
48.6708
43.1321
38.0897
33.5153
29.4043
25.7577
22.5583
19.7731
17.3603
15.2753
13.4727
11.9078
10.5372
9.31912
8.21387
7.18473
6.19915
5.23046
4.26008
3.27989
2.29572
1.33326
0.44473
-0.29522
-0.805034
-1.01176
-0.97951
68.3417
63.8926
58.6264
53.1698
47.9773
43.1298
38.6145
34.4427
30.6347
27.1957
24.1145
21.3688
18.9308
16.7684
14.8476
13.1328
11.5882
10.1787
8.87073
7.63419
6.44385
5.2818
4.14014
3.02426
1.95711
0.982446
0.160958
-0.443574
-0.784882
-0.951261
70.6449
66.6834
61.9485
56.97
52.1491
47.5624
43.2023
39.0855
35.2409
31.6863
28.425
25.4495
22.7457
20.2944
18.0722
16.0528
14.2081
12.5093
10.9285
9.43952
8.02045
6.65546
5.33751
4.07113
2.8753
1.78465
0.845454
0.103595
-0.413736
-0.797424
72.5592
68.9995
64.7191
60.1716
55.7106
51.4049
47.2475
43.2549
39.4579
35.88
32.5328
29.4188
26.5339
23.8689
21.4099
19.1395
17.0374
15.082
13.2513
11.5246
9.88379
8.316
6.81529
5.38513
4.04014
2.80622
1.71671
0.802738
0.079526
-0.532945
74.1583
70.9332
67.0396
62.871
58.7415
54.7116
50.7729
46.9392
43.24
39.7002
36.3357
33.1547
30.1597
27.3489
24.7158
22.2503
19.9393
17.7676
15.7195
13.7791
11.933
10.171
8.48845
6.88767
5.37927
3.98156
2.71738
1.60678
0.65783
-0.192367
75.499
72.5549
68.9907
65.1523
61.3205
57.5485
53.8262
50.164
46.5883
43.1237
39.7874
36.5905
33.5398
30.6382
27.8845
25.2745
22.8006
20.4535
18.2225
16.0967
14.0664
12.124
10.2661
8.49409
6.81511
5.24136
3.78759
2.46586
1.27969
0.18452
76.6256
73.919
70.6364
67.0844
63.5165
59.9798
56.4624
52.9711
49.5293
46.1598
42.8795
39.7009
36.633
33.6818
30.8499
28.1369
25.54
23.0541
20.6728
18.3892
16.1968
14.0904
12.0675
10.1286
8.27828
6.5239
4.87417
3.33535
1.9075
0.562476
77.5733
75.0683
72.027
68.7234
65.3881
62.0629
58.7346
55.407
52.0999
48.8339
45.6253
42.4865
39.4277
36.4565
33.5779
30.7945
28.1066
25.5125
23.0092
20.5928
18.2594
16.0058
13.83
11.7322
9.71455
7.78106
5.9358
4.18061
2.51249
0.916154
78.3703
76.037
73.2029
70.1149
66.9837
63.8471
60.6906
57.5156
54.3387
51.178
48.0485
44.9623
41.9295
38.9588
36.0565
33.2272
30.4733
27.7958
25.194
22.6664
20.2111
17.8263
15.5106
13.2637
11.0864
8.97962
6.94419
4.9784
3.07627
1.23147
79.0397
76.8528
74.1969
71.2959
68.3433
65.3737
62.372
59.337
56.2825
53.2245
50.1763
47.1492
44.1531
41.1966
38.2871
35.4301
32.6296
29.8883
27.2072
24.5868
22.0264
19.5254
17.0828
14.698
12.3705
10.0993
7.88253
5.71557
3.58967
1.50389
79.6006
77.5386
75.0361
72.297
69.5003
66.6779
63.8141
60.9059
57.9646
55.004
52.0359
49.0704
46.1168
43.1836
40.2782
37.407
34.5748
31.7852
29.0407
26.3429
23.6923
21.0889
18.5322
16.0212
13.5545
11.1297
8.74263
6.38657
4.05024
1.7354
80.0689
78.1135
75.7428
73.1436
70.4826
67.7891
65.0473
62.2528
59.4145
56.5443
53.6526
50.7483
47.8398
44.9352
42.0418
39.166
36.3133
33.4878
30.693
27.931
25.2033
22.5103
19.8518
17.2267
14.6326
12.0661
9.52159
6.99038
4.45928
1.93092
80.4585
78.5937
76.3358
73.8572
71.3136
68.7324
66.0978
63.404
60.6582
57.8705
55.05
52.2043
49.3411
46.4677
43.5911
40.7176
37.8528
35.0012
32.1667
29.3519
26.5588
23.7881
21.0398
18.3124
15.6033
12.9081
10.2199
7.52878
4.82013
2.09627
80.7805
78.9923
76.8307
74.4553
72.0126
69.5284
66.9869
64.3815
61.7176
59.004
56.2483
53.4573
50.6376
47.796
44.9388
42.0722
39.2014
36.3314
33.4659
30.608
27.7598
24.9224
22.0956
19.2779
16.4663
13.6557
10.8384
8.00355
5.1355
2.23569
81.0459
79.3219
77.2418
74.9541
72.5973
70.196
67.7346
65.2056
62.6132
59.9648
57.2671
54.5257
51.7465
48.9355
46.0986
43.2414
40.3691
37.4864
34.597
31.7043
28.8104
25.9163
23.022
20.1258
17.2243
14.3119
11.3805
8.41848
5.4096
2.35373
81.2608
79.5903
77.5781
75.364
73.0793
70.7478
68.3541
65.89
63.3588
60.7667
58.1195
55.422
52.6792
49.8966
47.0793
44.2327
41.3616
38.4704
35.563
32.6424
29.7109
26.7694
23.8179
20.8545
17.8757
14.8754
11.8451
8.77274
5.64188
2.45058
81.4374
79.8102
77.8539
75.7002
73.4748
71.2009
68.8632
66.4532
63.9731
61.4284
58.8239
56.1639
53.4528
50.6953
47.8961
45.06
42.1916
39.2951
36.3742
33.4317
30.4699
27.4897
24.4909
21.4715
18.4277
15.3533
12.2394
9.07356
5.83934
2.53205
81.5725
79.9795
78.0674
75.9616
73.7834
71.5553
69.2623
66.8955
64.4564
61.95
59.3802
56.751
54.0659
51.3294
48.5456
45.719
42.8539
39.9541
37.0232
34.064
31.0784
28.0675
25.0308
21.9662
18.8698
15.7352
12.5532
9.31117
5.99279
2.59138
81.689
80.1211
78.2426
76.1732
74.0306
71.8372
69.578
67.2441
64.8364
62.3592
59.8161
57.2105
54.5457
51.8255
49.054
46.2351
43.3729
40.4711
37.533
34.5613
31.5579
28.5236
25.4579
22.3587
19.2218
16.0406
12.8057
9.50423
6.11969
2.64178
81.7595
80.2074
78.3509
76.3061
74.1877
72.0174
69.7809
67.469
65.0823
62.6246
60.0995
57.5098
54.8587
52.1497
49.3865
46.573
43.713
40.8101
37.8673
34.8874
31.8721
28.8222
25.737
22.6144
19.4499
16.237
12.9657
9.62305
6.19233
2.66184
81.8443
80.2932
78.4489
76.4191
74.3142
72.1564
69.932
67.6318
65.2561
62.8085
60.2924
57.7106
55.066
52.3621
49.6025
46.7908
43.9309
41.0261
38.0797
35.0942
32.0713
29.0118
25.915
22.7788
19.5985
16.3674
13.0754
9.7084
6.2471
2.66809
)
;

boundaryField
{
    inlet
    {
        type            zeroGradient;
    }
    outlet
    {
        type            fixedValue;
        value           uniform 0;
    }
    flap
    {
        type            zeroGradient;
    }
    upperWall
    {
        type            zeroGradient;
    }
    lowerWall
    {
        type            zeroGradient;
    }
    frontAndBack
    {
        type            empty;
    }
}


// ************************************************************************* //
