/*--------------------------------*- C++ -*----------------------------------*\
  =========                 |
  \\      /  F ield         | OpenFOAM: The Open Source CFD Toolbox
   \\    /   O peration     | Website:  https://openfoam.org
    \\  /    A nd           | Version:  7
     \\/     M anipulation  |
\*---------------------------------------------------------------------------*/
FoamFile
{
    version     2.0;
    format      ascii;
    class       surfaceScalarField;
    location    "1.8";
    object      phi;
}
// * * * * * * * * * * * * * * * * * * * * * * * * * * * * * * * * * * * * * //

dimensions      [0 3 -1 0 0 0 0];

internalField   nonuniform List<scalar> 
5457
(
0.198417
0.00158317
0.196478
0.00193892
0.194188
0.00229036
0.191501
0.00268654
0.188416
0.00308476
0.184935
0.00348085
0.181052
0.00388309
0.176753
0.00429886
0.17202
0.00473328
0.16683
0.00519037
0.161156
0.00567362
0.15497
0.00618597
0.148241
0.00672959
0.140935
0.00730551
0.133022
0.00791308
0.124473
0.00854929
0.115265
0.00920786
0.105387
0.00987816
0.0948428
0.010544
0.0836606
0.0111822
0.0718986
0.011762
0.0596542
0.0122444
0.0470708
0.0125834
0.0343375
0.0127333
0.0216514
0.0126862
0.00901405
0.0126373
-0.00291844
0.0119325
-0.00846652
0.00554808
-0.00803654
-0.000429979
-0.00803654
0.199927
0.00165581
0.199173
0.00269293
0.19796
0.00350361
0.196324
0.00432271
0.19426
0.00514841
0.191766
0.00597506
0.188835
0.00681465
0.185453
0.00768063
0.181603
0.00858331
0.177262
0.009531
0.172405
0.0105309
0.167001
0.0115893
0.16102
0.0127111
0.154427
0.0138987
0.147188
0.0151518
0.139272
0.0164653
0.130652
0.0178278
0.121311
0.0192194
0.111246
0.0206087
0.100477
0.0219508
0.0890554
0.023184
0.0770715
0.0242282
0.0646707
0.0249842
0.0520696
0.0253344
0.0396168
0.025139
0.0280739
0.0241802
0.0185635
0.0214429
0.0087701
0.0153415
0.00117173
0.00716839
-0.0068648
0.19978
0.00187602
0.199084
0.00338831
0.197941
0.0046468
0.196402
0.00586225
0.194472
0.00707806
0.192149
0.00829813
0.189427
0.00953652
0.186297
0.0108109
0.182744
0.0121362
0.17875
0.0135249
0.174293
0.0149881
0.169347
0.0165353
0.163884
0.0181743
0.157872
0.0199101
0.15128
0.0217437
0.144076
0.0236701
0.136228
0.0256755
0.127713
0.0277345
0.118516
0.0298058
0.108639
0.0318278
0.098109
0.0337137
0.0869901
0.0353472
0.0753979
0.0365764
0.0635263
0.037206
0.0516905
0.0369748
0.0403607
0.03551
0.0297078
0.0320958
0.0191464
0.0259029
0.00958265
0.0167322
0.00271784
0.199702
0.00217374
0.199005
0.00408517
0.197883
0.00576959
0.196369
0.00737609
0.194477
0.00896969
0.192207
0.0105681
0.189555
0.0121886
0.186514
0.0138516
0.183075
0.0155756
0.179223
0.0173765
0.174943
0.0192681
0.170216
0.0212628
0.16502
0.0233706
0.159331
0.0255985
0.153126
0.0279491
0.146378
0.0304183
0.139061
0.0329921
0.131152
0.0356432
0.122633
0.0383254
0.113492
0.040968
0.103737
0.0434688
0.0933978
0.0456867
0.0825407
0.0474335
0.071283
0.0484637
0.0597969
0.0484609
0.0482792
0.0470277
0.0367805
0.0435945
0.0251667
0.0375167
0.0133245
0.0285744
0.0160424
0.199667
0.00250711
0.198962
0.00478999
0.197858
0.00687319
0.196374
0.00886072
0.194521
0.010822
0.192303
0.0127869
0.189714
0.0147769
0.186751
0.016815
0.183404
0.0189223
0.179663
0.0211173
0.175515
0.0234162
0.170945
0.0258329
0.165937
0.0283791
0.160472
0.0310631
0.154533
0.0338885
0.148099
0.036852
0.141151
0.0399404
0.133668
0.0431262
0.12563
0.0463628
0.117021
0.0495768
0.10783
0.0526606
0.0980535
0.0554629
0.0877075
0.0577795
0.0768265
0.0593447
0.0654625
0.0598248
0.0536687
0.0588215
0.0414226
0.0558406
0.0285658
0.0503735
0.0148413
0.0422989
0.0308836
0.199652
0.00285511
0.198946
0.00549562
0.197866
0.00795344
0.196419
0.0103079
0.194615
0.0126256
0.192458
0.0149445
0.189944
0.0172911
0.187068
0.0196907
0.183823
0.0221668
0.180201
0.0247399
0.176189
0.027428
0.171775
0.0302467
0.166945
0.0332088
0.161685
0.0363236
0.155978
0.0395955
0.149808
0.043022
0.143157
0.0465913
0.136006
0.0502774
0.128333
0.0540359
0.120113
0.0577962
0.11132
0.0614535
0.101924
0.0648591
0.0918941
0.0678098
0.0811984
0.0700403
0.069805
0.0712183
0.0576751
0.0709514
0.0447276
0.0687881
0.0308262
0.0642749
0.0158616
0.0572634
0.0467453
0.199649
0.00320586
0.198952
0.00619318
0.1979
0.00900539
0.196497
0.0117106
0.194751
0.0143715
0.192665
0.0170307
0.190237
0.0197194
0.187462
0.0224654
0.184335
0.0252941
0.180846
0.0282282
0.176987
0.0312874
0.172745
0.0344887
0.168108
0.0378461
0.163061
0.0413701
0.15759
0.0450662
0.151679
0.0489334
0.145308
0.0529619
0.138457
0.0571292
0.131097
0.0613954
0.123196
0.0656971
0.114711
0.0699391
0.105585
0.0739844
0.0957513
0.0776437
0.0851261
0.0806655
0.073615
0.0827295
0.0611164
0.08345
0.0475197
0.0823848
0.0327341
0.0790604
0.0167705
0.073227
0.0635158
0.199654
0.00355201
0.198972
0.00687489
0.197954
0.0100235
0.196602
0.0130624
0.194923
0.0160512
0.192918
0.0190355
0.190587
0.0220502
0.187927
0.0251258
0.184931
0.0282895
0.181593
0.031566
0.177904
0.0349766
0.173853
0.0385398
0.169428
0.0422713
0.164615
0.0461828
0.159399
0.0502819
0.153763
0.0545701
0.147684
0.0590408
0.141136
0.0636766
0.134086
0.0684454
0.126489
0.0732945
0.118285
0.0781435
0.109394
0.0828749
0.0997151
0.0873226
0.0891215
0.0912592
0.0774665
0.0943844
0.0645978
0.0963187
0.0503784
0.0966041
0.0347413
0.0946976
0.0177762
0.0901921
0.081292
0.199663
0.00388865
0.199004
0.00753431
0.198025
0.0110021
0.196731
0.0143569
0.195125
0.017657
0.193211
0.0209496
0.190988
0.0242729
0.188454
0.0276596
0.185605
0.0311391
0.182433
0.0347376
0.178932
0.038478
0.175091
0.0423808
0.170899
0.0464631
0.166343
0.050739
0.161406
0.0552184
0.15607
0.0599064
0.150309
0.0648014
0.144093
0.069893
0.137379
0.0751594
0.130111
0.0805622
0.122214
0.086041
0.113584
0.0915043
0.10409
0.0968175
0.0935608
0.101788
0.0817993
0.106146
0.0685939
0.109524
0.0537583
0.11144
0.0372065
0.111249
0.0190682
0.10833
0.10036
0.199676
0.00421225
0.199045
0.00816617
0.198111
0.0119358
0.196879
0.0155883
0.195355
0.0191817
0.19354
0.0227646
0.191435
0.0263777
0.189039
0.0300558
0.186348
0.0338302
0.183357
0.0377285
0.180059
0.0417756
0.176447
0.0459934
0.172509
0.0504012
0.168232
0.0550154
0.163601
0.0598493
0.158595
0.0649123
0.153188
0.0702091
0.147343
0.0757382
0.141012
0.0814903
0.134129
0.0874449
0.126604
0.0935659
0.118314
0.099794
0.109096
0.106036
0.0987372
0.112147
0.0869785
0.117905
0.0735266
0.122976
0.0580986
0.126868
0.0405176
0.12883
0.020884
0.127964
0.121244
0.199692
0.00452015
0.199092
0.00876619
0.198208
0.0128198
0.197045
0.0167511
0.195608
0.0206189
0.1939
0.0244729
0.191922
0.0283558
0.189673
0.0323043
0.187152
0.0363512
0.184355
0.0405258
0.181276
0.0448544
0.177909
0.0493607
0.174244
0.0540661
0.17027
0.0589896
0.165971
0.0641481
0.161327
0.0695561
0.156311
0.0752253
0.150884
0.0811645
0.144996
0.0873786
0.138574
0.0938673
0.131517
0.100622
0.123688
0.107623
0.114897
0.114827
0.104889
0.122154
0.093334
0.12946
0.0798249
0.136485
0.06391
0.142783
0.0451949
0.147546
0.0235916
0.149567
0.144836
0.19971
0.00481029
0.199145
0.00933084
0.198315
0.0136499
0.197226
0.0178406
0.195882
0.0219629
0.194287
0.0260679
0.192443
0.0301994
0.190351
0.0343962
0.18801
0.0386921
0.185418
0.043118
0.182571
0.0477014
0.179464
0.0524677
0.17609
0.0574402
0.172439
0.0626407
0.168498
0.0680896
0.164247
0.0738066
0.159662
0.0798108
0.154705
0.0861214
0.149325
0.0927581
0.143451
0.0997417
0.136979
0.107094
0.129765
0.114837
0.121604
0.122988
0.112207
0.131551
0.101174
0.140493
0.0879595
0.1497
0.0718545
0.158888
0.0520391
0.167361
0.0278621
0.173744
0.172698
0.199729
0.00508106
0.199203
0.00985727
0.19843
0.0144223
0.197418
0.0188524
0.196173
0.0232089
0.194697
0.0275437
0.192994
0.0319021
0.191066
0.0363239
0.188914
0.0408444
0.186537
0.0454953
0.183933
0.0503053
0.181099
0.0553012
0.178031
0.0605081
0.174722
0.0659501
0.171161
0.0716509
0.167332
0.077635
0.163215
0.0839281
0.158777
0.0905592
0.153973
0.0975619
0.148738
0.104977
0.142977
0.112855
0.136553
0.121261
0.129265
0.130276
0.120818
0.139998
0.110767
0.150544
0.0984407
0.162027
0.0828186
0.17451
0.0623789
0.187801
0.0350975
0.201026
0.207795
0.19975
0.00533119
0.199264
0.0103432
0.198552
0.0151342
0.197621
0.0197832
0.196478
0.0243527
0.195126
0.0288957
0.193569
0.0334583
0.191812
0.0380814
0.189855
0.042801
0.187701
0.0476496
0.185349
0.052657
0.1828
0.0578507
0.180051
0.0632572
0.177098
0.0689024
0.173936
0.0748128
0.170555
0.0810164
0.166938
0.0875446
0.163064
0.094434
0.158896
0.101729
0.154386
0.109488
0.149457
0.117784
0.144
0.126718
0.137847
0.136428
0.130741
0.147104
0.122269
0.159017
0.111736
0.172559
0.0979155
0.18833
0.0784677
0.207248
0.0486338
0.230859
0.256429
0.199771
0.00555972
0.199328
0.0107867
0.198679
0.0157831
0.197832
0.02063
0.196794
0.0253911
0.195569
0.0301201
0.194164
0.0348638
0.192581
0.0396638
0.190826
0.0445565
0.188901
0.0495751
0.186808
0.0547495
0.184551
0.0601081
0.18213
0.0656779
0.179546
0.071486
0.176799
0.0775605
0.173883
0.0839319
0.170793
0.0906348
0.167516
0.0977108
0.164034
0.105212
0.160317
0.113204
0.156323
0.121778
0.151985
0.131056
0.147205
0.141208
0.141826
0.152484
0.135586
0.165257
0.128016
0.180128
0.118182
0.198164
0.103836
0.221595
0.0776652
0.25703
0.334094
0.00712376
-0.00712376
0.0134208
-0.00629701
0.0188096
-0.0053888
0.0234839
-0.00467432
0.0275936
-0.00410976
0.0312302
-0.00363652
0.0344541
-0.00322396
0.0373052
-0.00285109
0.039806
-0.00250075
0.041973
-0.00216704
0.0438304
-0.00185735
0.045386
-0.00155561
0.0466049
-0.0012189
0.0474868
-0.000881974
0.0480794
-0.000592567
0.048391
-0.000311639
0.0484639
-7.28836e-05
0.0483298
0.000134163
0.0481416
0.000188173
0.0479051
0.000236479
0.0475621
0.000342974
0.0470364
0.000525784
0.0463116
0.000724735
0.0454562
0.000855433
0.0446322
0.000823949
0.0440617
0.000570564
0.0439021
0.000159616
0.0443379
-0.000435837
0.045601
-0.00126307
-0.00231219
0.0053899
-0.0125137
0.0106455
-0.0115526
0.0152825
-0.0100259
0.0193384
-0.00873022
0.0229243
-0.00769563
0.0261165
-0.00682871
0.0289638
-0.00607125
0.0314934
-0.0053807
0.0337148
-0.00472212
0.0356325
-0.00408478
0.0372774
-0.00350219
0.0386792
-0.0029574
0.0397833
-0.00232304
0.0406149
-0.00171359
0.0411837
-0.00116135
0.0411035
-0.000231414
0.0401697
0.000860895
0.0383934
0.00191041
0.035952
0.00262957
0.0330973
0.00309121
0.0300814
0.00335885
0.0271477
0.00345951
0.024525
0.00334742
0.0223732
0.0030073
0.020814
0.00238312
0.0199681
0.00141642
0.019848
0.000279778
0.0206992
-0.0012871
0.0229104
-0.00347425
-0.00575562
0.00379322
-0.0163069
0.00748494
-0.0152443
0.0107402
-0.0132812
0.013576
-0.0115659
0.0160366
-0.0101563
0.0181625
-0.00895454
0.0199891
-0.00789786
0.0215306
-0.00692219
0.0227739
-0.00596544
0.023681
-0.00499189
0.0242983
-0.00411945
0.0247539
-0.00341309
0.0247129
-0.00228199
0.0235193
-0.000519966
0.0211394
0.00121849
0.0183566
0.00255139
0.0156139
0.00360366
0.0128587
0.00466557
0.0100151
0.00547319
0.00717835
0.00592794
0.00449883
0.00603837
0.00212594
0.0058324
0.000164249
0.00530911
-0.00125223
0.00442378
-0.00204968
0.00318056
-0.0021677
0.00153445
-0.00131722
-0.000570704
0.000661272
-0.00326559
0.0037242
-0.00653718
-0.00881133
0.00225052
-0.0185574
0.00423568
-0.0172295
0.00590719
-0.0149527
0.00728386
-0.0129426
0.00836153
-0.011234
0.00913529
-0.0097283
0.00963114
-0.00839372
0.00985773
-0.00714878
0.00981145
-0.00591915
0.00940045
-0.00458089
0.00824454
-0.00296354
0.00592561
-0.00109415
0.00298361
0.000660016
0.000460659
0.00200298
-0.00171346
0.0033926
-0.00387765
0.00471559
-0.00615161
0.00587762
-0.008362
0.00687596
-0.0104572
0.00756844
-0.0123873
0.00785799
-0.0140819
0.00773302
-0.0154581
0.00720858
-0.016433
0.006284
-0.0169519
0.0049427
-0.0169706
0.00319925
-0.0164686
0.00103242
-0.0154244
-0.00161486
-0.0139361
-0.00475396
-0.0124844
-0.00798886
-0.0103689
0.000580838
-0.0191382
0.000804646
-0.0174533
0.000753347
-0.0149014
0.000530977
-0.0127202
3.85013e-05
-0.0107415
-0.000724182
-0.00896562
-0.0018307
-0.0072872
-0.00333341
-0.00564606
-0.00527585
-0.00397671
-0.00762254
-0.00223419
-0.0101667
-0.000419353
-0.0124009
0.00114005
-0.0143139
0.00257294
-0.0163054
0.00399452
-0.0182873
0.00537447
-0.0202107
0.00663905
-0.0220512
0.00771807
-0.023728
0.00855273
-0.0252008
0.00904128
-0.0264524
0.00910959
-0.0274588
0.00873939
-0.0281892
0.00793904
-0.028619
0.00671376
-0.0287412
0.00506494
-0.0285515
0.00300953
-0.0280508
0.000531662
-0.0273054
-0.00236024
-0.026454
-0.00560533
-0.0256583
-0.00878458
-0.0112211
-0.00113773
-0.0180005
-0.00272037
-0.0158706
-0.00445893
-0.0131628
-0.00637876
-0.0108004
-0.00846017
-0.0086601
-0.0107228
-0.00670295
-0.0131432
-0.00486688
-0.0156799
-0.00310931
-0.0182581
-0.00139856
-0.0207125
0.000220266
-0.022852
0.00172012
-0.0248404
0.00312846
-0.0267928
0.00452537
-0.0286821
0.00588379
-0.0304687
0.00716103
-0.032116
0.00828641
-0.0335923
0.00919431
-0.034859
0.00981944
-0.0359021
0.0100844
-0.0367268
0.00993427
-0.0373397
0.00935228
-0.0377446
0.00834402
-0.037948
0.00691708
-0.03796
0.00507695
-0.0377832
0.00283277
-0.0374221
0.000170552
-0.0369495
-0.00283285
-0.0364685
-0.00608631
-0.0360316
-0.00922152
-0.0116194
-0.00291207
-0.0150884
-0.00618591
-0.0125968
-0.00949635
-0.00985237
-0.0127968
-0.00749997
-0.0160325
-0.00542441
-0.0191745
-0.00356098
-0.0221835
-0.0018578
-0.0250201
-0.00027275
-0.0275696
0.00115092
-0.0298478
0.00249846
-0.0319597
0.00383206
-0.0339813
0.00515003
-0.0358896
0.00643366
-0.0376579
0.00765208
-0.0392575
0.00876069
-0.0406688
0.00969772
-0.0418753
0.0104008
-0.0428647
0.0108088
-0.0436421
0.0108619
-0.0442271
0.0105193
-0.0446421
0.00976722
-0.0449066
0.00860852
-0.0450376
0.00704813
-0.0450487
0.00508807
-0.0449445
0.00272856
-0.0447451
-2.88674e-05
-0.044495
-0.00308292
-0.0442737
-0.00630761
-0.0441128
-0.00938243
-0.0116864
-0.00463803
-0.0104504
-0.00937047
-0.00786434
-0.0139094
-0.00531347
-0.0181562
-0.00325314
-0.0220565
-0.00152414
-0.0255907
-2.67587e-05
-0.0287266
0.00127808
-0.0314869
0.00248759
-0.0339895
0.00365349
-0.0363184
0.00482742
-0.0384832
0.00599683
-0.0404827
0.00714949
-0.0423095
0.00826047
-0.0439511
0.0092937
-0.0453931
0.0102027
-0.0466271
0.0109317
-0.0476498
0.0114235
-0.0484652
0.0116242
-0.0490898
0.0114865
-0.0495506
0.01098
-0.0498766
0.0100933
-0.0500948
0.00882667
-0.0502269
0.0071802
-0.0502876
0.00514883
-0.0502863
0.00272731
-0.0502472
-6.80243e-05
-0.0502022
-0.00312789
-0.0502001
-0.00630977
-0.050274
-0.00930854
-0.0114961
-0.00623815
-0.00421226
-0.0122162
-0.00188625
-0.0175388
9.12558e-06
-0.0221777
0.00138574
-0.0262292
0.00252734
-0.0297689
0.00351297
-0.0329187
0.00442781
-0.0357684
0.00533735
-0.0383682
0.00625327
-0.0407328
0.00719205
-0.0428795
0.00814345
-0.0448169
0.00908693
-0.0465482
0.00999174
-0.0480721
0.0108176
-0.0493862
0.0115168
-0.050491
0.0120365
-0.0513925
0.0123249
-0.0521034
0.0123351
-0.0526462
0.0120293
-0.0530509
0.0113847
-0.05335
0.0103925
-0.0535744
0.00905107
-0.05375
0.00735574
-0.0538947
0.00529358
-0.0540207
0.00285325
-0.0541476
5.89e-05
-0.0542971
-0.00297839
-0.0544975
-0.00610944
-0.0547784
-0.00902763
-0.011108
-0.00731341
0.00310116
-0.0139036
0.0047039
-0.0195022
0.00560773
-0.024359
0.00624257
-0.0285904
0.00675876
-0.0323019
0.00722448
-0.0355803
0.00770616
-0.0384889
0.00824592
-0.0410866
0.00885099
-0.0434097
0.00951514
-0.0454846
0.0102184
-0.0473297
0.010932
-0.0489567
0.0116187
-0.0503724
0.0122334
-0.0515823
0.0127267
-0.0525933
0.0130475
-0.0534163
0.0131479
-0.0540685
0.0129873
-0.0545749
0.0125357
-0.0549665
0.0117763
-0.0552777
0.0107037
-0.0555427
0.00931606
-0.0557917
0.00760472
-0.0560466
0.00554845
-0.0563203
0.00312703
-0.0566239
0.000362493
-0.056964
-0.00263834
-0.0573606
-0.00571284
-0.0578315
-0.00855666
-0.0105538
-0.00763576
0.0107369
-0.0145986
0.0116667
-0.020595
0.0116041
-0.0257131
0.0113607
-0.0300715
0.0111172
-0.0338103
0.0109632
-0.0370485
0.0109443
-0.0398795
0.011077
-0.0423754
0.0113468
-0.0445841
0.0117238
-0.046539
0.0121734
-0.0482647
0.0126577
-0.0497787
0.0131326
-0.0510929
0.0135477
-0.0522168
0.0138505
-0.0531601
0.0139908
-0.0539361
0.0139239
-0.054563
0.0136142
-0.0550657
0.0130384
-0.0554755
0.012186
-0.0558277
0.011056
-0.0561595
0.00964778
-0.0565054
0.00795069
-0.0568922
0.00593518
-0.0573314
0.00356632
-0.0578228
0.0008538
-0.0583613
-0.00209977
-0.0589552
-0.005119
-0.0596099
-0.00790191
-0.00984002
-0.00811562
0.0188525
-0.0154943
0.0190454
-0.021659
0.0177688
-0.0267322
0.0164339
-0.0309409
0.0153259
-0.034478
0.0145004
-0.0374922
0.0139585
-0.040103
0.0136878
-0.0423945
0.0136383
-0.0444171
0.0137464
-0.0462043
0.0139607
-0.0477831
0.0142365
-0.0491739
0.0145234
-0.0503907
0.0147645
-0.0514435
0.0149033
-0.0523421
0.0148894
-0.0530989
0.0146807
-0.0537307
0.0142461
-0.0542606
0.0135683
-0.0547182
0.0126437
-0.0551392
0.011477
-0.0555627
0.0100713
-0.0560281
0.00841601
-0.0565668
0.00647395
-0.0571899
0.00418941
-0.0578857
0.0015496
-0.0586342
-0.00135124
-0.0594316
-0.00432167
-0.0602733
-0.00706024
-0.00896193
-0.00904282
0.0278954
-0.0169181
0.0269207
-0.0229726
0.0238233
-0.0276181
0.0210794
-0.0313469
0.0190547
-0.0344273
0.0175808
-0.0370174
0.0165487
-0.039258
0.0159283
-0.0412418
0.0156221
-0.043007
0.0155116
-0.0445771
0.0155308
-0.0459781
0.0156375
-0.0472325
0.0157778
-0.0483537
0.0158857
-0.0493491
0.0158987
-0.050226
0.0157663
-0.0509938
0.0154485
-0.0516656
0.0149179
-0.0522597
0.0141624
-0.0528021
0.0131861
-0.0533266
0.0120015
-0.0538727
0.0106174
-0.0544834
0.0090267
-0.0551966
0.00718714
-0.0560249
0.00501772
-0.0569452
0.00246989
-0.0579184
-0.000378075
-0.0589285
-0.00331148
-0.0599685
-0.0060203
-0.0079093
-0.0107656
0.0386609
-0.0194039
0.035559
-0.0248918
0.0293112
-0.0285101
0.0246977
-0.0313554
0.0219
-0.0337184
0.0199437
-0.0356735
0.0185038
-0.0373856
0.0176404
-0.0389638
0.0172003
-0.0404039
0.0169517
-0.0417031
0.01683
-0.0428873
0.0168217
-0.0439847
0.0168752
-0.0450066
0.0169076
-0.0459551
0.0168472
-0.0468333
0.0166445
-0.0476469
0.0162621
-0.048403
0.015674
-0.0491123
0.0148717
-0.0497926
0.0138665
-0.0504719
0.0126807
-0.0511864
0.0113319
-0.0519796
0.0098199
-0.0528966
0.00810414
-0.053955
0.00607619
-0.0551199
0.00363472
-0.0563342
0.000836263
-0.0575716
-0.00207406
-0.0588276
-0.00476436
-0.00666964
-0.0141021
0.052763
-0.0239198
0.0453767
-0.0279656
0.033357
-0.0294215
0.0261536
-0.0308987
0.0233772
-0.0323517
0.0213967
-0.0334616
0.0196137
-0.0344691
0.0186479
-0.0355676
0.0182989
-0.0366272
0.0180113
-0.0375915
0.0177942
-0.0385012
0.0177315
-0.0394042
0.0177782
-0.040308
0.0178114
-0.0412055
0.0177447
-0.0420976
0.0175365
-0.0429891
0.0171536
-0.0438817
0.0165665
-0.0447746
0.0157646
-0.0456719
0.0147637
-0.0465878
0.0135966
-0.0475474
0.0122915
-0.0485868
0.0108592
-0.0497549
0.00927223
-0.0510779
0.00739919
-0.0525105
0.00506738
-0.0539849
0.0023106
-0.0554711
-0.000587837
-0.0569638
-0.0032716
-0.00522025
0.207446
0.00577335
0.207032
0.011201
0.206427
0.0163882
0.205639
0.0214178
0.204675
0.0263545
0.203543
0.0312525
0.202248
0.0361591
0.200796
0.041116
0.199192
0.04616
0.197443
0.0513243
0.195553
0.056639
0.193529
0.0621323
0.191376
0.0678314
0.189098
0.0737637
0.186701
0.0799575
0.184189
0.086444
0.181565
0.0932589
0.178831
0.100445
0.175986
0.108056
0.173031
0.11616
0.16996
0.124849
0.16677
0.134246
0.163457
0.144521
0.160023
0.155918
0.156493
0.168787
0.152966
0.183656
0.149814
0.201316
0.148733
0.222676
0.16057
0.245193
0.258087
0.236578
0.21249
0.00596665
0.212115
0.0115756
0.211569
0.0169344
0.210859
0.0221272
0.209995
0.0272192
0.208982
0.0322651
0.207829
0.037312
0.206543
0.0424019
0.205132
0.0475712
0.203604
0.0528527
0.201967
0.0582762
0.20023
0.0638692
0.198403
0.0696583
0.196496
0.07567
0.194522
0.0819318
0.192493
0.0884734
0.190423
0.0953287
0.18833
0.102538
0.186235
0.11015
0.184168
0.118228
0.182168
0.126849
0.180296
0.136117
0.178652
0.146165
0.177409
0.157161
0.17689
0.169306
0.177752
0.182794
0.181417
0.197651
0.190499
0.213594
0.20601
0.229682
0.244964
0.219133
0.217657
0.00613747
0.217326
0.0119064
0.216845
0.0174157
0.216221
0.0227503
0.215465
0.027976
0.214583
0.0331469
0.213585
0.0383103
0.212479
0.0435074
0.211276
0.0487744
0.209986
0.054143
0.20862
0.059642
0.207191
0.0652979
0.205714
0.0711356
0.204204
0.0771798
0.20268
0.0834555
0.201164
0.0899893
0.199682
0.0968106
0.198267
0.103953
0.19696
0.111457
0.195817
0.119371
0.194916
0.12775
0.194371
0.136663
0.194351
0.146185
0.19512
0.156392
0.197088
0.167338
0.200864
0.179017
0.207216
0.1913
0.216793
0.204016
0.229292
0.217183
0.228223
0.246033
0.22295
0.00628382
0.222667
0.0121895
0.222256
0.0178265
0.221727
0.0232802
0.221087
0.0286159
0.220346
0.0338877
0.219514
0.0391421
0.218602
0.0444196
0.217621
0.0497551
0.216585
0.0551794
0.215507
0.0607196
0.214405
0.0664003
0.213296
0.0722442
0.212203
0.0782729
0.211151
0.084508
0.210169
0.090971
0.209295
0.0976851
0.208573
0.104675
0.208062
0.111968
0.207839
0.119594
0.208006
0.127583
0.208702
0.135967
0.210119
0.144767
0.212521
0.15399
0.216251
0.163608
0.221726
0.173542
0.229389
0.183637
0.239799
0.193606
0.253863
0.20312
0.209924
0.272162
0.228373
0.00640383
0.228142
0.0124212
0.227806
0.0181617
0.227377
0.02371
0.226861
0.0291311
0.226271
0.0344782
0.225616
0.0397969
0.224909
0.0451266
0.224163
0.0505007
0.223394
0.0559484
0.222619
0.0614946
0.221858
0.0671617
0.221133
0.0729692
0.220471
0.0789353
0.219902
0.0850766
0.219464
0.0914088
0.219202
0.0979472
0.219171
0.104706
0.219439
0.111699
0.220096
0.118938
0.221252
0.126427
0.223051
0.134167
0.225679
0.14214
0.229363
0.150306
0.234381
0.15859
0.241059
0.166865
0.249768
0.174928
0.26095
0.182424
0.275069
0.189
0.193574
0.291419
0.233928
0.0064958
0.233751
0.0125985
0.233496
0.0184165
0.233173
0.0240338
0.232789
0.0295143
0.232357
0.0349101
0.231889
0.0402656
0.231397
0.0456185
0.230897
0.0510006
0.230406
0.056439
0.229945
0.0619563
0.229535
0.0675717
0.229202
0.0733016
0.228978
0.0791597
0.228897
0.0851574
0.229002
0.091304
0.229343
0.0976064
0.229981
0.104069
0.230989
0.110691
0.23246
0.117467
0.234503
0.124384
0.237253
0.131416
0.240874
0.138519
0.245555
0.145624
0.251515
0.15263
0.258992
0.159387
0.268226
0.165694
0.279389
0.171261
0.292571
0.175819
0.178858
0.307287
0.239619
0.00655824
0.239499
0.0127183
0.239329
0.0185869
0.239116
0.0242464
0.238871
0.0297593
0.238605
0.0351765
0.23833
0.0405405
0.238061
0.0458873
0.237815
0.0512468
0.23761
0.0566435
0.237469
0.0620974
0.237416
0.0676246
0.23748
0.0732377
0.237694
0.0789458
0.238097
0.084755
0.238733
0.0906681
0.239655
0.096684
0.240926
0.102797
0.24262
0.108997
0.244824
0.115263
0.24764
0.121568
0.251186
0.12787
0.255598
0.134108
0.261021
0.140201
0.267612
0.146039
0.275517
0.151482
0.284853
0.156358
0.295664
0.160451
0.307933
0.163549
0.165389
0.321402
0.245447
0.00658988
0.245388
0.0127782
0.245305
0.0186692
0.245208
0.0243433
0.245106
0.0298612
0.245011
0.0352717
0.244936
0.0406158
0.244896
0.0459273
0.244909
0.0512338
0.244995
0.0565573
0.245178
0.0619149
0.245483
0.0673193
0.245941
0.0727794
0.246587
0.0783
0.24746
0.0838819
0.248606
0.0895219
0.250078
0.095212
0.251937
0.100939
0.254251
0.106682
0.2571
0.112414
0.260573
0.118096
0.264766
0.123676
0.269784
0.12909
0.275731
0.134253
0.282706
0.139064
0.290789
0.1434
0.300023
0.147123
0.310398
0.150076
0.321844
0.152103
0.153074
0.33416
0.251417
0.00658967
0.251419
0.0127763
0.251428
0.0186609
0.25145
0.0243212
0.251495
0.0298159
0.251575
0.0351919
0.251703
0.0404877
0.251895
0.0457351
0.25217
0.0509591
0.252548
0.0561792
0.253053
0.0614095
0.253713
0.0666596
0.254558
0.0719345
0.255623
0.0772351
0.256947
0.0825576
0.258575
0.0878937
0.260557
0.0932298
0.26295
0.0985466
0.265814
0.103818
0.269219
0.10901
0.273235
0.114079
0.27794
0.118972
0.283407
0.123623
0.289705
0.127956
0.296888
0.13188
0.304992
0.135297
0.314015
0.1381
0.323912
0.140179
0.334584
0.14143
0.141797
0.345861
0.257532
0.00655686
0.257597
0.0127111
0.257698
0.0185598
0.257841
0.0241778
0.258036
0.0296212
0.258293
0.0349346
0.258627
0.0401543
0.259052
0.0453095
0.259588
0.050423
0.260256
0.0555113
0.26108
0.060586
0.262086
0.0656534
0.263305
0.0707155
0.264771
0.0757693
0.266521
0.0808074
0.268597
0.0858175
0.271045
0.0907821
0.273914
0.0956778
0.277256
0.100475
0.281129
0.105138
0.285586
0.109621
0.290684
0.113874
0.29647
0.117837
0.302985
0.121441
0.310252
0.124613
0.318272
0.127277
0.327019
0.129353
0.336428
0.13077
0.346396
0.131463
0.131412
0.356781
0.263793
0.00649097
0.263923
0.0125817
0.264118
0.0183649
0.264384
0.0239118
0.264729
0.029276
0.265164
0.0344993
0.265703
0.0396158
0.26636
0.0446521
0.267155
0.0496285
0.268107
0.0545591
0.26924
0.0594527
0.270581
0.0643131
0.272157
0.0691391
0.274001
0.0739252
0.276148
0.078661
0.278634
0.0833314
0.281499
0.0879163
0.284787
0.0923906
0.288538
0.0967235
0.292797
0.100879
0.297603
0.104815
0.302993
0.108484
0.308995
0.111835
0.315625
0.11481
0.322886
0.117353
0.330758
0.119405
0.339198
0.120913
0.348138
0.12183
0.357479
0.122122
0.121787
0.367104
0.270206
0.0063918
0.2704
0.0123878
0.270689
0.0180757
0.271078
0.0235231
0.271574
0.0287804
0.272186
0.033887
0.272927
0.0388743
0.273813
0.0437664
0.27486
0.0485814
0.276089
0.0533308
0.27752
0.0580212
0.279179
0.062654
0.281092
0.0672258
0.283289
0.071729
0.285799
0.0761511
0.288655
0.0804754
0.29189
0.084681
0.295538
0.0887422
0.299633
0.0926292
0.304204
0.0963079
0.309278
0.0997404
0.314877
0.102886
0.321012
0.1057
0.327683
0.108139
0.334877
0.110159
0.342563
0.111719
0.350691
0.112784
0.359193
0.113328
0.367981
0.113334
0.112812
0.376956
0.276773
0.00625944
0.277031
0.0121295
0.277414
0.0176928
0.277925
0.0230125
0.278569
0.0281362
0.279356
0.0331003
0.280296
0.0379338
0.281404
0.0426584
0.282696
0.0472897
0.284189
0.0518373
0.285905
0.0563057
0.287864
0.0606945
0.290092
0.0649986
0.292612
0.0692088
0.295451
0.0733119
0.298636
0.0772905
0.302193
0.0811236
0.306149
0.0847869
0.310525
0.0882524
0.315344
0.0914896
0.320619
0.0944655
0.326358
0.0971459
0.332562
0.0994959
0.33922
0.101482
0.346307
0.103072
0.353788
0.104239
0.36161
0.104962
0.369711
0.105228
0.378012
0.105033
0.104393
0.386431
0.283498
0.00609424
0.28382
0.0118077
0.284295
0.0172173
0.284925
0.0223821
0.285715
0.0273462
0.286672
0.0321435
0.287806
0.0368001
0.289129
0.0413357
0.290655
0.0457636
0.2924
0.0500917
0.294383
0.0543227
0.296623
0.0584549
0.29914
0.0624821
0.301954
0.0663944
0.305088
0.0701782
0.308561
0.0738166
0.312395
0.0772897
0.316607
0.0805749
0.321212
0.0836474
0.326221
0.0864806
0.33164
0.0890472
0.337466
0.0913195
0.343691
0.0932708
0.350296
0.0948765
0.357253
0.0961151
0.364521
0.09697
0.372053
0.0974303
0.379789
0.0974922
0.387662
0.0971593
0.0964517
0.395603
0.290384
0.00589683
0.290768
0.0114236
0.291334
0.0166514
0.292081
0.0216348
0.293013
0.0264146
0.294134
0.0310219
0.295454
0.0354804
0.296982
0.0398076
0.298731
0.0440149
0.300714
0.0481086
0.302946
0.0520902
0.305444
0.0559569
0.308225
0.059702
0.311303
0.0633155
0.314697
0.0667842
0.318422
0.0700923
0.32249
0.0732214
0.326913
0.0761517
0.331699
0.0788615
0.336851
0.081329
0.342366
0.0835319
0.348237
0.085449
0.354447
0.0870606
0.360974
0.0883497
0.367786
0.089303
0.374844
0.0899116
0.382103
0.0901718
0.389509
0.0900862
0.397005
0.0896628
0.0889225
0.404534
0.297435
0.00566806
0.297879
0.0109788
0.298533
0.0159975
0.299394
0.0207742
0.300462
0.0253464
0.301742
0.0297423
0.303239
0.0339833
0.304962
0.0380848
0.30692
0.0420567
0.309125
0.0459039
0.311588
0.049627
0.314322
0.0532226
0.31734
0.056684
0.320654
0.0600014
0.324276
0.0631627
0.328215
0.0661533
0.332479
0.0689573
0.337073
0.0715574
0.341999
0.0739358
0.347253
0.0760746
0.352828
0.0779569
0.35871
0.0795668
0.36488
0.0808907
0.371312
0.0819179
0.377974
0.0826409
0.384829
0.0830567
0.391834
0.0831666
0.398943
0.082977
0.406108
0.0824984
0.0817514
0.413279
0.304654
0.00540896
0.305157
0.0104755
0.305896
0.0152589
0.306865
0.0198049
0.308064
0.0241474
0.309495
0.028312
0.31116
0.032318
0.313066
0.0361788
0.31522
0.0399029
0.31763
0.0434941
0.320304
0.0469524
0.323253
0.0502742
0.326483
0.0534531
0.330005
0.05648
0.333824
0.059344
0.337945
0.0620324
0.34237
0.0645314
0.347101
0.0668268
0.352132
0.0689043
0.357457
0.0707501
0.363062
0.0723514
0.368932
0.0736972
0.375044
0.0747789
0.381371
0.0755903
0.387883
0.0761289
0.394545
0.0763953
0.401317
0.0763943
0.40816
0.0761344
0.415031
0.0756273
0.0748926
0.421889
0.312046
0.00512074
0.312606
0.00991602
0.313426
0.0144392
0.314499
0.0187316
0.315822
0.022824
0.317395
0.0267394
0.319218
0.0304946
0.321295
0.0341017
0.323631
0.0375677
0.326229
0.0408957
0.329096
0.0440853
0.332237
0.0471332
0.335657
0.0500331
0.33936
0.0527773
0.343348
0.0553559
0.347622
0.0577584
0.35218
0.0599734
0.357017
0.0619894
0.362126
0.0637954
0.367495
0.065381
0.373109
0.0667373
0.378949
0.0678573
0.384992
0.0687359
0.391212
0.069371
0.397578
0.0697629
0.404058
0.0699153
0.410617
0.0698346
0.417221
0.0695306
0.423833
0.0690154
0.0683069
0.430419
0.319616
0.00480469
0.320229
0.00930289
0.321126
0.0135423
0.322297
0.0175599
0.323738
0.0213832
0.325445
0.0250328
0.327416
0.0285235
0.329652
0.0318656
0.332154
0.0350653
0.334925
0.038125
0.337966
0.0410442
0.34128
0.0438197
0.344867
0.0464461
0.348728
0.0489166
0.35286
0.051223
0.357262
0.0533566
0.361927
0.0553083
0.366848
0.0570692
0.372012
0.0586311
0.377406
0.0599868
0.383013
0.0611304
0.388812
0.0620579
0.394781
0.0627673
0.400893
0.063259
0.40712
0.0635357
0.413433
0.0636026
0.4198
0.0634673
0.426191
0.0631399
0.432574
0.062632
0.0619601
0.438921
0.327366
0.00446218
0.32803
0.00863878
0.329
0.0125721
0.330265
0.016295
0.331816
0.019832
0.333648
0.0232009
0.335757
0.0264148
0.33814
0.0294826
0.340796
0.0324094
0.343723
0.0351975
0.346921
0.037846
0.350389
0.0403523
0.354123
0.0427118
0.358121
0.0449187
0.362378
0.0469664
0.366886
0.048848
0.371638
0.0505565
0.376622
0.0520852
0.381825
0.0534284
0.38723
0.0545814
0.39282
0.0555408
0.398573
0.0563049
0.404466
0.056874
0.410475
0.0572501
0.416573
0.0574374
0.422734
0.0574421
0.428929
0.0572722
0.435131
0.0569375
0.441314
0.0564491
0.0558215
0.447453
0.335301
0.00409454
0.336014
0.00792635
0.337053
0.0115327
0.338406
0.0149425
0.340061
0.0181771
0.34201
0.021252
0.344246
0.0241785
0.346764