/*--------------------------------*- C++ -*----------------------------------*\
  =========                 |
  \\      /  F ield         | OpenFOAM: The Open Source CFD Toolbox
   \\    /   O peration     | Website:  https://openfoam.org
    \\  /    A nd           | Version:  7
     \\/     M anipulation  |
\*---------------------------------------------------------------------------*/
FoamFile
{
    version     2.0;
    format      ascii;
    class       volVectorField;
    location    "1.8";
    object      U;
}
// * * * * * * * * * * * * * * * * * * * * * * * * * * * * * * * * * * * * * //

dimensions      [0 1 -1 0 0 0 0];

internalField   nonuniform List<vector> 
2790
(
(9.94397 0.0205325 0)
(9.87565 0.0296072 0)
(9.77504 0.0360194 0)
(9.64914 0.0425962 0)
(9.50362 0.0494353 0)
(9.33941 0.0564874 0)
(9.15566 0.0638834 0)
(8.95151 0.0717866 0)
(8.72609 0.0803363 0)
(8.47845 0.0896591 0)
(8.20738 0.0998819 0)
(7.91149 0.111135 0)
(7.58928 0.123548 0)
(7.23915 0.137248 0)
(6.85949 0.152349 0)
(6.44878 0.168937 0)
(6.00574 0.18705 0)
(5.52946 0.206655 0)
(5.01971 0.227604 0)
(4.47721 0.2496 0)
(3.90401 0.272135 0)
(3.30384 0.294449 0)
(2.68253 0.315502 0)
(2.04817 0.334119 0)
(1.40973 0.35036 0)
(0.796379 0.372464 0)
(0.109942 0.324421 0)
(-0.468945 -0.114118 0)
(-0.453716 -0.295599 0)
(-0.230636 -0.422797 0)
(9.99849 0.040732 0)
(9.98138 0.0624419 0)
(9.93558 0.0792294 0)
(9.86386 0.0967433 0)
(9.7705 0.11527 0)
(9.65648 0.13466 0)
(9.52117 0.155169 0)
(9.36372 0.177157 0)
(9.18333 0.200937 0)
(8.97902 0.226789 0)
(8.74961 0.254988 0)
(8.4937 0.285803 0)
(8.20977 0.319483 0)
(7.89616 0.35624 0)
(7.55117 0.396213 0)
(7.17315 0.439423 0)
(6.7606 0.48571 0)
(6.31239 0.534653 0)
(5.82795 0.585467 0)
(5.3076 0.63689 0)
(4.75296 0.687062 0)
(4.16737 0.733419 0)
(3.55648 0.772632 0)
(2.92902 0.800669 0)
(2.29777 0.813203 0)
(1.69112 0.806537 0)
(1.10572 0.746368 0)
(0.657653 0.547079 0)
(0.184612 0.223078 0)
(-0.00792542 -0.454016 0)
(9.99558 0.0432561 0)
(9.97549 0.075371 0)
(9.93164 0.103496 0)
(9.8646 0.13257 0)
(9.77732 0.163304 0)
(9.6709 0.195687 0)
(9.54501 0.230069 0)
(9.39903 0.266962 0)
(9.2323 0.306855 0)
(9.04403 0.350209 0)
(8.83322 0.397482 0)
(8.59869 0.44913 0)
(8.33908 0.505587 0)
(8.05291 0.567231 0)
(7.73858 0.634338 0)
(7.39447 0.707003 0)
(7.01899 0.785038 0)
(6.61075 0.867839 0)
(6.16869 0.954207 0)
(5.6924 1.04215 0)
(5.18246 1.12865 0)
(4.64092 1.20941 0)
(4.07195 1.27863 0)
(3.48279 1.32865 0)
(2.88456 1.34924 0)
(2.29749 1.32541 0)
(1.73019 1.21967 0)
(1.2149 0.972113 0)
(0.700263 0.569559 0)
(0.357261 -0.157428 0)
(9.99401 0.0495677 0)
(9.97174 0.0933446 0)
(9.92772 0.13378 0)
(9.86195 0.174485 0)
(9.77647 0.216773 0)
(9.67233 0.26106 0)
(9.54945 0.307882 0)
(9.40739 0.357912 0)
(9.24567 0.411822 0)
(9.06373 0.470261 0)
(8.86082 0.533869 0)
(8.63608 0.603288 0)
(8.38849 0.679138 0)
(8.11693 0.761984 0)
(7.82021 0.852275 0)
(7.49704 0.950254 0)
(7.14614 1.05583 0)
(6.76624 1.1684 0)
(6.35624 1.28663 0)
(5.91535 1.40813 0)
(5.44334 1.52916 0)
(4.94093 1.64418 0)
(4.41027 1.74544 0)
(3.85561 1.8223 0)
(3.28344 1.86025 0)
(2.70434 1.83903 0)
(2.12393 1.72463 0)
(1.55292 1.47658 0)
(0.957098 1.08254 0)
(0.509095 0.501075 0)
(9.99329 0.0573015 0)
(9.96987 0.111137 0)
(9.92577 0.162371 0)
(9.86116 0.213702 0)
(9.77752 0.266794 0)
(9.67569 0.322427 0)
(9.55566 0.381282 0)
(9.4171 0.444126 0)
(9.25961 0.511739 0)
(9.08271 0.584884 0)
(8.88582 0.664315 0)
(8.66824 0.750787 0)
(8.4292 0.845035 0)
(8.16783 0.947738 0)
(7.88324 1.05946 0)
(7.57446 1.18056 0)
(7.2405 1.31105 0)
(6.88034 1.4504 0)
(6.49295 1.59727 0)
(6.0774 1.74917 0)
(5.63287 1.90203 0)
(5.15895 2.04969 0)
(4.65577 2.1833 0)
(4.12444 2.29061 0)
(3.56691 2.35519 0)
(2.98673 2.35574 0)
(2.38505 2.26324 0)
(1.76502 2.0459 0)
(1.08913 1.68968 0)
(0.536318 1.15236 0)
(9.993 0.0656462 0)
(9.96916 0.128919 0)
(9.9254 0.190441 0)
(9.86223 0.252277 0)
(9.78082 0.316113 0)
(9.68178 0.382946 0)
(9.56512 0.453585 0)
(9.43059 0.528881 0)
(9.27782 0.609715 0)
(9.10641 0.696958 0)
(8.91586 0.791471 0)
(8.70555 0.894112 0)
(8.47484 1.00572 0)
(8.22298 1.12706 0)
(7.94923 1.25881 0)
(7.65278 1.40142 0)
(7.33276 1.555 0)
(6.98825 1.71914 0)
(6.61823 1.89262 0)
(6.22153 2.07305 0)
(5.79685 2.2564 0)
(5.34271 2.43646 0)
(4.85754 2.60415 0)
(4.33977 2.74687 0)
(3.78776 2.8479 0)
(3.20028 2.88629 0)
(2.57469 2.83612 0)
(1.91204 2.6694 0)
(1.17187 2.37174 0)
(0.549625 1.89207 0)
(9.99295 0.0742021 0)
(9.96919 0.146571 0)
(9.9262 0.21787 0)
(9.86478 0.289805 0)
(9.78595 0.363988 0)
(9.69018 0.44157 0)
(9.57745 0.523502 0)
(9.44757 0.610737 0)
(9.30025 0.704248 0)
(9.1351 0.805003 0)
(8.95169 0.913962 0)
(8.74947 1.03207 0)
(8.52783 1.16025 0)
(8.2861 1.29936 0)
(8.02358 1.45017 0)
(7.73946 1.61322 0)
(7.43289 1.78875 0)
(7.10286 1.97652 0)
(6.74817 2.17551 0)
(6.36734 2.38364 0)
(5.95846 2.59724 0)
(5.51909 2.81053 0)
(5.04614 3.01494 0)
(4.53585 3.19838 0)
(3.98381 3.34474 0)
(3.38544 3.43371 0)
(2.73522 3.44078 0)
(2.03472 3.33879 0)
(1.24082 3.11076 0)
(0.56315 2.69024 0)
(9.99305 0.0827352 0)
(9.96974 0.163904 0)
(9.9279 0.244498 0)
(9.86854 0.326073 0)
(9.79265 0.410178 0)
(9.70058 0.498067 0)
(9.59232 0.590815 0)
(9.46772 0.68947 0)
(9.32653 0.795093 0)
(9.16843 0.908739 0)
(8.99302 1.03145 0)
(8.79981 1.16428 0)
(8.58823 1.30821 0)
(8.35764 1.46423 0)
(8.10732 1.63318 0)
(7.83644 1.81575 0)
(7.54404 2.01235 0)
(7.22893 2.22296 0)
(6.88965 2.4469 0)
(6.52425 2.68252 0)
(6.13018 2.92681 0)
(5.70401 3.17482 0)
(5.24129 3.41899 0)
(4.73634 3.64838 0)
(4.18236 3.84799 0)
(3.57204 3.99824 0)
(2.8973 4.07492 0)
(2.16045 4.04914 0)
(1.31511 3.89828 0)
(0.58282 3.53661 0)
(9.99324 0.0910955 0)
(9.97065 0.180747 0)
(9.93029 0.270176 0)
(9.87331 0.360916 0)
(9.8007 0.45448 0)
(9.71275 0.55219 0)
(9.60946 0.655224 0)
(9.49071 0.764723 0)
(9.35631 0.881824 0)
(9.20599 1.00767 0)
(9.03941 1.14338 0)
(8.85612 1.2901 0)
(8.65561 1.44892 0)
(8.43725 1.62091 0)
(8.20032 1.80707 0)
(7.94394 2.00825 0)
(7.66702 2.22508 0)
(7.3682 2.45784 0)
(7.04568 2.70629 0)
(6.69706 2.96943 0)
(6.31911 3.2451 0)
(5.90746 3.5295 0)
(5.45632 3.81653 0)
(4.9582 4.09693 0)
(4.40394 4.35729 0)
(3.78337 4.57903 0)
(3.08508 4.73757 0)
(2.31085 4.80062 0)
(1.40951 4.737 0)
(0.613862 4.43769 0)
(9.99351 0.0991795 0)
(9.97183 0.196958 0)
(9.93323 0.294765 0)
(9.87893 0.394174 0)
(9.80992 0.496691 0)
(9.72647 0.60369 0)
(9.6286 0.716435 0)
(9.51622 0.836145 0)
(9.38921 0.964035 0)
(9.24735 1.10132 0)
(9.09036 1.24921 0)
(8.91786 1.40892 0)
(8.72938 1.58167 0)
(8.52434 1.76864 0)
(8.30204 1.97097 0)
(8.06156 2.18971 0)
(7.80176 2.42579 0)
(7.52109 2.67987 0)
(7.21751 2.95227 0)
(6.88822 3.24275 0)
(6.52941 3.55023 0)
(6.13587 3.87239 0)
(5.70056 4.20501 0)
(5.21421 4.54108 0)
(4.66507 4.8695 0)
(4.03942 5.17343 0)
(3.32084 5.42823 0)
(2.50764 5.59745 0)
(1.54057 5.63866 0)
(0.663547 5.41302 0)
(9.99383 0.106912 0)
(9.97323 0.21242 0)
(9.93662 0.318135 0)
(9.88527 0.425696 0)
(9.82014 0.536628 0)
(9.74155 0.652346 0)
(9.6495 0.774182 0)
(9.54397 0.903428 0)
(9.42487 1.04137 0)
(9.29208 1.18928 0)
(9.14538 1.34846 0)
(8.98445 1.5202 0)
(8.80891 1.70581 0)
(8.61824 1.90662 0)
(8.41177 2.12394 0)
(8.18865 2.35904 0)
(7.94768 2.61316 0)
(7.6873 2.88742 0)
(7.40531 3.18278 0)
(7.09871 3.49989 0)
(6.76329 3.83896 0)
(6.39324 4.19941 0)
(5.98053 4.57937 0)
(5.51426 4.97478 0)
(4.97989 5.37802 0)
(4.35928 5.77551 0)
(3.62859 6.1444 0)
(2.77763 6.44537 0)
(1.73194 6.6228 0)
(0.744242 6.49717 0)
(9.99419 0.114234 0)
(9.9748 0.227036 0)
(9.94038 0.340168 0)
(9.8922 0.455347 0)
(9.83124 0.574127 0)
(9.7578 0.69796 0)
(9.67193 0.828234 0)
(9.57365 0.966301 0)
(9.46295 1.1135 0)
(9.33977 1.27118 0)
(9.20396 1.44069 0)
(9.05531 1.62341 0)
(8.89351 1.82075 0)
(8.71816 2.03416 0)
(8.52868 2.26511 0)
(8.32429 2.51513 0)
(8.10391 2.78578 0)
(7.86603 3.07866 0)
(7.60851 3.39541 0)
(7.32837 3.73766 0)
(7.02137 4.10702 0)
(6.68148 4.5049 0)
(6.30023 4.93221 0)
(5.86557 5.38868 0)
(5.36058 5.87168 0)
(4.76222 6.37364 0)
(4.03679 6.87775 0)
(3.15849 7.34729 0)
(2.02295 7.71647 0)
(0.880041 7.75012 0)
(9.99458 0.121102 0)
(9.9765 0.240727 0)
(9.94444 0.360765 0)
(9.89964 0.483009 0)
(9.84306 0.609045 0)
(9.77504 0.74036 0)
(9.69566 0.878386 0)
(9.60499 1.02452 0)
(9.50308 1.18016 0)
(9.38996 1.34668 0)
(9.26557 1.52551 0)
(9.12979 1.71809 0)
(8.98245 1.92592 0)
(8.82325 2.15055 0)
(8.65177 2.39363 0)
(8.46739 2.6569 0)
(8.26923 2.94224 0)
(8.05597 3.2517 0)
(7.82578 3.58761 0)
(7.57596 3.95255 0)
(7.30267 4.34956 0)
(7.00033 4.78211 0)
(6.6608 5.25416 0)
(6.27213 5.77001 0)
(5.81637 6.33365 0)
(5.26691 6.94722 0)
(4.57978 7.60731 0)
(3.70635 8.29361 0)
(2.48601 8.95024 0)
(1.12367 9.28505 0)
(9.99499 0.12748 0)
(9.9783 0.253429 0)
(9.94873 0.379842 0)
(9.90748 0.50858 0)
(9.85548 0.641264 0)
(9.7931 0.779409 0)
(9.72045 0.924477 0)
(9.63768 1.07791 0)
(9.5449 1.24112 0)
(9.44221 1.41555 0)
(9.32966 1.60265 0)
(9.20725 1.80392 0)
(9.07494 2.02092 0)
(8.93259 2.2553 0)
(8.77996 2.50884 0)
(8.61668 2.78346 0)
(8.44212 3.08131 0)
(8.25537 3.40487 0)
(8.05505 3.757 0)
(7.83911 4.14116 0)
(7.60457 4.56164 0)
(7.34702 5.02382 0)
(7.05986 5.53465 0)
(6.73306 6.10311 0)
(6.35073 6.7409 0)
(5.88735 7.46313 0)
(5.29493 8.28903 0)
(4.50438 9.2393 0)
(3.26621 10.3322 0)
(1.60414 11.3497 0)
(9.99543 0.13334 0)
(9.98019 0.26509 0)
(9.95322 0.397326 0)
(9.91564 0.531967 0)
(9.86838 0.670663 0)
(9.81181 0.814949 0)
(9.7461 0.966314 0)
(9.67145 1.12622 0)
(9.58804 1.29611 0)
(9.49607 1.47744 0)
(9.39569 1.6717 0)
(9.28702 1.8804 0)
(9.17017 2.10517 0)
(9.04519 2.3477 0)
(8.91207 2.60987 0)
(8.7707 2.89374 0)
(8.62084 3.20166 0)
(8.46205 3.53636 0)
(8.29362 3.90114 0)
(8.11441 4.30008 0)
(7.92274 4.73838 0)
(7.71608 5.22285 0)
(7.49063 5.76271 0)
(7.24054 6.37073 0)
(6.9564 7.06535 0)
(6.62282 7.87439 0)
(6.20717 8.84332 0)
(5.66028 10.0553 0)
(4.68735 11.719 0)
(2.68689 14.5821 0)
(0.230974 -0.272253 0)
(0.512031 -0.22605 0)
(0.801908 -0.184081 0)
(1.06053 -0.152566 0)
(1.28292 -0.128629 0)
(1.47634 -0.109491 0)
(1.64716 -0.0936165 0)
(1.79868 -0.0800792 0)
(1.93234 -0.0682336 0)
(2.04895 -0.0577255 0)
(2.14936 -0.0483945 0)
(2.23453 -0.0397876 0)
(2.30415 -0.0313445 0)
(2.35685 -0.023089 0)
(2.39342 -0.0138927 0)
(2.4157 -0.00379098 0)
(2.42507 0.00156111 0)
(2.42268 -0.000312336 0)
(2.41349 -0.00746615 0)
(2.40238 -0.0163647 0)
(2.38856 -0.0229595 0)
(2.36767 -0.0249269 0)
(2.33632 -0.0222497 0)
(2.29543 -0.0163456 0)
(2.25112 -0.00978086 0)
(2.21378 -0.00553332 0)
(2.19624 -0.00563491 0)
(2.20154 -0.00824184 0)
(2.23905 -0.0102769 0)
(2.34783 -0.0151386 0)
(0.146846 -0.501453 0)
(0.402156 -0.442078 0)
(0.646361 -0.370845 0)
(0.86784 -0.313276 0)
(1.06086 -0.268319 0)
(1.23037 -0.231609 0)
(1.38101 -0.200477 0)
(1.51526 -0.173118 0)
(1.63407 -0.148211 0)
(1.7377 -0.125333 0)
(1.82644 -0.105108 0)
(1.90197 -0.0859994 0)
(1.96574 -0.0643068 0)
(2.01364 -0.0461039 0)
(2.04854 -0.0363201 0)
(2.06895 -0.0262162 0)
(2.04454 -0.00994303 0)
(1.97553 0.00624567 0)
(1.86643 0.0208141 0)
(1.72938 0.0347752 0)
(1.57886 0.0488073 0)
(1.42769 0.0613102 0)
(1.28689 0.068902 0)
(1.16587 0.068929 0)
(1.07286 0.0593227 0)
(1.01368 0.0401816 0)
(0.994425 0.0174738 0)
(1.0068 -0.00719913 0)
(1.074 -0.0430681 0)
(1.25759 -0.0892437 0)
(0.0908475 -0.735798 0)
(0.285552 -0.672194 0)
(0.452824 -0.575146 0)
(0.609242 -0.491841 0)
(0.742974 -0.424888 0)
(0.857886 -0.369294 0)
(0.956658 -0.321803 0)
(1.04084 -0.279691 0)
(1.11073 -0.240629 0)
(1.16561 -0.203499 0)
(1.20402 -0.171706 0)
(1.22513 -0.148911 0)
(1.24311 -0.125069 0)
(1.23243 -0.0859312 0)
(1.12724 -0.0368513 0)
(0.981781 0.0156727 0)
(0.851946 0.0695773 0)
(0.717919 0.112471 0)
(0.574938 0.139888 0)
(0.428585 0.153714 0)
(0.288608 0.156591 0)
(0.161039 0.150312 0)
(0.0516264 0.135441 0)
(-0.0330649 0.113274 0)
(-0.0883748 0.0847196 0)
(-0.10586 0.0476667 0)
(-0.0958012 0.00220601 0)
(-0.0202699 -0.0566246 0)
(0.0898405 -0.13741 0)
(0.301644 -0.200444 0)
(0.0460613 -0.878897 0)
(0.168893 -0.802857 0)
(0.248367 -0.683568 0)
(0.330528 -0.581394 0)
(0.392099 -0.497235 0)
(0.438854 -0.426026 0)
(0.470791 -0.364875 0)
(0.488711 -0.310571 0)
(0.492415 -0.26057 0)
(0.481448 -0.211904 0)
(0.460109 -0.160527 0)
(0.377491 -0.0983924 0)
(0.210526 -0.0234459 0)
(0.0740232 0.0496999 0)
(-0.0278696 0.102459 0)
(-0.138004 0.138614 0)
(-0.248723 0.169733 0)
(-0.360781 0.197853 0)
(-0.470465 0.216139 0)
(-0.573512 0.221969 0)
(-0.665616 0.215963 0)
(-0.743014 0.199418 0)
(-0.802247 0.172978 0)
(-0.840221 0.136335 0)
(-0.852899 0.0901276 0)
(-0.837214 0.0339835 0)
(-0.800074 -0.0339811 0)
(-0.730121 -0.11183 0)
(-0.65251 -0.18922 0)
(-0.587899 -0.242261 0)
(0.00228539 -0.944066 0)
(0.0455948 -0.850675 0)
(0.0336861 -0.714782 0)
(0.0346429 -0.600789 0)
(0.0156252 -0.502794 0)
(-0.0154428 -0.418117 0)
(-0.0622592 -0.343144 0)
(-0.126331 -0.273244 0)
(-0.211351 -0.203764 0)
(-0.319562 -0.130847 0)
(-0.446215 -0.0549754 0)
(-0.572436 0.0138565 0)
(-0.668245 0.064394 0)
(-0.765972 0.10946 0)
(-0.86469 0.157551 0)
(-0.962862 0.199623 0)
(-1.05737 0.232497 0)
(-1.14551 0.256685 0)
(-1.22497 0.26915 0)
(-1.29405 0.268022 0)
(-1.3512 0.253698 0)
(-1.39484 0.227372 0)
(-1.4238 0.189947 0)
(-1.43738 0.14206 0)
(-1.4349 0.0849913 0)
(-1.41607 0.0192498 0)
(-1.38353 -0.0562763 0)
(-1.3397 -0.137974 0)
(-1.29935 -0.214645 0)
(-1.27709 -0.267939 0)
(-0.0452264 -0.922718 0)
(-0.0870218 -0.807332 0)
(-0.186158 -0.663549 0)
(-0.272923 -0.542704 0)
(-0.372449 -0.436906 0)
(-0.480298 -0.343781 0)
(-0.597095 -0.258668 0)
(-0.721345 -0.179542 0)
(-0.84972 -0.105402 0)
(-0.97868 -0.0360824 0)
(-1.09481 0.0260747 0)
(-1.19312 0.0819362 0)
(-1.29192 0.133369 0)
(-1.38824 0.180162 0)
(-1.48034 0.222713 0)
(-1.56646 0.258749 0)
(-1.64473 0.285971 0)
(-1.71335 0.30291 0)
(-1.77125 0.307483 0)
(-1.8182 0.298526 0)
(-1.85428 0.276432 0)
(-1.87963 0.242352 0)
(-1.89456 0.197397 0)
(-1.89952 0.142556 0)
(-1.89485 0.0790226 0)
(-1.88084 0.00764807 0)
(-1.85786 -0.0713628 0)
(-1.83229 -0.153388 0)
(-1.81224 -0.228955 0)
(-1.80487 -0.28211 0)
(-0.0996981 -0.814955 0)
(-0.221778 -0.684489 0)
(-0.400284 -0.540834 0)
(-0.56243 -0.41972 0)
(-0.725187 -0.314962 0)
(-0.88414 -0.223533 0)
(-1.03757 -0.142172 0)
(-1.18385 -0.0685939 0)
(-1.32079 -0.00197893 0)
(-1.43912 0.0559858 0)
(-1.54696 0.108652 0)
(-1.65044 0.157711 0)
(-1.74889 0.203707 0)
(-1.84095 0.245411 0)
(-1.92526 0.281471 0)
(-2.00063 0.310108 0)
(-2.06606 0.32959 0)
(-2.12082 0.33842 0)
(-2.16486 0.335163 0)
(-2.19881 0.319177 0)
(-2.22366 0.290896 0)
(-2.24042 0.251356 0)
(-2.25 0.201613 0)
(-2.25313 0.142575 0)
(-2.25036 0.0751342 0)
(-2.24252 0.000326857 0)
(-2.22928 -0.0801909 0)
(-2.21733 -0.161615 0)
(-2.21114 -0.235674 0)
(-2.21186 -0.287135 0)
(-0.157462 -0.629278 0)
(-0.35036 -0.49242 0)
(-0.593795 -0.358855 0)
(-0.810589 -0.250337 0)
(-1.01282 -0.157786 0)
(-1.1979 -0.0780336 0)
(-1.36466 -0.0097315 0)
(-1.51097 0.0477175 0)
(-1.64 0.098214 0)
(-1.76058 0.145702 0)
(-1.87272 0.190851 0)
(-1.9768 0.233073 0)
(-2.0725 0.271763 0)
(-2.15925 0.305863 0)
(-2.23634 0.333986 0)
(-2.30319 0.3545 0)
(-2.35946 0.365903 0)
(-2.40517 0.366933 0)
(-2.44089 0.356621 0)
(-2.46774 0.334663 0)
(-2.48713 0.301511 0)
(-2.50044 0.258036 0)
(-2.50888 0.205109 0)
(-2.51333 0.143432 0)
(-2.51443 0.0736787 0)
(-2.513 -0.00294339 0)
(-2.50961 -0.0836747 0)
(-2.50937 -0.164025 0)
(-2.51435 -0.236205 0)
(-2.52073 -0.285225 0)
(-0.215707 -0.385775 0)
(-0.470555 -0.25482 0)
(-0.76017 -0.133038 0)
(-1.00562 -0.0404405 0)
(-1.22007 0.0266195 0)
(-1.40748 0.0784483 0)
(-1.57236 0.122053 0)
(-1.72163 0.162614 0)
(-1.85729 0.201193 0)
(-1.98102 0.238367 0)
(-2.09353 0.273809 0)
(-2.19548 0.306923 0)
(-2.28711 0.336772 0)
(-2.36843 0.362161 0)
(-2.43929 0.381697 0)
(-2.49961 0.393892 0)
(-2.54955 0.397417 0)
(-2.58956 0.391227 0)
(-2.62056 0.374669 0)
(-2.64389 0.34765 0)
(-2.66112 0.310627 0)
(-2.67387 0.264324 0)
(-2.68354 0.209392 0)
(-2.6912 0.146278 0)
(-2.69759 0.0754875 0)
(-2.70342 -0.00163271 0)
(-2.70968 -0.0820515 0)
(-2.72029 -0.161172 0)
(-2.73513 -0.231376 0)
(-2.74621 -0.277955 0)
(-0.258506 -0.0136742 0)
(-0.546076 0.0842603 0)
(-0.853464 0.139203 0)
(-1.10906 0.176791 0)
(-1.33334 0.20736 0)
(-1.52987 0.233656 0)
(-1.70311 0.258099 0)
(-1.85675 0.282212 0)
(-1.99371 0.306475 0)
(-2.11623 0.331007 0)
(-2.22582 0.355153 0)
(-2.32357 0.377963 0)
(-2.4102 0.39823 0)
(-2.48613 0.414568 0)
(-2.55162 0.425513 0)
(-2.60696 0.429653 0)
(-2.65256 0.425788 0)
(-2.68912 0.413055 0)
(-2.71772 0.391016 0)
(-2.73977 0.359729 0)
(-2.75694 0.319657 0)
(-2.77095 0.271408 0)
(-2.78346 0.215431 0)
(-2.79572 0.151887 0)
(-2.80853 0.0810387 0)
(-2.82257 0.00421031 0)
(-2.83845 -0.0754594 0)
(-2.85959 -0.153317 0)
(-2.88371 -0.221745 0)
(-2.89915 -0.266342 0)
(-0.262805 0.347877 0)
(-0.57034 0.393111 0)
(-0.899336 0.402046 0)
(-1.17153 0.401852 0)
(-1.40511 0.398637 0)
(-1.60518 0.396248 0)
(-1.77791 0.396907 0)
(-1.92845 0.401559 0)
(-2.0608 0.409798 0)
(-2.17783 0.420662 0)
(-2.2815 0.432889 0)
(-2.37321 0.445102 0)
(-2.45398 0.45578 0)
(-2.52452 0.463306 0)
(-2.5853 0.466099 0)
(-2.63679 0.462754 0)
(-2.67953 0.45216 0)
(-2.7143 0.433596 0)
(-2.74218 0.406794 0)
(-2.76459 0.371939 0)
(-2.7832 0.329527 0)
(-2.79987 0.280101 0)
(-2.81645 0.223938 0)
(-2.83444 0.1609 0)
(-2.85466 0.0908636 0)
(-2.87757 0.0148812 0)
(-2.90362 -0.0637998 0)
(-2.93539 -0.140484 0)
(-2.96874 -0.207538 0)
(-2.98857 -0.250801 0)
(-0.273969 0.723503 0)
(-0.604837 0.734229 0)
(-0.950001 0.686825 0)
(-1.22445 0.635266 0)
(-1.45279 0.590527 0)
(-1.64372 0.555481 0)
(-1.80556 0.53046 0)
(-1.94489 0.514936 0)
(-2.0666 0.507065 0)
(-2.17385 0.504496 0)
(-2.26865 0.505181 0)
(-2.35248 0.50732 0)
(-2.4265 0.509072 0)
(-2.49153 0.508541 0)
(-2.54812 0.503983 0)
(-2.59674 0.493962 0)
(-2.63792 0.477432 0)
(-2.67238 0.453789 0)
(-2.70109 0.422918 0)
(-2.72538 0.385142 0)
(-2.74688 0.341039 0)
(-2.76753 0.291138 0)
(-2.78938 0.235591 0)
(-2.81417 0.173943 0)
(-2.84275 0.105526 0)
(-2.87531 0.0309076 0)
(-2.91234 -0.0467804 0)
(-2.95511 -0.122546 0)
(-2.99805 -0.18875 0)
(-3.02252 -0.231375 0)
(-0.304006 1.14301 0)
(-0.66771 1.10154 0)
(-1.02128 0.975291 0)
(-1.27987 0.859307 0)
(-1.48488 0.769084 0)
(-1.65209 0.700831 0)
(-1.79169 0.650587 0)
(-1.91114 0.616277 0)
(-2.01601 0.594101 0)
(-2.10921 0.579684 0)
(-2.19216 0.57016 0)
(-2.26613 0.563518 0)
(-2.33232 0.557663 0)
(-2.39159 0.550358 0)
(-2.44441 0.539637 0)
(-2.49111 0.524026 0)
(-2.5321 0.502536 0)
(-2.5679 0.474663 0)
(-2.59929 0.440435 0)
(-2.62735 0.400343 0)
(-2.65357 0.355101 0)
(-2.67983 0.305297 0)
(-2.70836 0.251033 0)
(-2.74117 0.191569 0)
(-2.77919 0.125544 0)
(-2.82236 0.0527205 0)
(-2.87127 -0.0240922 0)
(-2.92562 -0.0993153 0)
(-2.9788 -0.165223 0)
(-3.00839 -0.207904 0)
(-0.365743 1.62001 0)
(-0.783345 1.49869 0)
(-1.13583 1.25175 0)
(-1.34963 1.0522 0)
(-1.50619 0.917952 0)
(-1.6334 0.821041 0)
(-1.73895 0.74863 0)
(-1.8294 0.699211 0)
(-1.91126 0.666845 0)
(-1.98638 0.643535 0)
(-2.05445 0.625933 0)
(-2.11623 0.612502 0)
(-2.17314 0.601065 0)
(-2.22606 0.588864 0)
(-2.27529 0.573622 0)
(-2.32092 0.553849 0)
(-2.36319 0.528621 0)
(-2.40237 0.497508 0)
(-2.43887 0.460664 0)
(-2.47336 0.418794 0)
(-2.50695 0.372845 0)
(-2.54129 0.323548 0)
(-2.57856 0.271048 0)
(-2.62108 0.214414 0)
(-2.66992 0.151468 0)
(-2.72477 0.0807523 0)
(-2.78611 0.00461922 0)
(-2.85315 -0.0704917 0)
(-2.91748 -0.136546 0)
(-2.95286 -0.179883 0)
(-0.508179 2.38842 0)
(-0.993648 2.04418 0)
(-1.33301 1.52052 0)
(-1.44657 1.175 0)
(-1.51463 1.01347 0)
(-1.58612 0.90537 0)
(-1.64735 0.816164 0)
(-1.69917 0.756964 0)
(-1.75226 0.721683 0)
(-1.80619 0.693505 0)
(-1.85629 0.670179 0)
(-1.90279 0.6524 0)
(-1.94805 0.638126 0)
(-1.99325 0.623539 0)
(-2.03828 0.605894 0)
(-2.08304 0.583836 0)
(-2.12771 0.556554 0)
(-2.17241 0.523621 0)
(-2.21709 0.485252 0)
(-2.2618 0.442362 0)
(-2.30691 0.396159 0)
(-2.35337 0.347575 0)
(-2.40291 0.296947 0)
(-2.45794 0.243446 0)
(-2.51979 0.184096 0)
(-2.58762 0.115766 0)
(-2.66163 0.0402649 0)
(-2.74313 -0.0352821 0)
(-2.81976 -0.101877 0)
(-2.8619 -0.146521 0)
(9.99589 0.138756 0)
(9.98218 0.275867 0)
(9.95793 0.413474 0)
(9.92422 0.553539 0)
(9.88192 0.697735 0)
(9.83144 0.847611 0)
(9.77301 1.00467 0)
(9.70688 1.17038 0)
(9.63332 1.34619 0)
(9.55261 1.53358 0)
(9.46502 1.73403 0)
(9.37082 1.94907 0)
(9.27028 2.18034 0)
(9.16364 2.42956 0)
(9.05116 2.69864 0)
(8.93307 2.9897 0)
(8.80955 3.30519 0)
(8.68075 3.64798 0)
(8.54673 4.02157 0)
(8.40752 4.43032 0)
(8.26305 4.87984 0)
(8.11322 5.37756 0)
(7.95802 5.93362 0)
(7.79775 6.56232 0)
(7.63372 7.28467 0)
(7.47105 8.1332 0)
(7.32328 9.16178 0)
(7.28113 10.4639 0)
(7.74508 12.1843 0)
(7.94183 14.8991 0)
(9.99637 0.143737 0)
(9.98427 0.285765 0)
(9.96288 0.428268 0)
(9.9332 0.573238 0)
(9.89607 0.722364 0)
(9.8519 0.877198 0)
(9.80099 1.03924 0)
(9.74365 1.20997 0)
(9.68022 1.39083 0)
(9.6111 1.58328 0)
(9.53667 1.78879 0)
(9.45733 2.00888 0)
(9.37353 2.24517 0)
(9.28575 2.49935 0)
(9.1945 2.77333 0)
(9.10037 3.06919 0)
(9.004 3.38935 0)
(8.90615 3.73665 0)
(8.80773 4.11451 0)
(8.70992 4.52719 0)
(8.61434 4.98006 0)
(8.52336 5.48011 0)
(8.44071 6.03662 0)
(8.37269 6.6621 0)
(8.33052 7.37367 0)
(8.33637 8.19458 0)
(8.42928 9.15471 0)
(8.66534 10.2868 0)
(9.31351 11.5345 0)
(9.80726 12.6086 0)
(9.99687 0.148196 0)
(9.98643 0.294621 0)
(9.96802 0.441486 0)
(9.94251 0.5908 0)
(9.91071 0.744253 0)
(9.87306 0.903394 0)
(9.82988 1.06971 0)
(9.78156 1.24467 0)
(9.72852 1.42968 0)
(9.67123 1.62618 0)
(9.61021 1.8356 0)
(9.54599 2.05942 0)
(9.47921 2.29919 0)
(9.41055 2.55656 0)
(9.34081 2.83332 0)
(9.27092 3.13147 0)
(9.20195 3.45325 0)
(9.13525 3.8013 0)
(9.07251 4.17871 0)
(9.01592 4.58921 0)
(8.96851 5.03739 0)
(8.93455 5.52886 0)
(8.92033 6.07056 0)
(8.93536 6.67079 0)
(8.99412 7.33888 0)
(9.11873 8.08327 0)
(9.3401 8.90551 0)
(9.66745 9.79394 0)
(10.2296 10.6963 0)
(10.9117 11.4009 0)
(9.99738 0.152079 0)
(9.98867 0.302327 0)
(9.9733 0.45296 0)
(9.95208 0.605991 0)
(9.92574 0.763102 0)
(9.89474 0.925824 0)
(9.85945 1.09562 0)
(9.82031 1.27393 0)
(9.77781 1.46212 0)
(9.73252 1.66158 0)
(9.68505 1.87368 0)
(9.63607 2.09982 0)
(9.58639 2.34147 0)
(9.53688 2.60014 0)
(9.4886 2.8775 0)
(9.44277 3.17533 0)
(9.40088 3.49563 0)
(9.36473 3.84063 0)
(9.33663 4.21292 0)
(9.31953 4.61542 0)
(9.31734 5.05153 0)
(9.33535 5.52503 0)
(9.38079 6.04001 0)
(9.4635 6.60035 0)
(9.59664 7.20873 0)
(9.79691 7.86467 0)
(10.0869 8.56089 0)
(10.4749 9.28248 0)
(11.0272 10.0192 0)
(11.8127 10.6579 0)
(9.99791 0.155341 0)
(9.99094 0.30879 0)
(9.97868 0.462556 0)
(9.96182 0.618636 0)
(9.94102 0.778692 0)
(9.91676 0.944227 0)
(9.88945 1.11667 0)
(9.85957 1.2974 0)
(9.82768 1.48776 0)
(9.79443 1.68904 0)
(9.76051 1.90253 0)
(9.72672 2.12955 0)
(9.69401 2.37141 0)
(9.66342 2.6295 0)
(9.63621 2.90525 0)
(9.61385 3.20019 0)
(9.59812 3.51596 0)
(9.59118 3.85433 0)
(9.59571 4.2172 0)
(9.61509 4.60661 0)
(9.6536 5.02461 0)
(9.71674 5.47321 0)
(9.81156 5.95398 0)
(9.94693 6.46756 0)
(10.1338 7.01281 0)
(10.3852 7.58581 0)
(10.7182 8.17837 0)
(11.1442 8.7758 0)
(11.6859 9.36658 0)
(12.4308 9.87605 0)
(9.99844 0.157936 0)
(9.99324 0.313925 0)
(9.98411 0.470145 0)
(9.97165 0.628566 0)
(9.95643 0.790816 0)
(9.93894 0.958359 0)
(9.91962 1.13258 0)
(9.899 1.31479 0)
(9.87769 1.50625 0)
(9.85638 1.70819 0)
(9.83586 1.92179 0)
(9.81704 2.14822 0)
(9.80094 2.38867 0)
(9.78877 2.6443 0)
(9.78191 2.91631 0)
(9.78202 3.20592 0)
(9.79104 3.51437 0)
(9.81134 3.8429 0)
(9.84576 4.19271 0)
(9.89776 4.56491 0)
(9.97161 4.96039 0)
(10.0725 5.37961 0)
(10.2067 5.82228 0)
(10.3817 6.28692 0)
(10.6062 6.77027 0)
(10.8899 7.26653 0)
(11.2437 7.76652 0)
(11.6755 8.25473 0)
(12.1859 8.71457 0)
(12.8538 9.1047 0)
(9.99897 0.159827 0)
(9.99554 0.317655 0)
(9.98955 0.475615 0)
(9.98148 0.635633 0)
(9.97184 0.799295 0)
(9.96109 0.968011 0)
(9.9497 1.1431 0)
(9.93824 1.32581 0)
(9.92736 1.51732 0)
(9.91779 1.71875 0)
(9.91038 1.93116 0)
(9.9061 2.15558 0)
(9.90606 2.39301 0)
(9.91154 2.6444 0)
(9.92402 2.91069 0)
(9.94522 3.19277 0)
(9.97719 3.49143 0)
(10.0223 3.80741 0)
(10.0834 4.14125 0)
(10.1637 4.49325 0)
(10.2673 4.8633 0)
(10.3986 5.25069 0)
(10.5629 5.65384 0)
(10.7662 6.06994 0)
(11.0147 6.49452 0)
(11.3147 6.92093 0)
(11.6723 7.33984 0)
(12.0915 7.73794 0)
(12.5661 8.10079 0)
(13.1644 8.40807 0)
(9.9995 0.160979 0)
(9.99783 0.319911 0)
(9.99496 0.478866 0)
(9.99124 0.639711 0)
(9.98711 0.803976 0)
(9.983 0.973009 0)
(9.97942 1.14806 0)
(9.97694 1.33029 0)
(9.97623 1.52078 0)
(9.97807 1.72053 0)
(9.98333 1.93049 0)
(9.99301 2.15151 0)
(10.0083 2.38441 0)
(10.0304 2.62992 0)
(10.0609 2.8887 0)
(10.1016 3.16129 0)
(10.1544 3.44812 0)
(10.2215 3.74941 0)
(10.3058 4.06514 0)
(10.41 4.39494 0)
(10.5378 4.73796 0)
(10.6927 5.09266 0)
(10.879 5.45667 0)
(11.1009 5.8265 0)
(11.3626 6.19725 0)
(11.6679 6.56243 0)
(12.0195 6.91381 0)
(12.4189 7.24119 0)
(12.8584 7.53354 0)
(13.3953 7.77971 0)
(10 0.161363 0)
(10.0001 0.320639 0)
(10.0003 0.479818 0)
(10.0008 0.640698 0)
(10.0021 0.804739 0)
(10.0045 0.973219 0)
(10.0085 1.14731 0)
(10.0147 1.32807 0)
(10.0239 1.51649 0)
(10.0366 1.71345 0)
(10.054 1.91973 0)
(10.0769 2.13606 0)
(10.1065 2.36304 0)
(10.1441 2.60118 0)
(10.1912 2.85088 0)
(10.2495 3.11237 0)
(10.3207 3.38572 0)
(10.4071 3.67074 0)
(10.5109 3.96695 0)
(10.6348 4.27348 0)
(10.7815 4.58894 0)
(10.954 4.91134 0)
(11.1553 5.23789 0)
(11.3882 5.56492 0)
(11.6554 5.8877 0)
(11.9586 6.20044 0)
(12.2987 6.49634 0)
(12.6754 6.76765 0)
(13.081 7.00614 0)
(13.5637 7.20505 0)
(10.0005 0.160959 0)
(10.0023 0.319797 0)
(10.0055 0.478411 0)
(10.0102 0.638518 0)
(10.0167 0.8015 0)
(10.0254 0.968557 0)
(10.0367 1.14077 0)
(10.0513 1.3191 0)
(10.0698 1.50443 0)
(10.093 1.69751 0)
(10.1217 1.89899 0)
(10.157 2.10942 0)
(10.1999 2.32922 0)
(10.2516 2.5587 0)
(10.3137 2.79801 0)
(10.3875 3.04712 0)
(10.4749 3.30577 0)
(10.5775 3.57347 0)
(10.6975 3.8494 0)
(10.837 4.13232 0)
(10.998 4.42057 0)
(11.1828 4.7119 0)
(11.3934 5.00347 0)
(11.6316 5.29171 0)
(11.8987 5.57237 0)
(12.1951 5.84054 0)
(12.5206 6.09072 0)
(12.8738 6.31712 0)
(13.2475 6.51375 0)
(13.6833 6.67653 0)
(10.001 0.159751 0)
(10.0044 0.317353 0)
(10.0105 0.474604 0)
(10.0192 0.633123 0)
(10.0308 0.794211 0)
(10.0455 0.958979 0)
(10.0638 1.12841 0)
(10.0863 1.30338 0)
(10.1137 1.48465 0)
(10.1466 1.67283 0)
(10.1859 1.86845 0)
(10.2325 2.07191 0)
(10.2875 2.28345 0)
(10.352 2.50318 0)
(10.4273 2.73105 0)
(10.5147 2.9668 0)
(10.6157 3.20995 0)
(10.7319 3.45975 0)
(10.8648 3.71516 0)
(11.0162 3.97476 0)
(11.1875 4.23672 0)
(11.3802 4.49879 0)
(11.5957 4.75822 0)
(11.8348 5.01177 0)
(12.0979 5.25579 0)
(12.3847 5.48619 0)
(12.6941 5.69872 0)
(13.0243 5.88906 0)
(13.3691 6.05305 0)
(13.7647 6.1882 0)
(10.0015 0.157729 0)
(10.0064 0.313294 0)
(10.0153 0.468377 0)
(10.0278 0.624496 0)
(10.0442 0.782861 0)
(10.0646 0.944494 0)
(10.0895 1.11028 0)
(10.1195 1.28099 0)
(10.1551 1.45727 0)
(10.197 1.63963 0)
(10.2461 1.82845 0)
(10.303 2.02398 0)
(10.3689 2.22632 0)
(10.4446 2.43543 0)
(10.5314 2.65107 0)
(10.6304 2.8728 0)
(10.7427 3.09999 0)
(10.8697 3.33172 0)
(11.0127 3.56682 0)
(11.1726 3.80379 0)
(11.3508 4.04081 0)
(11.548 4.27571 0)
(11.7649 4.50598 0)
(12.0018 4.72879 0)
(12.2583 4.94108 0)
(12.5339 5.13959 0)
(12.8269 5.32104 0)
(13.1353 5.48232 0)
(13.454 5.62054 0)
(13.8151 5.73423 0)
(10.0019 0.154894 0)
(10.0084 0.307618 0)
(10.0198 0.459732 0)
(10.036 0.612647 0)
(10.0569 0.767477 0)
(10.0827 0.925151 0)
(10.1138 1.08646 0)
(10.1506 1.25207 0)
(10.1938 1.42251 0)
(10.244 1.59819 0)
(10.3018 1.77937 0)
(10.368 1.96617 0)
(10.4434 2.15857 0)
(10.5289 2.35637 0)
(10.6255 2.55922 0)
(10.734 2.76656 0)
(10.8556 2.97763 0)
(10.991 3.19144 0)
(11.1413 3.40677 0)
(11.3072 3.62212 0)
(11.4893 3.83576 0)
(11.6882 4.0457 0)
(11.9039 4.24974 0)
(12.1363 4.44546 0)
(12.3848 4.63036 0)
(12.6483 4.8019 0)
(12.9252 4.9576 0)
(13.2135 5.09523 0)
(13.5089 5.21283 0)
(13.8402 5.30955 0)
(10.0024 0.151251 0)
(10.0102 0.300336 0)
(10.0241 0.448691 0)
(10.0437 0.597614 0)
(10.0688 0.748121 0)
(10.0995 0.901046 0)
(10.1363 1.05709 0)
(10.1795 1.21681 0)
(10.2296 1.38064 0)
(10.2872 1.54889 0)
(10.3528 1.72171 0)
(10.4271 1.89911 0)
(10.5108 2.08096 0)
(10.6046 2.26698 0)
(10.7093 2.45671 0)
(10.8257 2.6495 0)
(10.9544 2.84455 0)
(11.0961 3.04084 0)
(11.2515 3.23716 0)
(11.4209 3.43209 0)
(11.6048 3.62403 0)
(11.8031 3.81123 0)
(12.0157 3.99179 0)
(12.2422 4.1637 0)
(12.4816 4.32497 0)
(12.7329 4.47362 0)
(12.9944 4.60784 0)
(13.2643 4.72603 0)
(13.5389 4.82689 0)
(13.8445 4.90998 0)
(10.0027 0.146811 0)
(10.0119 0.291474 0)
(10.0281 0.435297 0)
(10.0508 0.579462 0)
(10.0797 0.724887 0)
(10.1151 0.872314 0)
(10.157 1.02235 0)
(10.206 1.17546 0)
(10.2623 1.33199 0)
(10.3264 1.49214 0)
(10.3989 1.65599 0)
(10.4802 1.82346 0)
(10.571 1.99434 0)
(10.6717 2.16826 0)
(10.783 2.34471 0)
(10.9055 2.52302 0)
(11.0396 2.70234 0)
(11.1857 2.88169 0)
(11.3442 3.05991 0)
(11.5153 3.23571 0)
(11.699 3.40766 0)
(11.8951 3.57424 0)
(12.1033 3.73384 0)
(12.3229 3.88485 0)
(12.5529 4.02567 0)
(12.7921 4.15483 0)
(13.0391 4.27098 0)
(13.2922 4.37302 0)
(13.5483 4.46009 0)
(13.8315 4.53203 0)
(10.0031 0.141592 0)
(10.0134 0.28107 0)
(10.0317 0.419609 0)
(10.0573 0.558278 0)
(10.0898 0.6979 0)
(10.1292 0.839122 0)
(10.1759 0.982463 0)
(10.2299 1.12831 0)
(10.2917 1.27692 0)
(10.3616 1.42842 0)
(10.44 1.58281 0)
(10.5273 1.73994 0)
(10.6239 1.89954 0)
(10.7303 2.0612 0)
(10.8468 2.22439 0)
(10.9738 2.3884 0)
(11.1117 2.55244 0)
(11.2606 2.71556 0)
(11.4207 2.8767 0)
(11.5919 3.03469 0)
(11.774 3.1883 0)
(11.9668 3.33622 0)
(12.1696 3.47714 0)
(12.3817 3.60976 0)
(12.6022 3.73286 0)
(12.8299 3.84531 0)
(13.0633 3.94614 0)
(13.3012 4.03461 0)
(13.5407 4.11017 0)
(13.8042 4.17281 0)
(10.0034 0.135619 0)
(10.0148 0.269169 0)
(10.035 0.401702 0)
(10.0632 0.534172 0)
(10.0989 0.667306 0)
(10.1421 0.801668 0)
(10.1928 0.937692 0)
(10.2514 1.07569 0)
(10.318 1.21585 0)
(10.3928 1.35822 0)
(10.4762 1.50275 0)
(10.5685 1.64924 0)
(10.6698 1.79739 0)
(10.7806 1.94677 0)
(10.9011 2.09681 0)
(11.0314 2.24687 0)
(11.1717 2.39617 0)
(11.322 2.54383 0)
(11.4823 2.68892 0)
(11.6524 2.83041 0)
(11.832 2.96723 0)