/*--------------------------------*- C++ -*----------------------------------*\
  =========                 |
  \\      /  F ield         | OpenFOAM: The Open Source CFD Toolbox
   \\    /   O peration     | Website:  https://openfoam.org
    \\  /    A nd           | Version:  7
     \\/     M anipulation  |
\*---------------------------------------------------------------------------*/
FoamFile
{
    version     2.0;
    format      ascii;
    class       surfaceVectorField;
    location    "1.8";
    object      Uf;
}
// * * * * * * * * * * * * * * * * * * * * * * * * * * * * * * * * * * * * * //

dimensions      [0 1 -1 0 0 0 0];

internalField   nonuniform List<vector> 
5457
(
(9.92084 0.0251241 0)
(9.97123 0.0387654 0)
(9.8239 0.0328516 0)
(9.92852 0.0486246 0)
(9.70938 0.0393471 0)
(9.85531 0.0588278 0)
(9.57505 0.0460566 0)
(9.7565 0.0706725 0)
(9.42081 0.0530035 0)
(9.63706 0.0831112 0)
(9.24677 0.0602296 0)
(9.49795 0.0960515 0)
(9.05262 0.0678822 0)
(9.33842 0.109743 0)
(8.83767 0.0761125 0)
(9.15761 0.124432 0)
(8.60101 0.0850534 0)
(8.95471 0.140321 0)
(8.34149 0.0948316 0)
(8.72873 0.157594 0)
(8.05781 0.105575 0)
(8.47849 0.176433 0)
(7.74851 0.117415 0)
(8.2026 0.197019 0)
(7.41203 0.13048 0)
(7.89952 0.219518 0)
(7.04676 0.144889 0)
(7.56765 0.244069 0)
(6.6511 0.160742 0)
(7.20533 0.270762 0)
(6.22364 0.178102 0)
(6.81096 0.299607 0)
(5.76324 0.196969 0)
(6.38317 0.330492 0)
(5.26934 0.217255 0)
(5.92092 0.363127 0)
(4.74214 0.238734 0)
(5.42383 0.396978 0)
(4.18303 0.261002 0)
(4.89241 0.431192 0)
(3.59493 0.283425 0)
(4.32849 0.464522 0)
(2.98271 0.305101 0)
(3.73561 0.495269 0)
(2.35354 0.324922 0)
(3.1195 0.521292 0)
(1.71688 0.342337 0)
(2.48859 0.540264 0)
(1.08257 0.361544 0)
(1.85375 0.551284 0)
(0.450703 0.348156 0)
(1.24375 0.562445 0)
(-0.145922 0.102531 0)
(0.607831 0.543923 0)
(-0.423326 -0.205943 0)
(0.0943541 0.259017 0)
(-0.401827 -0.359958 0)
(-0.134552 -0.0205596 0)
(-0.119281 -0.393565 0)
(9.99637 0.0517167 0)
(9.99703 0.040544 0)
(9.95867 0.070936 0)
(9.97844 0.067534 0)
(9.89801 0.088091 0)
(9.93361 0.0899898 0)
(9.8162 0.106117 0)
(9.86423 0.113714 0)
(9.71301 0.125081 0)
(9.77391 0.138711 0)
(9.5883 0.145037 0)
(9.66369 0.164877 0)
(9.44173 0.166295 0)
(9.53309 0.192594 0)
(9.27264 0.189189 0)
(9.38138 0.222319 0)
(9.08014 0.214017 0)
(9.20782 0.254457 0)
(8.8631 0.241057 0)
(9.01153 0.289387 0)
(8.62024 0.27058 0)
(8.79142 0.327482 0)
(8.35007 0.302844 0)
(8.5462 0.369113 0)
(8.051 0.338081 0)
(8.27443 0.414632 0)
(7.72134 0.376466 0)
(7.97453 0.46434 0)
(7.3594 0.418076 0)
(7.64487 0.51845 0)
(6.9636 0.462843 0)
(7.28381 0.577022 0)
(6.5326 0.510474 0)
(6.8898 0.639884 0)
(6.06554 0.560364 0)
(6.46157 0.706516 0)
(5.5623 0.611486 0)
(5.99832 0.775916 0)
(5.02387 0.662276 0)
(5.5 0.846436 0)
(4.45277 0.710517 0)
(4.96771 0.915614 0)
(3.85358 0.75326 0)
(4.40415 0.979999 0)
(3.23353 0.786818 0)
(3.81422 1.03502 0)
(2.60348 0.80701 0)
(3.20591 1.07492 0)
(1.98084 0.80983 0)
(2.59117 1.09243 0)
(1.40369 0.776093 0)
(1.99431 1.07618 0)
(0.928174 0.645533 0)
(1.41795 0.977439 0)
(0.438505 0.383142 0)
(0.936278 0.716231 0)
(0.0585867 -0.119515 0)
(0.442438 0.342758 0)
(0.174668 -0.336183 0)
(9.98899 0.0595054 0)
(9.99479 0.0459362 0)
(9.95422 0.0896014 0)
(9.97361 0.084973 0)
(9.89706 0.118206 0)
(9.92968 0.119353 0)
(9.82008 0.148121 0)
(9.86327 0.154213 0)
(9.7236 0.179689 0)
(9.7769 0.190701 0)
(9.60745 0.213083 0)
(9.67161 0.228981 0)
(9.47135 0.248736 0)
(9.54723 0.269519 0)
(9.31484 0.287147 0)
(9.40321 0.312925 0)
(9.1372 0.328791 0)
(9.23899 0.359784 0)
(8.9375 0.374128 0)
(9.05388 0.410654 0)
(8.71464 0.423615 0)
(8.84702 0.466087 0)
(8.46735 0.477696 0)
(8.61738 0.526638 0)
(8.19419 0.536777 0)
(8.36378 0.592841 0)
(7.89362 0.601186 0)
(8.08492 0.665174 0)
(7.56402 0.671105 0)
(7.77939 0.744005 0)
(7.20378 0.746487 0)
(7.44575 0.829511 0)
(6.8114 0.826933 0)
(7.08257 0.921556 0)
(6.38564 0.911539 0)
(6.68849 1.01954 0)
(5.92579 0.998705 0)
(6.26246 1.12219 0)
(5.43194 1.08592 0)
(5.80387 1.2273 0)
(4.90545 1.16951 0)
(5.3129 1.33147 0)
(4.3495 1.24444 0)
(4.79093 1.42975 0)
(3.76989 1.30394 0)
(4.24111 1.51525 0)
(3.17631 1.33907 0)
(3.6692 1.57862 0)
(2.58452 1.33718 0)
(3.084 1.60676 0)
(2.01804 1.27191 0)
(2.50092 1.58043 0)
(1.48539 1.09441 0)
(1.92706 1.46303 0)
(0.957322 0.768431 0)
(1.38391 1.2093 0)
(0.479132 0.201722 0)
(0.828681 0.800054 0)
(0.433178 0.133098 0)
(9.98511 0.0717177 0)
(9.99365 0.0532261 0)
(9.95027 0.113804 0)
(9.97081 0.102449 0)
(9.89413 0.154376 0)
(9.92674 0.148191 0)
(9.81844 0.195882 0)
(9.86155 0.194037 0)
(9.72386 0.239181 0)
(9.777 0.241666 0)
(9.61036 0.284751 0)
(9.67401 0.29162 0)
(9.47775 0.333196 0)
(9.55255 0.344473 0)
(9.32571 0.385189 0)
(9.41225 0.40094 0)
(9.15374 0.441391 0)
(9.25264 0.461747 0)
(8.96117 0.502445 0)
(9.07322 0.527596 0)
(8.74717 0.568993 0)
(8.87332 0.599184 0)
(8.51079 0.641666 0)
(8.65216 0.677206 0)
(8.25098 0.721056 0)
(8.40884 0.762343 0)
(7.96656 0.807669 0)
(8.14238 0.855217 0)
(7.65629 0.90185 0)
(7.85172 0.956336 0)
(7.31888 1.00367 0)
(7.53575 1.066 0)
(6.95304 1.11279 0)
(7.19332 1.18417 0)
(6.55761 1.22822 0)
(6.82329 1.31027 0)
(6.13163 1.34811 0)
(6.4246 1.44295 0)
(5.67462 1.46937 0)
(5.99637 1.57975 0)
(5.18687 1.58736 0)
(5.53811 1.71673 0)
(4.66989 1.69541 0)
(5.04994 1.84797 0)
(4.12704 1.78433 0)
(4.53302 1.96503 0)
(3.56415 1.8415 0)
(3.99003 2.05628 0)
(2.98985 1.84952 0)
(3.42518 2.10589 0)
(2.41396 1.78115 0)
(2.84554 2.09305 0)
(1.83903 1.59912 0)
(2.25449 1.98718 0)
(1.25834 1.27721 0)
(1.65897 1.7515 0)
(0.666226 0.788334 0)
(1.02312 1.36629 0)
(0.522706 0.785626 0)
(9.98333 0.0845408 0)
(9.99315 0.0613891 0)
(9.94809 0.13706 0)
(9.96951 0.120125 0)
(9.89291 0.188343 0)
(9.92558 0.176537 0)
(9.81868 0.240565 0)
(9.86169 0.233092 0)
(9.72606 0.294943 0)
(9.77917 0.291573 0)
(9.61513 0.352206 0)
(9.67874 0.352844 0)
(9.48571 0.41308 0)
(9.56039 0.417622 0)
(9.33754 0.478337 0)
(9.42385 0.486717 0)
(9.17021 0.548748 0)
(9.26872 0.560963 0)
(8.98316 0.625074 0)
(9.09456 0.641179 0)
(8.77576 0.708068 0)
(8.90084 0.728176 0)
(8.54726 0.798474 0)
(8.6869 0.822761 0)
(8.29683 0.897 0)
(8.45202 0.925719 0)
(8.0236 1.00427 0)
(8.19541 1.03778 0)
(7.72663 1.12074 0)
(7.91624 1.15956 0)
(7.40495 1.24659 0)
(7.61362 1.29147 0)
(7.05754 1.38156 0)
(7.28663 1.43356 0)
(6.68339 1.52471 0)
(6.93429 1.58535 0)
(6.28152 1.67412 0)
(6.55559 1.74555 0)
(5.85107 1.82651 0)
(6.14946 1.91171 0)
(5.39148 1.97674 0)
(5.71486 2.07974 0)
(4.90267 2.11729 0)
(5.25083 2.2434 0)
(4.38537 2.23759 0)
(4.75666 2.39364 0)
(3.84132 2.32328 0)
(4.2321 2.51795 0)
(3.27313 2.35547 0)
(3.67733 2.59972 0)
(2.68344 2.30893 0)
(3.09351 2.61795 0)
(2.07113 2.15327 0)
(2.47987 2.5454 0)
(1.42829 1.86566 0)
(1.83853 2.35173 0)
(0.742064 1.41781 0)
(1.1305 2.02253 0)
(0.542972 1.51243 0)
(9.9826 0.0976607 0)
(9.99298 0.0699101 0)
(9.94732 0.160047 0)
(9.96918 0.137821 0)
(9.89331 0.221728 0)
(9.9258 0.204283 0)
(9.82095 0.284576 0)
(9.8635 0.271161 0)
(9.73077 0.349929 0)
(9.78338 0.340165 0)
(9.62289 0.418687 0)
(9.68598 0.412382 0)
(9.49718 0.491683 0)
(9.57129 0.488678 0)
(9.35339 0.569781 0)
(9.43908 0.569957 0)
(9.19117 0.653858 0)
(9.28903 0.657147 0)
(9.01004 0.744779 0)
(9.12076 0.751169 0)
(8.80945 0.843405 0)
(8.93377 0.852932 0)
(8.58876 0.950581 0)
(8.72751 0.963339 0)
(8.34727 1.06711 0)
(8.50133 1.08326 0)
(8.08425 1.19372 0)
(8.25454 1.21353 0)
(7.7989 1.33097 0)
(7.98641 1.35484 0)
(7.4904 1.47913 0)
(7.69612 1.50769 0)
(7.15785 1.63805 0)
(7.38282 1.67227 0)
(6.80029 1.80692 0)
(7.04555 1.84823 0)
(6.41664 1.98391 0)
(6.6832 2.03444 0)
(6.00567 2.16582 0)
(6.29443 2.22866 0)
(5.56602 2.34751 0)
(5.87765 2.42701 0)
(5.09622 2.52131 0)
(5.4309 2.62346 0)
(4.5947 2.67636 0)
(4.95184 2.80916 0)
(4.05992 2.79799 0)
(4.43781 2.97175 0)
(3.49025 2.86732 0)
(3.88578 3.09483 0)
(2.88376 2.86091 0)
(3.29286 3.15781 0)
(2.23638 2.75177 0)
(2.65495 3.13559 0)
(1.54131 2.51879 0)
(1.97338 3.00073 0)
(0.793082 2.12904 0)
(1.20634 2.73807 0)
(0.556388 2.28921 0)
(9.98246 0.110819 0)
(9.993 0.0784985 0)
(9.94758 0.182647 0)
(9.96947 0.155314 0)
(9.89499 0.254267 0)
(9.92705 0.231302 0)
(9.82485 0.32734 0)
(9.86666 0.308061 0)
(9.73756 0.403243 0)
(9.7893 0.387204 0)
(9.63325 0.483026 0)
(9.69538 0.469949 0)
(9.51183 0.567641 0)
(9.58489 0.557305 0)
(9.3731 0.658051 0)
(9.45765 0.650269 0)
(9.21673 0.755228 0)
(9.31339 0.749859 0)
(9.04232 0.860134 0)
(9.15177 0.857085 0)
(8.84934 0.973722 0)
(8.97236 0.97295 0)
(8.63724 1.09693 0)
(8.77464 1.09844 0)
(8.40538 1.23064 0)
(8.55803 1.23453 0)
(8.15305 1.37567 0)
(8.32187 1.38213 0)
(7.87951 1.53267 0)
(8.06545 1.54203 0)
(7.58395 1.70203 0)
(7.78795 1.71486 0)
(7.26541 1.88376 0)
(7.48846 1.90093 0)
(6.92283 2.0772 0)
(7.16589 2.1001 0)
(6.55485 2.28082 0)
(6.81891 2.31153 0)
(6.15981 2.49171 0)
(6.44579 2.53332 0)
(5.73553 2.70516 0)
(6.04432 2.76213 0)
(5.27926 2.91396 0)
(5.61155 2.99257 0)
(4.78757 3.10776 0)
(5.14371 3.21656 0)
(4.25631 3.27244 0)
(4.63609 3.42257 0)
(3.68075 3.38976 0)
(4.08309 3.59506 0)
(3.05582 3.43729 0)
(3.47874 3.71409 0)
(2.37598 3.38918 0)
(2.81626 3.75537 0)
(1.63671 3.22341 0)
(2.09759 3.69101 0)
(0.838526 2.89799 0)
(1.27796 3.50137 0)
(0.572985 3.11049 0)
(9.98269 0.123804 0)
(9.99314 0.0869744 0)
(9.94861 0.204682 0)
(9.97019 0.17241 0)
(9.8977 0.285773 0)
(9.9291 0.257453 0)
(9.83011 0.368628 0)
(9.87093 0.343621 0)
(9.74613 0.454648 0)
(9.79667 0.43246 0)
(9.64589 0.544995 0)
(9.70667 0.52527 0)
(9.52935 0.640732 0)
(9.60089 0.623178 0)
(9.39633 0.742913 0)
(9.47921 0.727275 0)
(9.24656 0.852595 0)
(9.34142 0.838659 0)
(9.07967 0.97083 0)
(9.18721 0.958429 0)
(8.89521 1.09866 0)
(9.01621 1.08767 0)
(8.69265 1.23711 0)
(8.82797 1.22747 0)
(8.4714 1.38715 0)
(8.62192 1.37888 0)
(8.23076 1.54971 0)
(8.39745 1.54292 0)
(7.96997 1.72556 0)
(8.15382 1.7205 0)
(7.68814 1.91523 0)
(7.89019 1.91239 0)
(7.38419 2.11892 0)
(7.60553 2.11912 0)
(7.05682 2.33627 0)
(7.29857 2.34079 0)
(6.70432 2.56612 0)
(6.96766 2.57696 0)
(6.32445 2.80613 0)
(6.61066 2.82628 0)
(5.91423 3.0523 0)
(6.22464 3.08615 0)
(5.4697 3.29836 0)
(5.80574 3.35218 0)
(4.98576 3.53505 0)
(5.3488 3.61752 0)
(4.45607 3.74938 0)
(4.84727 3.87206 0)
(3.87333 3.92401 0)
(4.29315 4.10153 0)
(3.22989 4.03704 0)
(3.67771 4.28683 0)
(2.51892 4.06187 0)
(2.99119 4.40354 0)
(1.73707 3.97281 0)
(2.23565 4.42105 0)
(0.888812 3.71528 0)
(1.36231 4.31256 0)
(0.598341 3.98103 0)
(9.98317 0.136457 0)
(9.99338 0.0952174 0)
(9.9502 0.225996 0)
(9.97124 0.188947 0)
(9.90127 0.316088 0)
(9.93176 0.282588 0)
(9.83654 0.408257 0)
(9.87612 0.377675 0)
(9.75625 0.503919 0)
(9.80531 0.475723 0)
(9.66055 0.604323 0)
(9.71961 0.57809 0)
(9.54941 0.710628 0)
(9.61903 0.685995 0)
(9.42272 0.823973 0)
(9.50346 0.800619 0)
(9.28024 0.945497 0)
(9.37276 0.923137 0)
(9.12166 1.07634 0)
(9.22667 1.05473 0)
(8.94659 1.21762 0)
(9.06488 1.19656 0)
(8.75454 1.37046 0)
(8.88699 1.3498 0)
(8.54494 1.53594 0)
(8.69249 1.51562 0)
(8.31713 1.71511 0)
(8.4808 1.69513 0)
(8.07031 1.90887 0)
(8.25118 1.88941 0)
(7.80349 2.11796 0)
(8.00275 2.0994 0)
(7.51546 2.34285 0)
(7.73439 2.32588 0)
(7.20464 2.58355 0)
(7.44465 2.56931 0)
(6.86895 2.83943 0)
(7.13159 2.82974 0)
(6.50556 3.10891 0)
(6.79264 3.10653 0)
(6.11068 3.389 0)
(6.42426 3.39805 0)
(5.67922 3.67473 0)
(6.02167 3.70123 0)
(5.20448 3.9584 0)
(5.57844 4.01087 0)
(4.67804 4.22866 0)
(5.08621 4.31878 0)
(4.08996 4.46948 0)
(4.5345 4.61263 0)
(3.42969 4.65925 0)
(3.91139 4.87456 0)
(2.68792 4.76947 0)
(3.20296 5.07979 0)
(1.86033 4.76843 0)
(2.40924 5.19379 0)
(0.953409 4.58556 0)
(1.47504 5.17985 0)
(0.638704 4.91483 0)
(9.98382 0.148653 0)
(9.99367 0.103141 0)
(9.95223 0.246446 0)
(9.97253 0.204793 0)
(9.90554 0.345064 0)
(9.93493 0.30657 0)
(9.84397 0.446045 0)
(9.8821 0.410068 0)
(9.76774 0.55083 0)
(9.81503 0.516803 0)
(9.67699 0.660736 0)
(9.73401 0.628174 0)
(9.57175 0.777005 0)
(9.63905 0.74548 0)
(9.45194 0.900854 0)
(9.53009 0.869978 0)
(9.31738 1.0335 0)
(9.40704 1.00291 0)
(9.16784 1.17615 0)
(9.26972 1.14554 0)
(9.00296 1.33002 0)
(9.11787 1.2991 0)
(8.82233 1.49633 0)
(8.95115 1.46486 0)
(8.62543 1.67627 0)
(8.76914 1.64408 0)
(8.41161 1.87101 0)
(8.57129 1.838 0)
(8.18006 2.08165 0)
(8.35691 2.04786 0)
(7.92977 2.30916 0)
(8.12511 2.27483 0)
(7.65939 2.55435 0)
(7.87472 2.51997 0)
(7.36713 2.8177 0)
(7.60419 2.78418 0)
(7.05058 3.09924 0)
(7.31141 3.0681 0)
(6.70644 3.39833 0)
(6.99347 3.37193 0)
(6.3302 3.71324 0)
(6.64635 3.69523 0)
(5.91571 4.04069 0)
(6.26456 4.03654 0)
(5.45479 4.37505 0)
(5.84055 4.39276 0)
(4.93686 4.70725 0)
(5.36423 4.75829 0)
(4.34892 5.02328 0)
(4.82248 5.12361 0)
(3.67633 5.30235 0)
(4.19935 5.47326 0)
(2.90493 5.51385 0)
(3.47471 5.78305 0)
(2.02588 5.6183 0)
(2.64263 6.01457 0)
(1.0442 5.52449 0)
(1.63625 6.11863 0)
(0.703894 5.93756 0)
(9.98461 0.160296 0)
(9.99401 0.11068 0)
(9.9546 0.265909 0)
(9.97401 0.219841 0)
(9.9104 0.372558 0)
(9.9385 0.329276 0)
(9.85226 0.481825 0)
(9.88873 0.440658 0)
(9.7804 0.595178 0)
(9.82569 0.555525 0)
(9.69499 0.713992 0)
(9.74968 0.675313 0)
(9.59608 0.839578 0)
(9.66072 0.801384 0)
(9.48366 0.973222 0)
(9.55881 0.935061 0)
(9.35761 1.11621 0)
(9.44391 1.07765 0)
(9.21774 1.26982 0)
(9.31593 1.23047 0)
(9.0638 1.43535 0)
(9.17467 1.39484 0)
(8.89544 1.61411 0)
(9.01988 1.57211 0)
(8.71219 1.80742 0)
(8.85121 1.76363 0)
(8.51348 2.01658 0)
(8.6682 1.97078 0)
(8.29854 2.2429 0)
(8.47022 2.19496 0)
(8.06635 2.48762 0)
(8.25647 2.43757 0)
(7.81554 2.75193 0)
(8.0258 2.70002 0)
(7.54422 3.03686 0)
(7.77666 2.98366 0)
(7.24981 3.34323 0)
(7.50691 3.28979 0)
(6.92869 3.67145 0)
(7.21354 3.61958 0)
(6.57587 4.02134 0)
(6.89233 3.97391 0)
(6.18442 4.39166 0)
(6.53736 4.35321 0)
(5.74486 4.77944 0)
(6.14038 4.75695 0)
(5.24446 5.17881 0)
(5.68991 5.18291 0)
(4.6667 5.57914 0)
(5.17024 5.62575 0)
(3.99124 5.96216 0)
(4.56075 6.07451 0)
(3.1955 6.29668 0)
(3.83269 6.50851 0)
(2.25975 6.53515 0)
(2.96806 6.88831 0)
(1.17958 6.55924 0)
(1.87744 7.1516 0)
(0.812141 7.09289 0)
(9.98549 0.171309 0)
(9.99438 0.117785 0)
(9.95726 0.284278 0)
(9.97565 0.234001 0)
(9.91576 0.398446 0)
(9.94241 0.350595 0)
(9.86129 0.515447 0)
(9.89592 0.469317 0)
(9.79408 0.636783 0)
(9.83715 0.591737 0)
(9.71434 0.763875 0)
(9.76642 0.719324 0)
(9.62215 0.898092 0)
(9.6838 0.853489 0)
(9.51756 1.04078 0)
(9.58932 0.995611 0)
(9.40051 1.19328 0)
(9.48302 1.14705 0)
(9.2709 1.35694 0)
(9.36486 1.30918 0)
(9.12856 1.53314 0)
(9.23476 1.48338 0)
(8.97321 1.72326 0)
(9.09255 1.67106 0)
(8.8045 1.92873 0)
(8.93798 1.87369 0)
(8.62195 2.15101 0)
(8.7707 2.09275 0)
(8.42488 2.39161 0)
(8.59022 2.32982 0)
(8.21235 2.65207 0)
(8.39584 2.58653 0)
(7.98308 2.93397 0)
(8.18657 2.8646 0)
(7.73523 3.23893 0)
(7.961 3.16588 0)
(7.46626 3.56858 0)
(7.71715 3.49233 0)
(7.17254 3.92455 0)
(7.45217 3.8461 0)
(6.84896 4.30834 0)
(7.16202 4.2295 0)
(6.48826 4.72111 0)
(6.84091 4.64501 0)
(6.0802 5.16317 0)
(6.48051 5.09505 0)
(5.61037 5.63307 0)
(6.06885 5.5816 0)
(5.05872 6.12566 0)
(5.58848 6.1052 0)
(4.39797 6.62871 0)
(5.01457 6.66266 0)
(3.59272 7.11532 0)
(4.30828 7.24262 0)
(2.60195 7.53408 0)
(3.43242 7.81341 0)
(1.39311 7.7335 0)
(2.25448 8.30763 0)
(1.00186 8.45735 0)
(9.98646 0.181629 0)
(9.99479 0.124415 0)
(9.96014 0.301464 0)
(9.9774 0.247203 0)
(9.92152 0.422617 0)
(9.94659 0.370436 0)
(9.87092 0.54678 0)
(9.90356 0.495936 0)
(9.80863 0.675487 0)
(9.84927 0.625306 0)
(9.73483 0.810198 0)
(9.78407 0.760048 0)
(9.6497 0.952327 0)
(9.70806 0.901609 0)
(9.55331 1.10327 0)
(9.62133 1.05141 0)
(9.4457 1.26441 0)
(9.52399 1.21086 0)
(9.32684 1.43717 0)
(9.41608 1.38136 0)
(9.19664 1.62295 0)
(9.29761 1.56435 0)
(9.05496 1.82325 0)
(9.16852 1.76131 0)
(8.90157 2.03958 0)
(9.02869 1.97376 0)
(8.7361 2.27355 0)
(8.87792 2.20332 0)
(8.55803 2.52684 0)
(8.71587 2.45168 0)
(8.36661 2.80127 0)
(8.54204 2.72069 0)
(8.16075 3.09882 0)
(8.35567 3.01238 0)
(7.93885 3.42166 0)
(8.15567 3.32901 0)
(7.69866 3.77226 0)
(7.94041 3.67319 0)
(7.4369 4.15343 0)
(7.70754 4.04797 0)
(7.14884 4.56842 0)
(7.45362 4.45703 0)
(6.82764 5.02096 0)
(7.17367 4.90485 0)
(6.46327 5.51517 0)
(6.86033 5.39694 0)
(6.04091 6.0552 0)
(6.50259 5.94001 0)
(5.53836 6.6441 0)
(6.08355 6.54197 0)
(4.92204 7.28121 0)
(5.57713 7.21127 0)
(4.14093 7.95456 0)
(4.93735 7.95473 0)
(3.11895 8.62585 0)
(4.10536 8.76765 0)
(1.75488 9.11964 0)
(2.87611 9.6121 0)
(1.3639 10.1761 0)
(9.98749 0.191207 0)
(9.99521 0.130539 0)
(9.9632 0.317391 0)
(9.97925 0.259389 0)
(9.9276 0.44498 0)
(9.95098 0.38872 0)
(9.88107 0.575715 0)
(9.91156 0.52042 0)
(9.82388 0.711162 0)
(9.86193 0.656124 0)
(9.75628 0.85281 0)
(9.80245 0.797355 0)
(9.67847 1.00211 0)
(9.73328 0.945591 0)
(9.59059 1.16049 0)
(9.65456 1.10228 0)
(9.49276 1.32938 0)
(9.56647 1.26886 0)
(9.38504 1.51022 0)
(9.46914 1.44677 0)
(9.26746 1.70449 0)
(9.36267 1.63748 0)
(9.13998 1.91372 0)
(9.24714 1.84251 0)
(9.00253 2.13951 0)
(9.12256 2.06344 0)
(8.85491 2.38358 0)
(8.98889 2.30195 0)
(8.69682 2.64779 0)
(8.84601 2.55987 0)
(8.52775 2.93416 0)
(8.69369 2.8392 0)
(8.34692 3.24502 0)
(8.53148 3.14219 0)
(8.15319 3.58304 0)
(8.35871 3.47145 0)
(7.94482 3.95137 0)
(8.17433 3.8301 0)
(7.71928 4.35391 0)
(7.97676 4.22191 0)
(7.47284 4.79549 0)
(7.76366 4.65168 0)
(7.19999 5.28229 0)
(7.53155 5.12559 0)
(6.89236 5.82228 0)
(7.27524 5.65182 0)
(6.53707 6.42582 0)
(6.9868 6.24151 0)
(6.11343 7.10633 0)
(6.65357 6.91016 0)
(5.5868 7.88101 0)
(6.25508 7.68004 0)
(4.89577 8.76984 0)
(5.75105 8.58472 0)
(3.92338 9.7923 0)
(5.08233 9.67559 0)
(2.43169 10.847 0)
(3.97678 11.0386 0)
(2.14551 12.5578 0)
(9.98857 0.200002 0)
(9.99565 0.136135 0)
(9.9664 0.331998 0)
(9.98117 0.270512 0)
(9.93395 0.465451 0)
(9.95553 0.405387 0)
(9.89161 0.602144 0)
(9.91985 0.542697 0)
(9.83969 0.743669 0)
(9.87502 0.684101 0)
(9.77847 0.891536 0)
(9.82144 0.831141 0)
(9.70819 1.04722 0)
(9.7593 0.985313 0)
(9.62907 1.21218 0)
(9.68883 1.14808 0)
(9.5413 1.38786 0)
(9.61025 1.3209 0)
(9.44503 1.57573 0)
(9.52381 1.50523 0)
(9.3404 1.7773 0)
(9.4297 1.70255 0)
(9.22753 1.99413 0)
(9.32814 1.9144 0)
(9.1065 2.22788 0)
(9.21928 2.1424 0)
(8.97732 2.48035 0)
(9.1033 2.38827 0)
(8.83993 2.7535 0)
(8.98031 2.65389 0)
(8.69416 3.04954 0)
(8.85036 2.94137 0)
(8.53965 3.37101 0)
(8.71342 3.2531 0)
(8.37581 3.72093 0)
(8.56935 3.59191 0)
(8.20169 4.10299 0)
(8.4178 3.96121 0)
(8.01585 4.52185 0)
(8.25821 4.36523 0)
(7.81613 4.98351 0)
(8.0897 4.80944 0)
(7.59926 5.49601 0)
(7.91092 5.30103 0)
(7.36027 6.07035 0)
(7.71993 5.84984 0)
(7.09129 6.7222 0)
(7.51391 6.46976 0)
(6.77928 7.47471 0)
(7.2887 7.18134 0)
(6.40081 8.36465 0)
(7.03897 8.01692 0)
(5.9091 9.45656 0)
(6.75474 9.033 0)
(5.19179 10.8971 0)
(6.45548 10.3454 0)
(3.88326 13.1677 0)
(6.18749 12.29 0)
(5.26499 16.3612 0)
(0.356188 -0.249427 0)
(0.18891 -0.348864 0)
(0.671039 -0.205316 0)
(0.457093 -0.301093 0)
(0.940479 -0.168512 0)
(0.724135 -0.251581 0)
(1.17419 -0.140741 0)
(0.964183 -0.213071 0)
(1.37968 -0.119174 0)
(1.17189 -0.182912 0)
(1.56151 -0.101649 0)
(1.35335 -0.158027 0)
(1.72271 -0.0869288 0)
(1.51409 -0.13679 0)
(1.86526 -0.0742272 0)
(1.65697 -0.118112 0)
(1.9903 -0.0630423 0)
(1.78321 -0.101152 0)
(2.09865 -0.0531157 0)
(1.89333 -0.0855836 0)
(2.19152 -0.0441425 0)
(1.9879 -0.0716206 0)
(2.2693 -0.0356165 0)
(2.06825 -0.0585684 0)
(2.33024 -0.0272661 0)
(2.13494 -0.0448077 0)
(2.37434 -0.0185458 0)
(2.18525 -0.0316562 0)
(2.40397 -0.00890218 0)
(2.22098 -0.0207663 0)
(2.41955 -0.00114691 0)
(2.24232 -0.0106634 0)
(2.4232 0.000635582 0)
(2.2348 -0.00243496 0)
(2.41649 -0.0038465 0)
(2.1991 0.00437637 0)
(2.40708 -0.0118622 0)
(2.13996 0.0059932 0)
(2.39526 -0.0196227 0)
(2.06588 0.00735382 0)
(2.37811 -0.0239314 0)
(1.98371 0.0104136 0)
(2.35182 -0.0236043 0)
(1.89768 0.0155872 0)
(2.31558 -0.0193329 0)
(1.8116 0.0209778 0)
(2.27281 -0.0131024 0)
(1.73065 0.0241761 0)
(2.23161 -0.00768247 0)
(1.66199 0.0227363 0)
(2.20308 -0.00558351 0)
(1.61373 0.0153724 0)
(2.1951 -0.0069228 0)
(1.59533 0.00419889 0)
(2.21689 -0.0092472 0)
(1.60417 -0.0111944 0)
(2.28005 -0.0126787 0)
(1.65653 -0.0316757 0)
(1.80271 -0.0566163 0)
(0.269495 -0.47212 0)
(0.118847 -0.612818 0)
(0.532273 -0.406887 0)
(0.343854 -0.552389 0)
(0.764127 -0.342404 0)
(0.549593 -0.468068 0)
(0.966922 -0.291066 0)
(0.738541 -0.397953 0)
(1.14622 -0.250184 0)
(0.901915 -0.342507 0)
(1.30583 -0.216229 0)
(1.04413 -0.296746 0)
(1.44819 -0.186961 0)
(1.16883 -0.257598 0)
(1.57467 -0.160813 0)
(1.27805 -0.222907 0)
(1.68574 -0.136909 0)
(1.3724 -0.191004 0)
(1.78163 -0.115342 0)
(1.45166 -0.161322 0)
(1.86387 -0.0956681 0)
(1.51523 -0.135046 0)
(1.93396 -0.0752827 0)
(1.56355 -0.111346 0)
(1.98916 -0.0553141 0)
(1.60442 -0.0853966 0)
(2.03075 -0.0412704 0)
(1.62304 -0.061505 0)
(2.05918 -0.0313285 0)
(1.58789 -0.040699 0)
(2.05517 -0.0181769 0)
(1.52536 -0.00791831 0)
(2.00848 -0.00194541 0)
(1.44824 0.0287615 0)
(1.91967 0.0134428 0)
(1.34672 0.0623173 0)
(1.7976 0.0277112 0)
(1.22068 0.0837502 0)
(1.65487 0.0417074 0)
(1.07898 0.0961279 0)
(1.50407 0.054984 0)
(0.933733 0.101984 0)
(1.35739 0.0650607 0)
(0.794367 0.102559 0)
(1.22625 0.0689153 0)
(0.669257 0.0968923 0)
(1.11866 0.0641832 0)
(0.5664 0.0849916 0)
(1.0407 0.0498665 0)
(0.492241 0.0657604 0)
(0.998406 0.0289634 0)
(0.453912 0.0381621 0)
(0.992398 0.00528474 0)
(0.449312 0.0073599 0)
(1.03496 -0.0249193 0)
(0.493263 -0.0330589 0)
(1.14552 -0.06588 0)
(0.58192 -0.0871282 0)
(0.779616 -0.140932 0)
(0.189661 -0.704376 0)
(0.0684544 -0.798579 0)
(0.374247 -0.62425 0)
(0.227222 -0.72891 0)
(0.537012 -0.533991 0)
(0.350595 -0.620045 0)
(0.678798 -0.458765 0)
(0.469885 -0.527214 0)
(0.801832 -0.397423 0)
(0.567536 -0.452025 0)
(0.908124 -0.345833 0)
(0.64837 -0.389125 0)
(0.999455 -0.300999 0)
(0.713724 -0.3351 0)
(1.07653 -0.260393 0)
(0.764777 -0.286766 0)
(1.13869 -0.222286 0)
(0.801571 -0.241294 0)
(1.18405 -0.187793 0)
(0.82353 -0.197147 0)
(1.21491 -0.160445 0)
(0.832065 -0.158848 0)
(1.2377 -0.137132 0)
(0.801308 -0.128502 0)
(1.23564 -0.105734 0)
(0.726818 -0.0838872 0)
(1.17596 -0.0616846 0)
(0.653225 -0.0186628 0)
(1.05697 -0.0109032 0)
(0.549687 0.0427015 0)
(0.917831 0.0423029 0)
(0.421888 0.087301 0)
(0.780693 0.0907678 0)
(0.301612 0.120394 0)
(0.642935 0.126016 0)
(0.178569 0.15219 0)
(0.500754 0.146718 0)
(0.0522365 0.174318 0)
(0.358918 0.155135 0)
(-0.0724635 0.184342 0)
(0.224942 0.153489 0)
(-0.188504 0.183341 0)
(0.106297 0.142965 0)
(-0.290988 0.172905 0)
(0.00821244 0.12449 0)
(-0.37531 0.153674 0)
(-0.0626117 0.0991677 0)
(-0.436643 0.125024 0)
(-0.102484 0.0664145 0)
(-0.470637 0.0877653 0)
(-0.108385 0.025208 0)
(-0.471537 0.041342 0)
(-0.065861 -0.0268578 0)
(-0.447938 -0.015013 0)
(0.0330636 -0.0965346 0)
(-0.375195 -0.0838763 0)
(0.18621 -0.16855 0)
(-0.281335 -0.163941 0)
(-0.143127 -0.215754 0)
(0.112526 -0.841331 0)
(0.0241734 -0.908791 0)
(0.211784 -0.743925 0)
(0.107244 -0.823831 0)
(0.29536 -0.633091 0)
(0.141026 -0.69808 0)
(0.364193 -0.539817 0)
(0.182586 -0.589967 0)
(0.418077 -0.462056 0)
(0.203862 -0.499988 0)
(0.456764 -0.395816 0)
(0.211706 -0.422749 0)
(0.481557 -0.338048 0)
(0.204266 -0.356139 0)
(0.492887 -0.285869 0)
(0.18119 -0.296153 0)
(0.490573 -0.236528 0)
(0.140532 -0.239422 0)
(0.470022 -0.186523 0)
(0.0809429 -0.180915 0)
(0.412227 -0.129831 0)
(0.00694696 -0.114276 0)
(0.29628 -0.061367 0)
(-0.0974722 -0.0411947 0)
(0.14918 0.0126899 0)
(-0.228859 0.0242626 0)
(0.023033 0.075764 0)
(-0.345974 0.0718918 0)
(-0.085673 0.120321 0)
(-0.44628 0.118893 0)
(-0.193883 0.153988 0)
(-0.550433 0.161353 0)
(-0.30758 0.183625 0)
(-0.653045 0.196364 0)
(-0.4181 0.206887 0)
(-0.753143 0.224292 0)
(-0.522862 0.21902 0)
(-0.847715 0.24105 0)
(-0.619365 0.219002 0)
(-0.933783 0.244361 0)
(-0.704097 0.20779 0)
(-1.00841 0.234795 0)
(-0.772906 0.186356 0)
(-1.06893 0.213703 0)
(-0.821651 0.154876 0)
(-1.11302 0.181893 0)
(-0.847596 0.113507 0)
(-1.1388 0.139689 0)
(-0.848531 0.062391 0)
(-1.1439 0.0882808 0)
(-0.823429 0.000407306 0)
(-1.12664 0.0278159 0)
(-0.771221 -0.0724405 0)
(-1.0918 -0.0424807 0)
(-0.696803 -0.150063 0)
(-1.03491 -0.122105 0)
(-0.624219 -0.215424 0)
(-0.975927 -0.200347 0)
(-0.932495 -0.253893 0)
(0.0290419 -0.897928 0)
(-0.0214705 -0.937236 0)
(0.0402323 -0.783541 0)
(-0.0207135 -0.834533 0)
(0.0376673 -0.658467 0)
(-0.0762358 -0.695686 0)
(0.0265489 -0.552377 0)
(-0.11914 -0.579831 0)
(0.00192506 -0.460961 0)
(-0.178412 -0.47807 0)
(-0.0362091 -0.381078 0)
(-0.24787 -0.389606 0)
(-0.0915348 -0.308611 0)
(-0.329677 -0.30919 0)
(-0.166671 -0.238919 0)
(-0.423838 -0.2339 0)
(-0.263792 -0.167741 0)
(-0.530536 -0.160853 0)
(-0.381127 -0.0933646 0)
(-0.649121 -0.0882358 0)
(-0.508337 -0.0209708 0)
(-0.770512 -0.0161705 0)
(-0.620047 0.0388233 0)
(-0.882776 0.0429229 0)
(-0.715693 0.0866575 0)
(-0.980083 0.0945829 0)
(-0.81527 0.133218 0)
(-1.0771 0.143373 0)
(-0.914363 0.178336 0)
(-1.17252 0.188347 0)
(-1.01054 0.215864 0)
(-1.26466 0.227168 0)
(-1.10256 0.244447 0)
(-1.35105 0.257852 0)
(-1.1864 0.262843 0)
(-1.42943 0.278988 0)
(-1.26004 0.268593 0)
(-1.49811 0.287959 0)
(-1.32262 0.260945 0)
(-1.55613 0.283282 0)
(-1.37294 0.240692 0)
(-1.60274 0.265351 0)
(-1.40946 0.208883 0)
(-1.63724 0.235358 0)
(-1.43095 0.166289 0)
(-1.65918 0.194332 0)
(-1.43706 0.113866 0)
(-1.66845 0.143144 0)
(-1.42758 0.0525133 0)
(-1.66487 0.0830458 0)
(-1.40254 -0.018062 0)
(-1.64845 0.0143243 0)
(-1.36527 -0.0966371 0)
(-1.62069 -0.062089 0)
(-1.3227 -0.175851 0)
(-1.586 -0.143972 0)
(-1.28291 -0.240974 0)
(-1.55579 -0.220302 0)
(-1.54098 -0.274759 0)
(-0.0568866 -0.865714 0)
(-0.0724623 -0.881519 0)
(-0.136018 -0.7363 0)
(-0.1544 -0.758859 0)
(-0.222947 -0.603849 0)
(-0.293221 -0.614519 0)
(-0.318938 -0.490437 0)
(-0.417677 -0.492319 0)
(-0.423009 -0.3909 0)
(-0.548818 -0.385433 0)
(-0.536142 -0.301733 0)
(-0.682219 -0.29128 0)
(-0.657158 -0.219578 0)
(-0.817334 -0.206498 0)
(-0.783996 -0.142915 0)
(-0.952597 -0.12881 0)
(-0.912903 -0.0711563 0)
(-1.08525 -0.0565699 0)
(-1.03563 -0.00537528 0)
(-1.2089 0.00869903 0)
(-1.1426 0.0536716 0)
(-1.32088 0.0663288 0)
(-1.24202 0.107345 0)
(-1.42178 0.117786 0)
(-1.33964 0.156486 0)
(-1.5204 0.166356 0)
(-1.43411 0.201183 0)
(-1.61459 0.211183 0)
(-1.52343 0.240516 0)
(-1.7028 0.250956 0)
(-1.6058 0.272197 0)
(-1.78354 0.283536 0)
(-1.67961 0.294339 0)
(-1.85539 0.307171 0)
(-1.74295 0.305169 0)
(-1.91708 0.320308 0)
(-1.7951 0.303058 0)
(-1.96805 0.321182 0)
(-1.83634 0.287611 0)
(-2.00851 0.308927 0)
(-1.86698 0.259595 0)
(-2.03897 0.28396 0)
(-1.88723 0.220143 0)
(-2.06002 0.247363 0)
(-1.8974 0.170304 0)
(-2.07228 0.200218 0)
(-1.898 0.111169 0)
(-2.07632 0.143483 0)
(-1.88916 0.0437618 0)
(-2.07261 0.0781683 0)
(-1.8711 -0.0313853 0)
(-2.06168 0.00459512 0)
(-1.84747 -0.111885 0)
(-2.04357 -0.0745216 0)
(-1.82342 -0.19072 0)
(-2.02481 -0.156326 0)
(-1.80158 -0.255215 0)
(-2.01169 -0.23126 0)
(-2.00836 -0.284512 0)
(-0.145603 -0.750502 0)
(-0.12858 -0.73891 0)
(-0.309296 -0.61352 0)
(-0.286069 -0.602319 0)
(-0.474818 -0.481001 0)
(-0.497039 -0.459968 0)
(-0.63984 -0.367967 0)
(-0.686509 -0.341874 0)
(-0.801624 -0.269794 0)
(-0.869003 -0.241423 0)
(-0.958723 -0.183339 0)
(-1.04102 -0.154744 0)
(-1.10918 -0.105823 0)
(-1.20112 -0.0788252 0)
(-1.251 -0.0356844 0)
(-1.34741 -0.0112992 0)
(-1.37848 0.0266571 0)
(-1.48039 0.0465531 0)
(-1.49239 0.0820041 0)
(-1.59985 0.0986725 0)
(-1.59799 0.132888 0)
(-1.70984 0.147767 0)
(-1.69906 0.180434 0)
(-1.81362 0.193898 0)
(-1.79448 0.22431 0)
(-1.91069 0.236505 0)
(-1.88289 0.263226 0)
(-2.0001 0.274652 0)
(-1.96288 0.295618 0)
(-2.0808 0.307016 0)
(-2.03344 0.319733 0)
(-2.15191 0.331827 0)
(-2.09377 0.333952 0)
(-2.21276 0.347479 0)
(-2.14323 0.336811 0)
(-2.26299 0.352581 0)
(-2.18211 0.327265 0)
(-2.30287 0.345943 0)
(-2.21136 0.305205 0)
(-2.33328 0.327119 0)
(-2.2321 0.271362 0)
(-2.3554 0.296559 0)
(-2.24533 0.226782 0)
(-2.37043 0.255205 0)
(-2.25188 0.172447 0)
(-2.37944 0.204011 0)
(-2.25244 0.109258 0)
(-2.38323 0.143798 0)
(-2.24723 0.0381775 0)
(-2.3824 0.0752926 0)
(-2.23726 -0.0394509 0)
(-2.37776 -0.000777762 0)
(-2.22475 -0.120417 0)
(-2.36944 -0.0810999 0)
(-2.21369 -0.198202 0)
(-2.36335 -0.16201 0)
(-2.20564 -0.261097 0)
(-2.36275 -0.235295 0)
(-2.36629 -0.286153 0)
(-0.231901 -0.561667 0)
(-0.186584 -0.511777 0)
(-0.468523 -0.426436 0)
(-0.410457 -0.376036 0)
(-0.695469 -0.305244 0)
(-0.676982 -0.248065 0)
(-0.90781 -0.204614 0)
(-0.908103 -0.148289 0)
(-1.10282 -0.118386 0)
(-1.11644 -0.0678346 0)
(-1.27953 -0.0442906 0)
(-1.30269 -0.00116281 0)
(-1.43633 0.0186497 0)
(-1.46851 0.0542278 0)
(-1.57435 0.072664 0)
(-1.6163 0.103054 0)
(-1.69947 0.121674 0)
(-1.74864 0.147779 0)
(-1.81592 0.168007 0)
(-1.8708 0.190651 0)
(-1.92416 0.21171 0)
(-1.98313 0.231241 0)
(-2.02413 0.252187 0)
(-2.08614 0.269177 0)
(-2.11547 0.28861 0)
(-2.17981 0.30366 0)
(-2.19755 0.319757 0)
(-2.26384 0.333573 0)
(-2.26966 0.34412 0)
(-2.33781 0.357551 0)
(-2.33135 0.360133 0)
(-2.4014 0.374049 0)
(-2.38249 0.366412 0)
(-2.4545 0.381646 0)
(-2.42326 0.361839 0)
(-2.49736 0.379178 0)
(-2.45449 0.345773 0)
(-2.53072 0.365839 0)
(-2.47753 0.318285 0)
(-2.55581 0.341446 0)
(-2.49383 0.280033 0)
(-2.57413 0.30646 0)
(-2.50474 0.231889 0)
(-2.58715 0.261672 0)
(-2.51134 0.174639 0)
(-2.59621 0.207834 0)
(-2.51438 0.108972 0)
(-2.60226 0.145515 0)
(-2.51432 0.0358255 0)
(-2.60601 0.075258 0)
(-2.51236 -0.0428267 0)
(-2.60821 -0.00183275 0)
(-2.51011 -0.12337 0)
(-2.60964 -0.0822829 0)
(-2.51 -0.199683 0)
(-2.61483 -0.162066 0)
(-2.5137 -0.260422 0)
(-2.62474 -0.233442 0)
(-2.63347 -0.281494 0)
(-0.311908 -0.32108 0)
(-0.237106 -0.206282 0)
(-0.610812 -0.194657 0)
(-0.508315 -0.0901914 0)
(-0.876942 -0.0872926 0)
(-0.806817 0.000426037 0)
(-1.10889 -0.00731118 0)
(-1.05734 0.0631665 0)
(-1.31146 0.0522242 0)
(-1.2767 0.112484 0)
(-1.48845 0.0999903 0)
(-1.46868 0.152658 0)
(-1.64593 0.142091 0)
(-1.63774 0.187868 0)
(-1.78842 0.181673 0)
(-1.78919 0.221111 0)
(-1.91841 0.219558 0)
(-1.9255 0.252936 0)
(-2.03664 0.255876 0)
(-2.04862 0.284038 0)
(-2.14397 0.290168 0)
(-2.15968 0.314016 0)
(-2.24085 0.321669 0)
(-2.25953 0.342122 0)
(-2.32741 0.349315 0)
(-2.34866 0.367303 0)