/*--------------------------------*- C++ -*----------------------------------*\
  =========                 |
  \\      /  F ield         | OpenFOAM: The Open Source CFD Toolbox
   \\    /   O peration     | Website:  https://openfoam.org
    \\  /    A nd           | Version:  7
     \\/     M anipulation  |
\*---------------------------------------------------------------------------*/
FoamFile
{
    version     2.0;
    format      ascii;
    class       surfaceScalarField;
    location    "6.63";
    object      phi;
}
// * * * * * * * * * * * * * * * * * * * * * * * * * * * * * * * * * * * * * //

dimensions      [1 0 -1 0 0 0 0];

internalField   nonuniform List<scalar> 
23692
(
1.19107e-05
-2.76162e-07
1.23852e-05
-4.74242e-07
1.30255e-05
-6.39885e-07
1.38052e-05
-7.79216e-07
1.47054e-05
-8.99512e-07
1.57122e-05
-1.00595e-06
1.68155e-05
-1.10241e-06
1.80083e-05
-1.19178e-06
1.92855e-05
-1.27604e-06
2.0643e-05
-1.3562e-06
2.20768e-05
-1.43242e-06
2.35823e-05
-1.50412e-06
2.5154e-05
-1.57016e-06
2.67847e-05
-1.62911e-06
2.84658e-05
-1.67945e-06
3.01874e-05
-1.71983e-06
3.19384e-05
-1.74921e-06
3.37071e-05
-1.76696e-06
3.54818e-05
-1.77286e-06
3.72508e-05
-1.76712e-06
3.9003e-05
-1.7503e-06
4.07282e-05
-1.72324e-06
4.24172e-05
-1.68698e-06
4.40618e-05
-1.64266e-06
4.56553e-05
-1.5915e-06
4.71919e-05
-1.53467e-06
4.86673e-05
-1.47335e-06
5.00778e-05
-1.40859e-06
5.14212e-05
-1.34137e-06
5.26957e-05
-1.27258e-06
5.39007e-05
-1.20298e-06
5.50359e-05
-1.13322e-06
5.61017e-05
-1.06389e-06
5.7099e-05
-9.95446e-07
5.80292e-05
-9.28288e-07
5.88938e-05
-8.62732e-07
5.96947e-05
-7.99031e-07
6.04339e-05
-7.37382e-07
6.11136e-05
-6.77932e-07
6.17361e-05
-6.20787e-07
6.23038e-05
-5.66017e-07
6.28191e-05
-5.13659e-07
6.32844e-05
-4.63726e-07
6.37021e-05
-4.16209e-07
6.40747e-05
-3.71077e-07
6.44044e-05
-3.28284e-07
6.46935e-05
-2.87769e-07
6.49442e-05
-2.49458e-07
6.51587e-05
-2.13262e-07
6.53389e-05
-1.79083e-07
6.54868e-05
-1.46811e-07
6.56041e-05
-1.16322e-07
6.56924e-05
-8.74844e-08
6.57534e-05
-6.0151e-08
6.57883e-05
-3.41631e-08
6.57982e-05
-9.34908e-09
6.57843e-05
1.44611e-08
6.57473e-05
3.74426e-08
6.56878e-05
5.97988e-08
6.56063e-05
8.17674e-08
6.55028e-05
1.03617e-07
6.53772e-05
1.25652e-07
6.52289e-05
1.48218e-07
6.5057e-05
1.71718e-07
6.48602e-05
1.96623e-07
6.46363e-05
2.235e-07
6.43829e-05
2.53039e-07
6.40963e-05
2.86103e-07
6.37719e-05
3.23802e-07
6.34037e-05
3.676e-07
6.29834e-05
4.19494e-07
6.25004e-05
4.82305e-07
6.19393e-05
5.60179e-07
6.1279e-05
6.59465e-07
6.04877e-05
7.90345e-07
5.95169e-05
9.69948e-07
5.82873e-05
1.22857e-06
5.66634e-05
1.623e-06
5.43912e-05
2.27115e-06
5.09221e-05
3.4682e-06
6.49839e-06
4.44228e-05
1.27354e-05
-5.63059e-07
1.32398e-05
-9.7835e-07
1.39223e-05
-1.32203e-06
1.47543e-05
-1.61058e-06
1.57154e-05
-1.85988e-06
1.67907e-05
-2.08046e-06
1.79697e-05
-2.28033e-06
1.92446e-05
-2.46558e-06
2.061e-05
-2.64027e-06
2.20617e-05
-2.80653e-06
2.35955e-05
-2.96472e-06
2.52065e-05
-3.11361e-06
2.68888e-05
-3.25084e-06
2.86348e-05
-3.37341e-06
3.04353e-05
-3.47818e-06
3.22797e-05
-3.56232e-06
3.4156e-05
-3.62364e-06
3.60518e-05
-3.6608e-06
3.79542e-05
-3.67337e-06
3.98509e-05
-3.66175e-06
4.17297e-05
-3.62711e-06
4.35798e-05
-3.57119e-06
4.5391e-05
-3.49614e-06
4.71548e-05
-3.40435e-06
4.88638e-05
-3.29832e-06
5.05118e-05
-3.18055e-06
5.20939e-05
-3.05341e-06
5.36066e-05
-2.91915e-06
5.50472e-05
-2.77979e-06
5.64138e-05
-2.63714e-06
5.77058e-05
-2.49281e-06
5.89228e-05
-2.34817e-06
6.00654e-05
-2.2044e-06
6.11345e-05
-2.06248e-06
6.21315e-05
-1.92323e-06
6.3058e-05
-1.78729e-06
6.39162e-05
-1.6552e-06
6.47081e-05
-1.52737e-06
6.54361e-05
-1.40409e-06
6.61028e-05
-1.28558e-06
6.67105e-05
-1.17199e-06
6.7262e-05
-1.0634e-06
6.77598e-05
-9.59831e-07
6.82065e-05
-8.61257e-07
6.86046e-05
-7.67618e-07
6.89567e-05
-6.78818e-07
6.92651e-05
-5.94727e-07
6.95322e-05
-5.15189e-07
6.97602e-05
-4.40022e-07
6.99514e-05
-3.69021e-07
7.01077e-05
-3.01957e-07
7.0231e-05
-2.38574e-07
7.0323e-05
-1.78597e-07
7.03855e-05
-1.21722e-07
7.04197e-05
-6.76201e-08
7.04269e-05
-1.59392e-08
7.04083e-05
3.36702e-08
7.03646e-05
8.15689e-08
7.02966e-05
1.28178e-07
7.02046e-05
1.73983e-07
7.00889e-05
2.19534e-07
6.99491e-05
2.65447e-07
6.97848e-05
3.12423e-07
6.95951e-05
3.61274e-07
6.93785e-05
4.12946e-07
6.91331e-05
4.68564e-07
6.88562e-05
5.29497e-07
6.85444e-05
5.97434e-07
6.8193e-05
6.74523e-07
6.77964e-05
7.63555e-07
6.73468e-05
8.68269e-07
6.68345e-05
9.93821e-07
6.62462e-05
1.14755e-06
6.55645e-05
1.34024e-06
6.47656e-05
1.58826e-06
6.38173e-05
1.91728e-06
6.26763e-05
2.36851e-06
6.12885e-05
3.00981e-06
5.96011e-05
3.95743e-06
5.76531e-05
5.41516e-06
7.65895e-06
5.64916e-05
1.36141e-05
-8.57876e-07
1.41465e-05
-1.51056e-06
1.48703e-05
-2.0453e-06
1.57548e-05
-2.49455e-06
1.67783e-05
-2.88259e-06
1.79247e-05
-3.22587e-06
1.91824e-05
-3.53696e-06
2.05434e-05
-3.82538e-06
2.20019e-05
-4.0975e-06
2.35536e-05
-4.35671e-06
2.51939e-05
-4.60354e-06
2.69181e-05
-4.8361e-06
2.87197e-05
-5.05069e-06
3.05907e-05
-5.2426e-06
3.25213e-05
-5.40686e-06
3.44999e-05
-5.53901e-06
3.65139e-05
-5.63558e-06
3.85496e-05
-5.69445e-06
4.05933e-05
-5.71488e-06
4.26312e-05
-5.69751e-06
4.46504e-05
-5.64414e-06
4.66389e-05
-5.55749e-06
4.8586e-05
-5.44092e-06
5.0482e-05
-5.29818e-06
5.23192e-05
-5.13319e-06
5.40907e-05
-4.94983e-06
5.57914e-05
-4.75184e-06
5.74173e-05
-4.54272e-06
5.89654e-05
-4.32564e-06
6.0434e-05
-4.10344e-06
6.1822e-05
-3.87862e-06
6.31294e-05
-3.65331e-06
6.43566e-05
-3.42937e-06
6.55046e-05
-3.2083e-06
6.6575e-05
-2.99139e-06
6.75695e-05
-2.77966e-06
6.84903e-05
-2.57392e-06
6.93398e-05
-2.3748e-06
7.01205e-05
-2.18278e-06
7.08351e-05
-1.99818e-06
7.14862e-05
-1.82123e-06
7.20768e-05
-1.65205e-06
7.26094e-05
-1.49066e-06
7.30869e-05
-1.33704e-06
7.35121e-05
-1.19109e-06
7.38876e-05
-1.05264e-06
7.42159e-05
-9.21498e-07
7.44996e-05
-7.97416e-07
7.4741e-05
-6.80108e-07
7.49426e-05
-5.69253e-07
7.51063e-05
-4.64493e-07
7.52343e-05
-3.65431e-07
7.53284e-05
-2.71638e-07
7.53902e-05
-1.82642e-07
7.54213e-05
-9.79347e-08
7.54231e-05
-1.6975e-08
7.53966e-05
6.07691e-08
7.53428e-05
1.35855e-07
7.52624e-05
2.08933e-07
7.51559e-05
2.80746e-07
7.50235e-05
3.52124e-07
7.4865e-05
4.23995e-07
7.468e-05
4.9741e-07
7.44675e-05
5.73568e-07
7.42263e-05
6.53864e-07
7.39546e-05
7.39935e-07
7.36498e-05
8.33742e-07
7.3309e-05
9.37676e-07
7.29282e-05
1.05471e-06
7.25024e-05
1.18863e-06
7.20255e-05
1.34433e-06
7.14901e-05
1.52833e-06
7.08872e-05
1.74946e-06
7.02066e-05
2.0199e-06
6.94371e-05
2.3567e-06
6.85694e-05
2.78391e-06
6.76016e-05
3.33521e-06
6.65537e-05
4.0566e-06
6.5503e-05
5.00708e-06
6.46716e-05
6.2454e-06
7.75566e-06
6.45738e-05
1.45518e-05
-1.15906e-06
1.51103e-05
-2.06877e-06
1.58743e-05
-2.80881e-06
1.68117e-05
-3.43133e-06
1.78989e-05
-3.96893e-06
1.91185e-05
-4.44446e-06
2.04582e-05
-4.8755e-06
2.19094e-05
-5.27533e-06
2.34662e-05
-5.6529e-06
2.5124e-05
-6.01296e-06
2.68785e-05
-6.35631e-06
2.87245e-05
-6.68033e-06
3.06555e-05
-6.97981e-06
3.2663e-05
-7.24811e-06
3.47364e-05
-7.47822e-06
3.68633e-05
-7.66381e-06
3.90298e-05
-7.79995e-06
4.12211e-05
-7.88357e-06
4.34221e-05
-7.9136e-06
4.56178e-05
-7.8909e-06
4.7794e-05
-7.81795e-06
4.99374e-05
-7.69856e-06
5.20363e-05
-7.53742e-06
5.40803e-05
-7.33977e-06
5.60607e-05
-7.1111e-06
5.79701e-05
-6.85684e-06
5.9803e-05
-6.58222e-06
6.15548e-05
-6.29211e-06
6.32225e-05
-5.99093e-06
6.48042e-05
-5.68266e-06
6.62987e-05
-5.37075e-06
6.7706e-05
-5.0582e-06
6.90266e-05
-4.74755e-06
7.02615e-05
-4.44092e-06
7.14125e-05
-4.14008e-06
7.24816e-05
-3.84643e-06
7.34711e-05
-3.56111e-06
7.43834e-05
-3.28497e-06
7.52215e-05
-3.01867e-06
7.59881e-05
-2.76266e-06
7.66862e-05
-2.51725e-06
7.73188e-05
-2.28259e-06
7.78888e-05
-2.05872e-06
7.83992e-05
-1.84559e-06
7.88529e-05
-1.64304e-06
7.92529e-05
-1.45086e-06
7.96018e-05
-1.26876e-06
7.99024e-05
-1.0964e-06
8.01571e-05
-9.33384e-07
8.03685e-05
-7.79259e-07
8.05389e-05
-6.33528e-07
8.06703e-05
-4.95646e-07
8.07648e-05
-3.65017e-07
8.08241e-05
-2.40992e-07
8.08499e-05
-1.22871e-07
8.08437e-05
-9.92988e-09
8.08065e-05
9.85452e-08
8.07396e-05
2.03326e-07
8.06437e-05
3.05298e-07
8.05192e-05
4.05458e-07
8.03666e-05
5.04908e-07
8.01858e-05
6.0487e-07
7.99765e-05
7.06714e-07
7.97379e-05
8.11989e-07
7.9469e-05
9.22466e-07
7.91683e-05
1.0402e-06
7.8834e-05
1.16759e-06
7.84635e-05
1.30751e-06
7.80541e-05
1.46343e-06
7.76024e-05
1.63961e-06
7.71045e-05
1.84136e-06
7.65565e-05
2.07535e-06
7.59549e-05
2.35006e-06
7.52975e-05
2.67626e-06
7.45855e-05
3.06752e-06
7.38278e-05
3.54053e-06
7.30472e-05
4.11467e-06
7.22926e-05
4.80999e-06
7.16571e-05
5.64136e-06
7.12967e-05
6.60466e-06
7.64385e-06
7.14073e-05
1.55538e-05
-1.46594e-06
1.61368e-05
-2.65143e-06
1.69403e-05
-3.61178e-06
1.79307e-05
-4.42108e-06
1.90828e-05
-5.12013e-06
2.0378e-05
-5.73852e-06
2.1803e-05
-6.2993e-06
2.3349e-05
-6.81991e-06
2.50098e-05
-7.31218e-06
2.67809e-05
-7.78243e-06
2.86582e-05
-8.23178e-06
3.06365e-05
-8.65676e-06
3.27092e-05
-9.05049e-06
3.48673e-05
-9.40406e-06
3.70993e-05
-9.70811e-06
3.93919e-05
-9.95409e-06
4.17296e-05
-1.01353e-05
4.40961e-05
-1.02477e-05
4.64746e-05
-1.02897e-05
4.88485e-05
-1.02623e-05
5.12019e-05
-1.01689e-05
5.35203e-05
-1.00144e-05
5.57905e-05
-9.80503e-06
5.80011e-05
-9.54778e-06
6.01424e-05
-9.24983e-06
6.22066e-05
-8.91838e-06
6.41873e-05
-8.56031e-06
6.60798e-05
-8.182e-06
6.78808e-05
-7.7893e-06
6.95881e-05
-7.38737e-06
7.12007e-05
-6.98077e-06
7.27185e-05
-6.57339e-06
7.4142e-05
-6.16856e-06
7.54727e-05
-5.76905e-06
7.67122e-05
-5.37712e-06
7.78629e-05
-4.99462e-06
7.89272e-05
-4.623e-06
7.9908e-05
-4.26338e-06
8.08082e-05
-3.91658e-06
8.1631e-05
-3.58321e-06
8.23796e-05
-3.26361e-06
8.30572e-05
-2.958e-06
8.3667e-05
-2.66642e-06
8.42122e-05
-2.38877e-06
8.46959e-05
-2.12486e-06
8.51213e-05
-1.87439e-06
8.54914e-05
-1.63699e-06
8.58088e-05
-1.4122e-06
8.60766e-05
-1.1995e-06
8.62971e-05
-9.983e-07
8.64729e-05
-8.07963e-07
8.66064e-05
-6.27778e-07
8.66995e-05
-4.56974e-07
8.67543e-05
-2.94716e-07
8.67725e-05
-1.40104e-07
8.67556e-05
7.75615e-09
8.67051e-05
1.49752e-07
8.66221e-05
2.86898e-07
8.65076e-05
4.20305e-07
8.63621e-05
5.51211e-07
8.61863e-05
6.80967e-07
8.59802e-05
8.11057e-07
8.57437e-05
9.43119e-07
8.54766e-05
1.07898e-06
8.51781e-05
1.22068e-06
8.48473e-05
1.37054e-06
8.44831e-05
1.53122e-06
8.40842e-05
1.70579e-06
8.36491e-05
1.89782e-06
8.31764e-05
2.11149e-06
8.26651e-05
2.35174e-06
8.21151e-05
2.62438e-06
8.15279e-05
2.93615e-06
8.09083e-05
3.29479e-06
8.02659e-05
3.70871e-06
7.96188e-05
4.18639e-06
7.89974e-05
4.73483e-06
7.84493e-05
5.35683e-06
7.80431e-05
6.04636e-06
7.78651e-05
6.78136e-06
7.51239e-06
7.79953e-05
1.66253e-05
-1.77862e-06
1.72319e-05
-3.25771e-06
1.80746e-05
-4.45392e-06
1.91186e-05
-5.46426e-06
2.03371e-05
-6.33769e-06
2.17104e-05
-7.11066e-06
2.32245e-05
-7.81216e-06
2.48704e-05
-8.46427e-06
2.66419e-05
-9.08206e-06
2.8535e-05
-9.67368e-06
3.05457e-05
-1.02406e-05
3.26694e-05
-1.07784e-05
3.48994e-05
-1.12782e-05
3.7226e-05
-1.17284e-05
3.9637e-05
-1.21168e-05
4.21174e-05
-1.24321e-05
4.46501e-05
-1.26655e-05
4.72166e-05
-1.28116e-05
4.97979e-05
-1.28684e-05
5.23754e-05
-1.28371e-05
5.49311e-05
-1.27219e-05
5.74486e-05
-1.25292e-05
5.99134e-05
-1.22671e-05
6.23128e-05
-1.19443e-05
6.46359e-05
-1.15702e-05
6.68743e-05
-1.11539e-05
6.90209e-05
-1.07041e-05
7.10707e-05
-1.0229e-05
7.30201e-05
-9.73593e-06
7.4867e-05
-9.23144e-06
7.66103e-05
-8.72125e-06
7.82499e-05
-8.21026e-06
7.97867e-05
-7.70262e-06
8.12222e-05
-7.2018e-06
8.25584e-05
-6.71064e-06
8.37978e-05
-6.2314e-06
8.49433e-05
-5.7659e-06
8.5998e-05
-5.3155e-06
8.69651e-05
-4.88122e-06
8.78481e-05
-4.46378e-06
8.86505e-05
-4.06362e-06
8.93758e-05
-3.68096e-06
9.00275e-05
-3.31584e-06
9.0609e-05
-2.96813e-06
9.11238e-05
-2.63756e-06
9.15752e-05
-2.32376e-06
9.19663e-05
-2.02624e-06
9.23004e-05
-1.74443e-06
9.25803e-05
-1.47766e-06
9.28088e-05
-1.22522e-06
9.29887e-05
-9.86284e-07
9.31223e-05
-7.59984e-07
9.32119e-05
-5.45369e-07
9.32598e-05
-3.41417e-07
9.32677e-05
-1.47026e-07
9.32375e-05
3.8872e-08
9.31707e-05
2.17345e-07
9.30686e-05
3.89615e-07
9.29324e-05
5.57031e-07
9.27629e-05
7.21048e-07
9.25609e-05
8.83231e-07
9.23268e-05
1.04527e-06
9.20608e-05
1.209e-06
9.17632e-05
1.37644e-06
9.14338e-05
1.54976e-06
9.10725e-05
1.73141e-06
9.06792e-05
1.92404e-06
9.02537e-05
2.13065e-06
8.97962e-05
2.35451e-06
8.93075e-05
2.59929e-06
8.87893e-05
2.86897e-06
8.82448e-05
3.16783e-06
8.76796e-05
3.50032e-06
8.71024e-05
3.87072e-06
8.65273e-05
4.28264e-06
8.59742e-05
4.73815e-06
8.54714e-05
5.23639e-06
8.50551e-05
5.77176e-06
8.47686e-05
6.33147e-06
8.46557e-05
6.89299e-06
7.42198e-06
8.47448e-05
1.77718e-05
-2.09785e-06
1.84019e-05
-3.8875e-06
1.92842e-05
-5.3356e-06
2.03826e-05
-6.56188e-06
2.16695e-05
-7.6236e-06
2.31241e-05
-8.56404e-06
2.4732e-05
-9.41861e-06
2.64839e-05
-1.02146e-05
2.83744e-05
-1.09708e-05
3.04001e-05
-1.16974e-05
3.2558e-05
-1.23965e-05
3.4844e-05
-1.30623e-05
3.72514e-05
-1.36833e-05
3.97702e-05
-1.42448e-05
4.23867e-05
-1.47307e-05
4.50838e-05
-1.51266e-05
4.78419e-05
-1.5421e-05
5.06399e-05
-1.56069e-05
5.34558e-05
-1.56815e-05
5.62682e-05
-1.56465e-05
5.90566e-05
-1.55074e-05
6.18025e-05
-1.52722e-05
6.44894e-05
-1.4951e-05
6.71032e-05
-1.45551e-05
6.9632e-05
-1.4096e-05
7.20663e-05
-1.35852e-05
7.43989e-05
-1.30336e-05
7.66241e-05
-1.24512e-05
7.87384e-05
-1.18472e-05
8.07396e-05
-1.12296e-05
8.26267e-05
-1.06054e-05
8.43999e-05
-9.98052e-06
8.60604e-05
-9.36012e-06
8.76098e-05
-8.74835e-06
8.90507e-05
-8.14865e-06
9.03859e-05
-7.56375e-06
9.16186e-05
-6.9958e-06
9.27523e-05
-6.44644e-06
9.37906e-05
-5.91687e-06
9.47374e-05
-5.40793e-06
9.55965e-05
-4.9201e-06
9.63716e-05
-4.45364e-06
9.70668e-05
-4.00855e-06
9.76856e-05
-3.58465e-06
9.82319e-05
-3.18161e-06
9.87093e-05
-2.79893e-06
9.91211e-05
-2.43602e-06
9.94708e-05
-2.09217e-06
9.97616e-05
-1.76656e-06
9.99964e-05
-1.45832e-06
0.000100178
-1.16646e-06
0.00010031
-8.8993e-07
0.000100393
-6.27603e-07
0.000100431
-3.78264e-07
0.000100426
-1.40624e-07
0.000100379
8.65617e-08
0.000100293
3.04531e-07
0.000100169
5.14719e-07
0.000100008
7.18686e-07
9.9811e-05
9.1807e-07
9.95799e-05
1.1146e-06
9.93152e-05
1.31012e-06
9.90176e-05
1.50657e-06
9.86878e-05
1.70604e-06
9.83265e-05
1.91073e-06
9.79345e-05
2.12299e-06
9.75127e-05
2.34532e-06
9.70623e-05
2.58036e-06
9.65852e-05
2.83084e-06
9.6084e-05
3.09956e-06
9.55627e-05
3.3893e-06
9.50268e-05
3.70265e-06
9.44841e-05
4.04178e-06
9.39455e-05
4.40807e-06
9.34253e-05
4.80161e-06
9.29415e-05
5.22056e-06
9.25162e-05
5.66029e-06
9.21741e-05
6.11252e-06
9.19396e-05
6.56454e-06
9.18323e-05
6.99884e-06
7.39413e-06
9.18587e-05
1.89987e-05
-2.42489e-06
1.96531e-05
-4.54147e-06
2.05761e-05
-6.25796e-06
2.17308e-05
-7.71574e-06
2.30889e-05
-8.9806e-06
2.46289e-05
-1.01027e-05
2.63361e-05
-1.11243e-05
2.82019e-05
-1.20786e-05
3.02218e-05
-1.29888e-05
3.23941e-05
-1.38676e-05
3.47172e-05
-1.47173e-05
3.7188e-05
-1.55307e-05
3.97999e-05
-1.62928e-05
4.25421e-05
-1.69843e-05
4.53987e-05
-1.75847e-05
4.835e-05
-1.8075e-05
5.13727e-05
-1.84408e-05
5.44417e-05
-1.86729e-05
5.75313e-05
-1.8768e-05
6.06164e-05
-1.87286e-05
6.36736e-05
-1.85615e-05
6.66817e-05
-1.82771e-05
6.96221e-05
-1.78882e-05
7.2479e-05
-1.74088e-05
7.52396e-05
-1.68534e-05
7.78936e-05
-1.62359e-05
8.04332e-05
-1.55699e-05
8.28528e-05
-1.48676e-05
8.51487e-05
-1.41399e-05
8.7319e-05
-1.33966e-05
8.9363e-05
-1.26461e-05
9.12813e-05
-1.18956e-05
9.30754e-05
-1.1151e-05
9.47474e-05
-1.04173e-05
9.63005e-05
-9.69856e-06
9.77377e-05
-8.99796e-06
9.9063e-05
-8.31801e-06
0.00010028
-7.6606e-06
0.000101393
-7.02711e-06
0.000102407
-6.41844e-06
0.000103324
-5.83516e-06
0.000104151
-5.27749e-06
0.00010489
-4.74542e-06
0.000105547
-4.23868e-06
0.000106125
-3.75683e-06
0.000106627
-3.29927e-06
0.000107059
-2.86526e-06
0.000107423
-2.45394e-06
0.000107722
-2.06434e-06
0.000107961
-1.69541e-06
0.000108143
-1.346e-06
0.000108269
-1.01486e-06
0.000108344
-7.00685e-07
0.000108369
-4.02084e-07
0.000108347
-1.17596e-07
0.000108281
1.542e-07
0.000108171
4.1471e-07
0.000108021
6.65582e-07
0.000107832
9.08551e-07
0.000107605
1.14539e-06
0.000107342
1.37796e-06
0.000107044
1.60814e-06
0.000106713
1.83794e-06
0.00010635
2.06938e-06
0.000105955
2.30457e-06
0.000105532
2.54566e-06
0.000105082
2.79479e-06
0.000104608
3.0541e-06
0.000104112
3.32564e-06
0.0001036
3.61126e-06
0.000103075
3.91254e-06
0.000102546
4.23055e-06
0.000102021
4.56568e-06
0.000101511
4.9173e-06
0.000101027
5.28347e-06
0.000100586
5.66056e-06
0.000100202
6.04291e-06
9.98905e-05
6.42257e-06
9.96642e-05
6.78936e-06
9.95303e-05
7.13123e-06
7.43576e-06
9.94871e-05
2.03121e-05
-2.76139e-06
2.09922e-05
-5.22108e-06
2.19579e-05
-7.22303e-06
2.31716e-05
-8.92854e-06
2.46047e-05
-1.04124e-05
2.62352e-05
-1.17318e-05
2.80491e-05
-1.29365e-05
3.00388e-05
-1.40665e-05
3.22021e-05
-1.51501e-05
3.45397e-05
-1.6203e-05
3.70524e-05
-1.72276e-05
3.97383e-05
-1.82141e-05
4.25912e-05
-1.91429e-05
4.55982e-05
-1.99886e-05
4.87407e-05
-2.07241e-05
5.19941e-05
-2.13254e-05
5.53302e-05
-2.17738e-05
5.87186e-05
-2.20581e-05
6.21286e-05
-2.21748e-05
6.55307e-05
-2.21274e-05
6.88977e-05
-2.19251e-05
7.22054e-05
-2.15814e-05
7.54332e-05
-2.11125e-05
7.85638e-05
-2.05359e-05
8.15832e-05
-1.98693e-05
8.44807e-05
-1.91299e-05
8.72483e-05
-1.8334e-05
8.98806e-05
-1.74963e-05
9.23741e-05
-1.66299e-05
9.47273e-05
-1.57463e-05
9.69401e-05
-1.48554e-05
9.90136e-05
-1.39656e-05
0.00010095
-1.30839e-05
0.000102752
-1.2216e-05
0.000104423
-1.13665e-05
0.000105968
-1.05391e-05
0.00010739
-9.73666e-06
0.000108693
-8.96126e-06
0.000109884
-8.21443e-06
0.000110966
-7.49715e-06
0.000111944
-6.81e-06
0.000112822
-6.15317e-06
0.000113606
-5.52657e-06
0.0001143
-4.92984e-06
0.000114908
-4.36241e-06
0.000115435
-3.82356e-06
0.000115885
-3.31236e-06
0.000116261
-2.82782e-06
0.000116567
-2.36877e-06
0.000116808
-1.93399e-06
0.000116986
-1.52214e-06
0.000117105
-1.13181e-06
0.000117167
-7.61488e-07
0.000117176
-4.09615e-07
0.000117135
-7.46122e-08
0.000117045
2.45116e-07
0.000116909
5.51187e-07
0.00011673
8.4544e-07
0.00011651
1.12973e-06
0.00011625
1.40594e-06
0.000115952
1.67594e-06
0.000115619
1.94167e-06
0.000115252
2.20504e-06
0.000114853
2.46798e-06
0.000114425
2.7324e-06
0.00011397
3.00013e-06
0.000113492
3.2729e-06
0.000112993
3.5523e-06
0.000112478
3.83967e-06
0.000111952
4.13602e-06
0.000111422
4.44191e-06
0.000110894
4.75731e-06
0.000110377
5.08146e-06
0.00010988
5.41265e-06
0.000109414
5.7481e-06
0.000108989
6.08383e-06
0.000108616
6.41463e-06
0.000108303
6.73407e-06
0.000108056
7.03486e-06
0.000107876
7.3093e-06
7.55051e-06
0.00010776
2.1718e-05
-3.10932e-06
2.24259e-05
-5.92852e-06
2.34373e-05
-8.2337e-06
2.47139e-05
-1.02041e-05
2.62268e-05
-1.19241e-05
2.79548e-05
-1.34582e-05
2.98848e-05
-1.48648e-05
3.20121e-05
-1.61917e-05
3.43378e-05
-1.74736e-05
3.68665e-05
-1.87292e-05
3.96022e-05
-1.99608e-05
4.2545e-05
-2.11541e-05
4.56877e-05
-2.22827e-05
4.90144e-05
-2.33122e-05
5.2501e-05
-2.42076e-05
5.61164e-05
-2.49376e-05
5.98252e-05
-2.54792e-05
6.35899e-05
-2.58193e-05
6.73735e-05
-2.59549e-05
7.11413e-05
-2.58916e-05
7.48621e-05
-2.56422e-05
7.85086e-05
-2.52243e-05
8.20582e-05
-2.46583e-05
8.54922e-05
-2.39662e-05
8.87963e-05
-2.31695e-05
9.19594e-05
-2.22893e-05
9.4974e-05
-2.13448e-05
9.78349e-05
-2.03535e-05
0.00010054
-1.93307e-05
0.000103087
-1.829e-05
0.000105478
-1.72427e-05
0.000107714
-1.61984e-05
0.0001098
-1.51652e-05
0.000111737
-1.41495e-05
0.00011353
-1.31566e-05
0.000115185
-1.21904e-05
0.000116706
-1.12542e-05
0.000118099
-1.03501e-05
0.000119368
-9.47996e-06
0.000120518
-8.64464e-06
0.000121556
-7.84472e-06
0.000122487
-7.08033e-06
0.000123314
-6.35128e-06
0.000124045
-5.65706e-06
0.000124682
-4.99698e-06
0.000125231
-4.37013e-06
0.000125697
-3.77542e-06
0.000126083
-3.21165e-06
0.000126394
-2.67749e-06
0.000126634
-2.17152e-06
0.000126806
-1.69222e-06
0.000126914
-1.23799e-06
0.000126962
-8.07129e-07
0.000126952
-3.97894e-07
0.000126887
-8.72518e-09
0.000126772
3.62156e-07
0.000126607
7.16756e-07
0.000126397
1.05699e-06
0.000126142
1.38478e-06
0.000125847
1.70204e-06
0.000125513
2.01066e-06
0.000125142
2.31252e-06
0.000124738
2.60944e-06
0.000124303
2.90315e-06
0.00012384
3.19532e-06
0.000123352
3.48744e-06
0.000122843
3.78083e-06
0.000122318
4.07656e-06
0.000121782
4.37537e-06
0.000121239
4.67764e-06
0.000120697
4.98322e-06
0.000120162
5.29144e-06
0.000119641
5.60096e-06
0.000119142
5.90972e-06
0.000118674
6.21493e-06
0.000118243
6.51306e-06
0.000117857
6.79993e-06
0.000117518
7.07088e-06
0.00011723
7.32108e-06
0.000116992
7.5459e-06
7.74182e-06
0.000116799
2.32229e-05
-3.47088e-06
2.39616e-05
-6.66672e-06
2.50225e-05
-9.29383e-06
2.63669e-05
-1.15473e-05
2.79663e-05
-1.35222e-05
2.98008e-05
-1.5291e-05
3.18599e-05
-1.6922e-05
3.41433e-05
-1.8473e-05
3.66579e-05
-1.99857e-05
3.94137e-05
-2.14825e-05
4.24192e-05
-2.29634e-05
4.56754e-05
-2.44074e-05
4.91728e-05
-2.57768e-05
5.28895e-05
-2.70257e-05
5.67929e-05
-2.81076e-05
6.08422e-05
-2.89834e-05
6.49922e-05
-2.96255e-05
6.91965e-05
-3.00199e-05
7.34108e-05
-3.01654e-05
7.75947e-05
-3.00717e-05
8.1713e-05
-2.97565e-05
8.57357e-05
-2.9243e-05
8.96386e-05
-2.85572e-05
9.34026e-05
-2.77261e-05
9.70132e-05
-2.6776e-05
0.00010046
-2.5732e-05
0.000103736
-2.46168e-05
0.000106837
-2.34507e-05
0.000109763
-2.22517e-05
0.000112512
-2.1035e-05
0.000115087
-1.98136e-05
0.00011749
-1.85983e-05
0.000119727
-1.73981e-05
0.000121802
-1.62202e-05
0.000123719
-1.50702e-05
0.000125485
-1.39526e-05
0.000127106
-1.28707e-05
0.000128586
-1.1827e-05
0.000129933
-1.08231e-05
0.000131152
-9.85996e-06
0.000132249
-8.93812e-06
0.00013323
-8.05756e-06
0.0001341
-7.21794e-06
0.000134864
-6.4186e-06
0.000135529
-5.65864e-06
0.000136099
-4.93697e-06
0.000136579
-4.2523e-06
0.000136973
-3.60324e-06
0.000137286
-2.98826e-06
0.000137523
-2.40572e-06
0.000137687
-1.85394e-06
0.000137782
-1.33113e-06
0.000137813
-8.35459e-07
0.000137782
-3.6504e-07
0.000137693
8.19421e-08
0.000137549
5.07382e-07
0.000137353
9.13395e-07
0.000137109
1.30205e-06
0.00013682
1.67531e-06
0.000136488
2.03512e-06
0.000136115
2.38333e-06
0.000135707
2.72173e-06
0.000135264
3.05199e-06
0.000134792
3.37567e-06
0.000134293
3.69416e-06
0.000133771
4.00866e-06
0.000133231
4.32012e-06
0.000132678
4.62922e-06
0.000132116
4.93628e-06
0.000131552
5.24125e-06
0.00013099
5.54366e-06
0.000130438
5.84255e-06
0.000129901
6.13648e-06
0.000129386
6.42352e-06
0.000128898
6.70132e-06
0.000128443
6.96711e-06
0.000128023
7.2179e-06
0.000127642
7.4506e-06
0.000127299
7.66224e-06
0.000126993
7.85025e-06
8.0131e-06
0.00012672
2.48336e-05
-3.84853e-06
2.56068e-05
-7.43939e-06
2.67221e-05
-1.04083e-05
2.81407e-05
-1.29647e-05
2.98353e-05
-1.52153e-05
3.17884e-05
-1.72423e-05
3.39946e-05
-1.91262e-05
3.64606e-05
-2.09365e-05
3.92016e-05
-2.27241e-05
4.22355e-05
-2.45135e-05
4.55749e-05
-2.62998e-05
4.92203e-05
-2.80496e-05
5.31562e-05
-2.97093e-05
5.73503e-05
-3.12162e-05
6.17569e-05
-3.25104e-05
6.63216e-05
-3.35443e-05
7.0987e-05
-3.42869e-05
7.56965e-05
-3.47253e-05
8.03979e-05
-3.48627e-05
8.50455e-05
-3.4715e-05
8.96004e-05
-3.43071e-05
9.40311e-05
-3.36694e-05
9.83127e-05
-3.28345e-05
0.000102427
-3.18355e-05
0.000106359
-3.0704e-05
0.000110101
-2.94694e-05
0.000113647
-2.81583e-05
0.000116994
-2.67939e-05
0.000120143
-2.53964e-05
0.000123096
-2.39833e-05
0.000125856
-2.25688e-05
0.000128427
-2.11649e-05
0.000130815
-1.97815e-05
0.000133025
-1.84262e-05
0.000135064
-1.71052e-05
0.000136939
-1.58232e-05
0.000138656
-1.45837e-05
0.000140223
-1.33891e-05
0.000141644
-1.2241e-05
0.000142929
-1.11404e-05
0.000144082
-1.00875e-05
0.00014511
-9.08219e-06
0.00014602
-8.12396e-06
0.000146817
-7.21193e-06
0.000147507
-6.34497e-06
0.000148095
-5.52178e-06
0.000148586
-4.74084e-06
0.000148987
-4.00054e-06
0.0001493
-3.29914e-06
0.000149532
-2.63481e-06
0.000149686
-2.00566e-06
0.000149767
-1.40976e-06
0.000149779
-8.45127e-07
0.000149726
-3.09754e-07
0.000149611
1.98435e-07
0.000149439
6.81485e-07
0.000149212
1.1416e-06
0.000148934
1.58092e-06
0.000148609
2.00147e-06
0.00014824
2.40514e-06
0.000147831
2.79376e-06
0.000147384
3.169e-06
0.000146904
3.5324e-06
0.000146394
3.88535e-06
0.000145859
4.22902e-06
0.000145303
4.56437e-06
0.000144731
4.89209e-06
0.000144147
5.21262e-06
0.000143556
5.52604e-06
0.000142965
5.83214e-06
0.000142377
6.13035e-06
0.000141799
6.41975e-06
0.000141235
6.69911e-06
0.00014069
6.9669e-06
0.000140169
7.22137e-06
0.000139673
7.46061e-06
0.000139207
7.68269e-06
0.00013877
7.88576e-06
0.000138363
8.06819e-06
0.000137982
8.22878e-06
8.36716e-06
0.000137627
2.65573e-05
-4.24499e-06
2.73696e-05
-8.25108e-06
2.85455e-05
-1.15833e-05
3.00466e-05
-1.44646e-05
3.18479e-05
-1.70149e-05
3.39366e-05
-1.9329e-05
3.63153e-05
-2.15026e-05
3.90017e-05
-2.36204e-05
4.2023e-05
-2.57426e-05
4.5406e-05
-2.78935e-05
4.91664e-05
-3.00568e-05
5.32997e-05
-3.21794e-05
5.7778e-05
-3.41839e-05
6.25523e-05
-3.59866e-05
6.75585e-05
-3.75126e-05
7.27251e-05
-3.87067e-05
7.79803e-05
-3.95378e-05
8.32568e-05
-3.99975e-05
8.84955e-05
-4.00968e-05
9.3646e-05
-3.98609e-05
9.86677e-05
-3.93241e-05
0.000103529
-3.85255e-05
0.000108205
-3.75058e-05
0.000112679
-3.63046e-05
0.000116939
-3.49595e-05
0.000120979
-3.35043e-05
0.000124794
-3.19693e-05
0.000128386
-3.03809e-05
0.000131756
-2.87616e-05
0.000134908
-2.71304e-05
0.000137848
-2.55031e-05
0.00014058
-2.38927e-05
0.000143113
-2.23094e-05
0.000145453
-2.07617e-05
0.000147608
-1.92558e-05
0.000149586
-1.77966e-05
0.000151394
-1.63876e-05
0.000153041
-1.50311e-05
0.000154533
-1.37287e-05
0.000155878
-1.24811e-05
0.000157083
-1.12884e-05
0.000158155
-1.01502e-05
0.000159101
-9.06565e-06
0.000159926
-8.03373e-06
0.000160638
-7.05302e-06
0.000161242
-6.12196e-06
0.000161743
-5.23879e-06
0.000162147
-4.40166e-06
0.00016246
-3.6086e-06
0.000162686
-2.85758e-06
0.00016283
-2.14653e-06
0.000162896
-1.47335e-06
0.000162889
-8.35907e-07
0.000162814
-2.32094e-07
0.000162674
3.40404e-07
0.000162473
8.83805e-07
0.000162216
1.40041e-06
0.000161906
1.89239e-06
0.000161547
2.36178e-06
0.000161143
2.81047e-06
0.000160697
3.2402e-06
0.000160214
3.65258e-06
0.000159698
4.04903e-06
0.000159153
4.43081e-06
0.000158583
4.79894e-06
0.000157993
5.15423e-06
0.000157388
5.49725e-06
0.000156772
5.82832e-06
0.000156149
6.1475e-06
0.000155526
6.45457e-06
0.000154907
6.74908e-06
0.000154295
7.03036e-06
0.000153695
7.29752e-06
0.000153111
7.54955e-06
0.000152546
7.78533e-06
0.000152001
8.00375e-06
0.000151479
8.20373e-06
0.000150979
8.38436e-06
0.0001505
8.54496e-06
0.000150042
8.68518e-06
8.80539e-06
0.000149602
2.84018e-05
-4.66332e-06
2.92587e-05
-9.10736e-06
3.0503e-05
-1.28265e-05
3.20976e-05
-1.60578e-05
3.40213e-05
-1.89367e-05
3.62694e-05
-2.1575e-05
3.88576e-05
-2.40883e-05
4.18196e-05
-2.65796e-05
4.51977e-05
-2.91176e-05
4.90276e-05
-3.172e-05
5.3323e-05
-3.43487e-05
5.80667e-05
-3.69192e-05
6.32093e-05
-3.93225e-05
6.86772e-05
-4.14502e-05
7.43826e-05
-4.32136e-05
8.02344e-05
-4.4554e-05
8.61461e-05
-4.54449e-05
9.20412e-05
-4.58877e-05
9.78547e-05
-4.59054e-05
0.000103534
-4.55356e-05
0.000109039
-4.48242e-05
0.00011434
-4.38205e-05
0.000119413
-4.25741e-05
0.000124246
-4.1132e-05
0.000128829
-3.95374e-05
0.000133159
-3.7829e-05
0.000137236
-3.60406e-05
0.000141061
-3.42013e-05
0.000144641
-3.23358e-05
0.00014798
-3.04647e-05
0.000151087
-2.86048e-05
0.00015397
-2.67698e-05
0.000156636
-2.49705e-05
0.000159095
-2.32156e-05
0.000161355
-2.15114e-05
0.000163427
-1.98628e-05
0.000165317
-1.82731e-05
0.000167035
-1.67446e-05
0.00016859
-1.52784e-05
0.000169988
-1.38751e-05
0.000171239
-1.25345e-05
0.000172349
-1.12558e-05
0.000173326
-1.0038e-05
0.000174176
-8.87971e-06
0.000174906
-7.77916e-06
0.000175523
-6.73452e-06
0.000176032
-5.74379e-06
0.000176438
-4.80484e-06
0.000176749
-3.91548e-06
0.000176968
-3.07345e-06
0.000177101
-2.2765e-06
0.000177153
-1.52235e-06
0.000177128
-8.08738e-07
0.000177032
-1.3345e-07
0.000176869
5.06045e-07
0.000176643
1.11215e-06
0.000176358
1.68727e-06
0.000176018
2.23359e-06
0.000175629
2.75314e-06
0.000175193
3.2478e-06
0.000174715
3.71928e-06
0.000174199
4.16913e-06
0.00017365
4.59871e-06
0.000173072
5.0092e-06
0.00017247
5.40156e-06
0.000171847
5.77657e-06
0.00017121
6.13477e-06
0.000170561
6.4765e-06
0.000169906
6.80191e-06
0.000169249
7.11096e-06
0.000168594
7.40343e-06
0.000167944
7.67896e-06
0.000167304
7.93712e-06
0.000166675
8.17738e-06
0.000166059
8.39924e-06
0.00016546
8.60222e-06
0.000164876
8.78594e-06
0.000164309
8.95017e-06
0.000163757
9.09485e-06
0.00016322
9.22022e-06
9.32707e-06
0.000162697
3.03755e-05
-5.10706e-06
3.12839e-05
-1.00151e-05
3.26065e-05
-1.4148e-05
3.43091e-05
-1.77589e-05
3.63772e-05
-2.10029e-05
3.88196e-05
-2.40151e-05
4.16714e-05
-2.69374e-05
4.49884e-05
-2.98936e-05
4.88301e-05
-3.29559e-05
5.32367e-05
-3.61229e-05
5.82101e-05
-3.93182e-05
6.37076e-05
-4.24124e-05
6.96474e-05
-4.52579e-05
7.59235e-05
-4.77217e-05
8.2421e-05
-4.97063e-05
8.90291e-05
-5.1157e-05
9.56485e-05
-5.20592e-05
0.000102196
-5.24298e-05
0.000108604
-5.23082e-05
0.000114821
-5.17475e-05
0.00012081
-5.0807e-05
0.000126543
-4.95476e-05
0.000132002
-4.8028e-05
0.000137178
-4.63026e-05
0.000142067
-4.44204e-05
0.000146668
-4.24245e-05
0.000150986
-4.03521e-05
0.000155025
-3.82348e-05
0.000158794
-3.6099e-05
0.000162301
-3.39664e-05
0.000165557
-3.18546e-05
0.000168571
-2.97779e-05
0.000171353
-2.77474e-05
0.000173915
-2.57716e-05
0.000176266
-2.38568e-05
0.000178416
-2.20077e-05
0.000180376
-2.02273e-05
0.000182154
-1.85176e-05
0.00018376
-1.68794e-05
0.000185203
-1.53128e-05
0.000186491
-1.38173e-05
0.000187632
-1.23917e-05
0.000188633
-1.10347e-05
0.000189503
-9.74447e-06
0.000190247
-8.51895e-06
0.000190873
-7.35598e-06
0.000191386
-6.25325e-06
0.000191794
-5.20837e-06
0.000192101
-4.21888e-06
0.000192314
-3.28232e-06
0.000192437
-2.39622e-06
0.000192476
-1.55812e-06
0.000192436
-7.65598e-07
0.000192322
-1.64152e-08
0.000192138
6.92171e-07
0.00019189
1.36287e-06
0.000191581
1.99811e-06
0.000191217
2.60008e-06
0.000190801
3.17083e-06
0.000190338
3.71225e-06
0.000189833
4.22604e-06
0.000189289
4.71375e-06
0.000188712
5.17673e-06
0.000188106