/*--------------------------------*- C++ -*----------------------------------*\
  =========                 |
  \\      /  F ield         | OpenFOAM: The Open Source CFD Toolbox
   \\    /   O peration     | Website:  https://openfoam.org
    \\  /    A nd           | Version:  7
     \\/     M anipulation  |
\*---------------------------------------------------------------------------*/
FoamFile
{
    version     2.0;
    format      ascii;
    class       volScalarField;
    location    "2.3";
    object      p;
}
// * * * * * * * * * * * * * * * * * * * * * * * * * * * * * * * * * * * * * //

dimensions      [0 2 -2 0 0 0 0];

internalField   nonuniform List<scalar> 
2790
(
148.785
148.692
148.96
149.531
150.311
151.269
152.402
153.709
155.186
156.827
158.626
160.578
162.671
164.896
167.237
169.672
172.176
174.714
177.246
179.719
182.077
184.253
186.183
187.803
189.062
189.935
190.371
190.426
190.477
190.689
148.582
148.6
148.892
149.461
150.237
151.192
152.32
153.621
155.09
156.723
158.514
160.455
162.538
164.751
167.081
169.506
172.001
174.534
177.064
179.541
181.909
184.103
186.057
187.704
188.988
189.862
190.258
190.313
190.445
190.73
148.383
148.471
148.782
149.341
150.104
151.046
152.159
153.442
154.89
156.498
158.261
160.17
162.218
164.394
166.682
169.064
171.515
174.006
176.497
178.944
181.293
183.485
185.456
187.145
188.495
189.47
190.063
190.418
190.733
191.032
148.158
148.277
148.601
149.15
149.899
150.825
151.918
153.177
154.596
156.171
157.895
159.76
161.759
163.88
166.108
168.426
170.81
173.232
175.659
178.049
180.355
182.526
184.507
186.246
187.7
188.851
189.718
190.389
190.941
191.46
147.897
148.03
148.362
148.904
149.637
150.541
151.609
152.836
154.219
155.75
157.425
159.234
161.17
163.221
165.373
167.608
169.906
172.24
174.581
176.894
179.138
181.273
183.254
185.044
186.613
187.955
189.085
190.047
190.857
191.604
147.597
147.735
148.069
148.602
149.314
150.192
151.229
152.418
153.756
155.236
156.851
158.594
160.455
162.423
164.484
166.622
168.817
171.046
173.282
175.497
177.659
179.736
181.697
183.517
185.179
186.68
188.026
189.231
190.25
191.168
147.254
147.393
147.725
148.244
148.933
149.781
150.781
151.927
153.213
154.633
156.181
157.847
159.622
161.495
163.452
165.478
167.553
169.659
171.771
173.867
175.921
177.912
179.819
181.628
183.333
184.933
186.426
187.805
188.969
190.015
146.869
147.006
147.331
147.833
148.497
149.311
150.269
151.365
152.593
153.946
155.417
156.997
158.676
160.442
162.282
164.182
166.122
168.086
170.054
172.005
173.922
175.789
177.595
179.337
181.014
182.633
184.187
185.658
186.908
188.058
146.443
146.576
146.89
147.373
148.008
148.784
149.696
150.737
151.901
153.18
154.567
156.051
157.624
159.273
160.984
162.742
164.532
166.335
168.134
169.912
171.656
173.353
175
176.6
178.161
179.695
181.203
182.672
183.943
185.181
145.976
146.104
146.405
146.865
147.468
148.204
149.065
150.046
151.14
152.339
153.635
155.017
156.474
157.994
159.564
161.168
162.79
164.412
166.018
167.592
169.12
170.593
172.011
173.378
174.71
176.028
177.348
178.685
179.884
181.188
145.47
145.592
145.877
146.313
146.882
147.573
148.38
149.297
150.317
151.43
152.628
153.9
155.233
156.617
158.034
159.471
160.909
162.33
163.716
165.051
166.319
167.509
168.615
169.643
170.606
171.534
172.464
173.461
174.423
175.741
144.928
145.043
145.311
145.72
146.251
146.895
147.645
148.495
149.435
150.458
151.553
152.708
153.912
155.149
156.405
157.662
158.901
160.102
161.244
162.307
163.269
164.111
164.819
165.385
165.81
166.12
166.362
166.669
167.049
168.222
144.351
144.458
144.708
145.087
145.58
146.174
146.865
147.643
148.502
149.43
150.417
151.451
152.518
153.603
154.689
155.756
156.784
157.748
158.624
159.383
159.997
160.432
160.654
160.629
160.326
159.728
158.852
157.859
156.909
157.412
143.741
143.84
144.07
144.42
144.871
145.414
146.043
146.748
147.521
148.352
149.228
150.137
151.063
151.99
152.9
153.769
154.575
155.29
155.882
156.315
156.546
156.524
156.186
155.455
154.233
152.404
149.841
146.538
142.586
140.546
143.102
143.192
143.402
143.72
144.129
144.619
145.184
145.814
146.5
147.231
147.993
148.774
149.556
150.322
151.051
151.719
152.297
152.755
153.052
153.144
152.972
152.463
151.52
150.007
147.73
144.4
139.558
132.54
122.072
109.832
3.83303
3.79163
3.65696
3.46635
3.2559
3.04239
2.83195
2.62748
2.43087
2.2432
2.06504
1.8972
1.74188
1.60306
1.48522
1.38987
1.31396
1.25536
1.21554
1.19234
1.17729
1.16093
1.13623
1.09662
1.03438
0.944235
0.81849
0.650617
0.436434
0.176475
3.72833
3.68052
3.55533
3.38009
3.18441
2.9832
2.78285
2.58668
2.39682
2.21452
2.04041
1.87529
1.72154
1.58389
1.46807
1.3762
1.3033
1.24684
1.20904
1.18788
1.1744
1.15941
1.1363
1.09892
1.04012
0.951412
0.827833
0.661783
0.447623
0.177208
3.62683
3.57109
3.45148
3.2889
3.10724
2.9184
2.72849
2.54108
2.35853
2.18223
2.0128
1.85074
1.69856
1.56201
1.44894
1.36068
1.28466
1.22683
1.19763
1.18749
1.18289
1.17397
1.1549
1.12009
1.06099
0.968267
0.837167
0.667719
0.448811
0.175058
3.5443
3.48061
3.36392
3.21016
3.03965
2.86111
2.68017
2.50047
2.32454
2.15413
1.98998
1.83161
1.68015
1.5404
1.42792
1.35467
1.29732
1.23676
1.19447
1.18269
1.18144
1.17697
1.16128
1.12849
1.07
0.978055
0.846699
0.670114
0.444224
0.166484
3.50964
3.4383
3.32405
3.17534
3.01141
2.83892
2.66335
2.48824
2.31618
2.1493
1.98947
1.83691
1.69398
1.56417
1.45027
1.35786
1.29541
1.2488
1.21541
1.20102
1.19528
1.18722
1.16858
1.13239
1.07074
0.975502
0.839346
0.659616
0.43178
0.154483
3.54241
3.46132
3.34648
3.1967
3.03209
2.85918
2.68364
2.50912
2.33812
2.17252
2.01386
1.8631
1.72273
1.5959
1.48583
1.39625
1.32699
1.27618
1.24168
1.22222
1.20978
1.19512
1.17023
1.12792
1.0606
0.960318
0.820065
0.637867
0.411189
0.142308
3.64626
3.55371
3.42848
3.26919
3.09509
2.91428
2.73261
2.55375
2.37995
2.21283
2.05394
1.90351
1.76209
1.63413
1.52475
1.43495
1.36359
1.30913
1.26999
1.24331
1.22232
1.19905
1.16593
1.11586
1.04154
0.935424
0.791448
0.607823
0.384263
0.130009
3.8072
3.6924
3.54572
3.36737
3.17616
2.98142
2.78947
2.60369
2.42541
2.25497
2.09316
1.94193
1.80255
1.67654
1.56709
1.47551
1.4011
1.34232
1.29722
1.26243
1.23211
1.19928
1.15695
1.09835
1.01655
0.904557
0.757167
0.57262
0.353869
0.117871
3.98005
3.83302
3.65625
3.45494
3.24637
3.03902
2.83691
2.64374
2.46115
2.28951
2.12834
1.97797
1.83977
1.71521
1.60603
1.51301
1.43559
1.37232
1.32104
1.27826
1.23879
1.19645
1.14483
1.07764
0.988471
0.870917
0.720288
0.535071
0.322342
0.105953
4.10783
3.93617
3.73579
3.51334
3.28876
3.07153
2.86485
2.66928
2.48545
2.31368
2.15369
2.00531
1.86918
1.74642
1.63805
1.54435
1.46462
1.3974
1.34047
1.29046
1.24269
1.19156
1.13119
1.05584
0.959727
0.837031
0.683225
0.497356
0.291171
0.0943674
4.19035
3.99149
3.76937
3.53127
3.29599
3.07233
2.86366
2.66941
2.48875
2.32093
2.16508
2.02065
1.88798
1.76801
1.66145
1.56818
1.48722
1.41704
1.35549
1.29945
1.24464
1.18586
1.11767
1.03483
0.932324
0.804852
0.647785
0.460983
0.261138
0.0832185
4.19166
3.95689
3.71355
3.4684
3.23678
3.02209
2.82371
2.6394
2.46807
2.30901
2.16096
2.02291
1.89527
1.77931
1.67583
1.58434
1.50348
1.4316
1.36672
1.30608
1.24571
1.18069
1.1058
1.01627
0.907851
0.775813
0.61525
0.42695
0.232652
0.0725684
4.00478
3.74439
3.51745
3.30237
3.10199
2.9167
2.74389
2.5796
2.42411
2.27882
2.1424
2.01309
1.89173
1.78086
1.68182
1.59367
1.51435
1.44205
1.37518
1.31143
1.24712
1.17738
1.09701
1.00155
0.887523
0.750872
0.586439
0.395867
0.205907
0.0624368
3.5464
3.27403
3.14173
3.02568
2.89414
2.76188
2.63171
2.4966
2.36139
2.23396
2.11288
1.99409
1.87938
1.77407
1.68079
1.59772
1.52141
1.44984
1.38215
1.31672
1.25009
1.17719
1.09257
0.991841
0.872222
0.730601
0.561861
0.368113
0.181014
0.0527959
2.66363
2.39543
2.53932
2.66174
2.63583
2.57477
2.50454
2.40382
2.28686
2.17938
2.07775
1.97052
1.86094
1.76055
1.67436
1.59846
1.52662
1.45653
1.38883
1.32299
1.25564
1.1812
1.09357
0.988073
0.862551
0.715223
0.541675
0.344072
0.158194
0.0435156
142.422
142.503
142.692
142.977
143.342
143.777
144.276
144.828
145.424
146.051
146.697
147.346
147.981
148.581
149.125
149.585
149.93
150.123
150.118
149.86
149.275
148.269
146.707
144.397
141.038
136.137
128.77
117.02
94.8485
34.9605
141.695
141.766
141.932
142.182
142.502
142.88
143.31
143.781
144.284
144.805
145.33
145.843
146.326
146.757
147.111
147.359
147.467
147.392
147.083
146.476
145.485
143.998
141.856
138.829
134.558
128.459
119.502
105.954
86.4584
58.0841
140.925
140.986
141.129
141.343
141.615
141.935
142.294
142.682
143.089
143.501
143.904
144.279
144.609
144.868
145.033
145.069
144.942
144.604
144
143.06
141.693
139.778
137.151
133.582
128.747
122.192
113.331
101.531
87.3582
70.8618
140.114
140.165
140.284
140.461
140.684
140.944
141.231
141.536
141.846
142.148
142.427
142.665
142.841
142.931
142.908
142.738
142.382
141.794
140.914
139.672
137.975
135.706
132.715
128.806
123.731
117.202
108.924
98.57
86.0852
71.0379
139.263
139.304
139.399
139.539
139.713
139.911
140.126
140.346
140.559
140.752
140.909
141.01
141.035
140.959
140.754
140.387
139.816
138.995
137.866
136.36
134.39
131.851
128.613
124.522
119.399
113.044
105.261
95.8095
84.5245
71.6147
138.376
138.406
138.476
138.579
138.703
138.841
138.983
139.119
139.236
139.32
139.356
139.324
139.202
138.967
138.59
138.036
137.268
136.238
134.892
133.165
130.981
128.249
124.864
120.708
115.651
109.56
102.314
93.8154
84.0564
73.4506
137.454
137.474
137.52
137.584
137.659
137.736
137.806
137.859
137.882
137.86
137.778
137.617
137.356
136.97
136.432
135.707
134.761
133.548
132.019
130.116
127.774
124.919
121.469
117.337
112.437
106.691
100.045
92.489
84.068
75.1168
136.502
136.511
136.532
136.559
136.585
136.603
136.602
136.573
136.504
136.38
136.186
135.902
135.509
134.983
134.296
133.419
132.316
130.947
129.27
127.235
124.787
121.868
118.417
114.377
109.693
104.328
98.2658
91.5288
84.1669
76.451
135.521
135.52
135.517
135.508
135.486
135.445
135.376
135.268
135.11
134.889
134.587
134.189
133.673
133.018
132.199
131.186
129.95
128.454
126.662
124.533
122.023
119.089
115.689
111.785
107.347
102.363
96.837
90.8046
84.319
77.6068
134.517
134.507
134.48
134.435
134.367
134.269
134.134
133.951
133.709
133.395
132.993
132.488
131.861
131.09
130.153
129.024
127.677
126.081
124.205
122.016
119.482
116.571
113.256
109.515
105.334
100.716
95.678
90.2591
84.5124
78.622
133.495
133.474
133.425
133.345
133.232
133.081
132.883
132.628
132.307
131.906
131.412
130.81
130.082
129.209
128.17
126.945
125.508
123.836
121.903
119.684
117.156
114.297
111.09
107.525
103.601
99.3279
94.7283
89.8417
84.7159
79.4987
132.458
132.428
132.357
132.244
132.089
131.887
131.629
131.308
130.913
130.432
129.854
129.164
128.346
127.384
126.261
124.956
123.45
121.724
119.758
117.534
115.034
112.247
109.163
105.78
102.103
98.148
93.9389
89.5121
84.9093
80.2494
131.412
131.374
131.282
131.139
130.944
130.693
130.38
129.996
129.533
128.981
128.327
127.559
126.663
125.626
124.432
123.064
121.508
119.747
117.768
115.557
113.104
110.402
107.447
104.244
100.802
97.1364
93.2729
89.2434
85.0835
80.8891
130.364
130.317
130.206
130.034
129.801
129.506
129.142
128.702
128.177
127.559
126.838
126.003
125.041
123.941
122.689
121.275
119.684
117.905
115.929
113.746
111.351
108.742
105.919
102.889
99.6646
96.2615
92.7029
89.017
85.2339
81.4312
129.319
129.264
129.136
128.936
128.669
128.333
127.922
127.431
126.851
126.176
125.396
124.502
123.485
122.334
121.039
119.59
117.978
116.195
114.234
112.091
109.762
107.249
104.556
101.691
98.6663
95.4986
92.2084
88.82
85.3587
81.8877
128.283
128.222
128.077
127.853
127.554
127.181
126.728
126.191
125.562
124.836
124.006
123.064
122.001
120.81
119.482
118.011
116.39
114.614
112.678
110.581
108.323
105.907
103.339
100.627
97.7854
94.8282
91.774
88.6435
85.4581
82.2695
127.264
127.196
127.036
126.79
126.463
126.057
125.566
124.988
124.317
123.548
122.676
121.693
120.594
119.372
118.022
116.539
114.918
113.157
111.253
109.207
107.022
104.7
102.251
99.6815
97.005
94.2351
91.3881
88.4815
85.5334
82.5861
126.268
126.195
126.021
125.755
125.403
124.967
124.444
123.83
123.123
122.317
121.409
120.394
119.267
118.024
116.66
115.173
113.56
111.82
109.953
107.961
105.847
103.617
101.278
98.8387
96.3111
93.7076
91.0422
88.3302
85.5865
82.8463
125.303
125.224
125.039
124.755
124.38
123.918
123.367
122.723
121.985
121.149
120.213
119.172
118.024
116.766
115.396
113.911
112.312
110.598
108.77
106.832
104.788
102.644
100.408
98.087
95.6929
93.2365
90.7303
88.1872
85.62
83.0578
124.375
124.292
124.096
123.797
123.403
122.919
122.343
121.674
120.91
120.049
119.09
118.031
116.868
115.602
114.231
112.754
111.171
109.486
107.699
105.814
103.837
101.774
99.6307
97.417
95.1417
92.8151
90.448
88.0516
85.6368
83.2277
123.493
123.406
123.201
122.888
122.478
121.974
121.378
120.688
119.903
119.023
118.047
116.973
115.802
114.532
113.164
111.698
110.136
108.48
106.734
104.901
102.986
100.997
98.9389
96.8208
94.6508
92.4382
90.1924
87.923
85.6396
83.3622
122.664
122.573
122.361
122.036
121.611
121.092
120.479
119.771
118.97
118.075
117.086
116.003
114.826
113.557
112.195
110.743
109.203
107.578
105.87
104.086
102.229
100.307
98.3259
96.2927
94.2155
92.1024
89.9618
87.8022
85.6318
83.4674
121.897
121.803
121.583
121.249
120.812
120.279
119.652
118.931
118.116
117.209
116.211
115.123
113.945
112.679
111.326
109.889
108.371
106.775
105.105
103.365
101.562
99.6998
97.7864
95.8279
93.8316
91.8049
89.7551
87.6898
85.6161
83.5481
121.199
121.102
120.877
120.533
120.086
119.543
118.904
118.172
117.347
116.432
115.428
114.337
113.16
111.899
110.556
109.135
107.639
106.07
104.434
102.736
100.98
99.1714
97.3175
95.4241
93.4977
91.5451
89.573
87.5879
85.5964
83.6103
120.579
120.479
120.248
119.897
119.442
118.889
118.241
117.5
116.669
115.748
114.74
113.648
112.473
111.219
109.887
108.481
107.005
105.462
103.857
102.194
100.48
98.7182
96.9155
95.0778
93.2109
91.3211
89.4144
87.4968
85.574
83.656
120.046
119.944
119.707
119.349
118.886
118.326
117.672
116.924
116.087
115.163
114.153
113.062
111.891
110.643
109.322
107.93
106.472
104.952
103.374
101.743
100.063
98.3415
96.5821
94.791
92.9738
91.1362
89.2837
87.4219
85.556
83.6945
119.61
119.505
119.261
118.895
118.425
117.859
117.199
116.447
115.606
114.679
113.669
112.579
111.412
110.17
108.859
107.48
106.038
104.537
102.981
101.376
99.7261
98.0363
96.312
94.5585
92.7812
90.9852
89.1758
87.3582
85.537
83.7194
119.284
119.173
118.92
118.547
118.072
117.502
116.837
116.081
115.238
114.31
113.3
112.212
111.048
109.812
108.509
107.14
105.711
104.226
102.688
101.104
99.4769
97.8125
96.1156
94.3915
92.6451
90.8815
89.1056
87.3223
85.5363
83.7537
119.082
118.947
118.676
118.298
117.821
117.248
116.581
115.823
114.979
114.05
113.041
111.955
110.795
109.564
108.266
106.905
105.485
104.011
102.486
100.916
99.3044
97.657
95.9785
94.2738
92.5478
90.8054
89.0514
87.2902
85.5263
83.7647
119.063
118.864
118.566
118.181
117.701
117.124
116.454
115.695
114.85
113.921
112.913
111.828
110.671
109.443
108.15
106.795
105.382
103.915
102.399
100.838
99.2368
97.6005
95.9338
94.2415
92.5284
90.7992
89.0585
87.3109
85.5607
83.8121
-49.2732
-29.1575
-9.59101
37.8902
30.7437
19.3034
53.5682
41.6623
30.6826
54.8821
44.5481
36.6027
59.1494
50.9301
44.241
63.4862
56.63
50.7856
66.7051
60.8607
55.8426
69.2493
64.2503
59.9619
71.3917
67.0775
63.3824
73.1983
69.4317
66.2134
74.7153
71.3928
68.561
75.9916
73.0337
70.5177
77.0674
74.4116
72.156
77.9744
75.5713
73.5325
78.7387
76.5489
74.6923
79.382
77.3734
75.6711
79.9221
78.0686
76.4976
80.3742
78.6539
77.1952
80.7509
79.1453
77.7831
81.0632
79.5567
78.2773
81.3205
79.8995
78.6913
81.5314
80.1841
79.0368
81.7024
80.4182
79.3231
81.8417
80.6112
79.5601
81.9517
80.7663
79.7522
82.0442
80.8961
79.9119
82.1105
80.9921
80.0326
82.1794
81.0837
80.1413
82.2106
81.1311
80.2027
82.2789
81.2135
80.2916
-0.163919
0.0399619
1.4085
2.33965
2.40643
2.37746
2.37952
2.31719
2.20524
2.11913
2.04435
1.94897
1.83922
1.7413
1.66403
1.59851
1.53275
1.46419
1.39675
1.33162
1.2652
1.19083
1.10135
0.991416
0.859233
0.704892
0.525747
0.323842
0.137316
0.0341811
5.74061
2.51194
3.21375
2.9437
2.0723
1.94377
2.25396
2.30911
2.13946
2.05739
2.01966
1.93712
1.8147
1.7151
1.65079
1.6014
1.54344
1.47467
1.40673
1.34331
1.27973
1.20738
1.11739
1.00321
0.862925
0.699112
0.512878
0.30663
0.117708
0.0242275
16.5561
8.07971
5.09675
3.15948
2.53752
2.74118
2.91199
2.40485
1.88835
1.86013
2.00016
1.97218
1.80142
1.68585
1.63621
1.61128
1.56272
1.48849
1.4186
1.3588
1.30101
1.23303
1.1438
1.02521
0.874756
0.698163
0.503226
0.294574
0.103427
0.0142847
25.9702
16.1704
10.3781
6.70336
4.68624
3.6523
2.93448
2.39668
2.16161
2.26582
2.36196
2.0588
1.69351
1.56758
1.5834
1.63391
1.60523
1.51167
1.43599
1.3813
1.33184
1.27003
1.18256
1.06005
0.898164
0.70509
0.498229
0.288906
0.0963192
0.00355993
34.9839
25.2925
18.01
12.7007
8.98848
6.4516
4.71939
3.60496
2.93275
2.56723
2.31141
2.056
1.84008
1.75012
1.76795
1.78513
1.66175
1.4997
1.42511
1.39487
1.36946
1.32259
1.24043
1.11462
0.937821
0.7201
0.492483
0.280885
0.09212
-0.0106968
42.8408
33.9589
26.0961
19.6711
14.7319
11.0443
8.32926
6.3514
4.91883
3.90355
3.18748
2.66901
2.27365
2.00891
1.87224
1.79817
1.70724
1.61497
1.55969
1.52398
1.4804
1.41329
1.31635
1.1793
0.98519
0.741004
0.487987
0.271088
0.101723
-0.0298227
49.2424
41.466
33.7149
26.8382
21.2023
16.7017
13.1329
10.3235
8.13917
6.47111
5.20781
4.23528
3.47469
2.90854
2.51891
2.25075
2.03981
1.86464
1.73548
1.64842
1.58152
1.51168
1.4188
1.28011
1.07215
0.798842
0.508538
0.267222
0.12175
-0.0620227
54.4568
47.7434
40.503
33.6812
27.7893
22.8178
18.6451
15.1786
12.3403
10.0473
8.20627
6.72476
5.53501
4.59995
3.88416
3.33515
2.89726
2.54122
2.26302
2.05342
1.88845
1.74088
1.58602
1.39914
1.15856
0.864922
0.555345
0.284112
0.0955911
-0.193934
58.7112
52.9034
46.328
39.8574
34.0316
28.9008
24.4034
20.5025
17.1668
14.3486
11.9863
10.0152
8.37971
7.03664
5.9455
5.06008
4.33415
3.73584
3.248
2.85279
2.52482
2.23624
1.96087
1.67418
1.35718
1.00923
0.656159
0.334195
0.0554418
-0.406771
62.1822
57.1175
51.2175
45.2313
39.6686
34.6062
30.016
25.894
22.2423
19.0456
16.2719
13.8814
11.8337
10.092
8.62021
7.38032
6.33401
5.44952
4.70296
4.07192
3.53096
3.05283
2.61118
2.18211
1.74808
1.30567
0.868732
0.453405
0.0434679
-0.581947
65.0317
60.5712
55.2893
49.8162
44.6094
39.7513
35.2294
31.0559
27.2522
23.8253
20.7657
18.0536
15.6649
13.574
11.7535
10.1741
8.80503
7.61798
6.58826
5.6926
4.90647
4.20412
3.56038
2.95264
2.36398
1.78731
1.22543
0.678451
0.119263
-0.636342
67.3907
63.4233
58.6803
53.6938
48.8672
44.2784
39.9205
35.8111
31.9801
28.4472
25.2174
22.2858
19.642
17.2713
15.1561
13.2757
11.6072
10.1276
8.81495
7.64757
6.60306
5.65812
4.78981
3.97732
3.20407
2.45985
1.73961
1.03463
0.319209
-0.547791
69.3573
65.7963
61.5141
56.9656
52.5062
48.2059
44.0584
40.0811
36.3059
32.758
29.4509
26.3893
23.5724
20.9949
18.6474
16.5171
14.5886
12.8446
11.2675
9.83891
8.53943
7.34897
6.24743
5.21609
4.23907
3.30431
2.40255
1.52198
0.642945
-0.33578
71.0056
67.7831
63.8928
59.7292
55.6075
51.5892
47.6667
43.8548
40.1841
36.6811
33.3633
30.2411
27.3198
24.6006
22.0808
19.754
17.6109
15.6399
13.8279
12.1604
10.6216
9.19492
7.86324
6.61022
5.42111
4.28346
3.18645
2.11834
1.06575
-0.0384684
72.3928
69.4545
65.898
62.0694
58.2504
54.4952
50.7944
47.1592
43.6174
40.1948
36.91
33.7763
30.8025
27.9943
25.3534
22.8785
20.5651
18.4063
16.3931
14.515
12.7597
11.114
9.56376
8.09509
6.69478
5.35087
4.05258
2.7894
1.55244
0.302066
73.5633
70.8652
67.5939
64.0559
60.5051
56.9894
53.4976
50.0377
46.6338
43.31
40.0846
36.9719
33.9826
31.1249
28.4037
25.8209
23.376
21.0656
18.8844
16.8251
14.8787
13.0351
11.283
9.61063
8.00653
6.45974
4.96006
3.49819
2.06749
0.649015
74.5523
72.0582
69.0312
65.7452
62.4304
59.1298
55.8306
52.5376
49.2715
46.0541
42.9027
39.8313
36.8515
33.9727
31.2018
28.5432
25.9987
23.5679
21.2483
19.0355
16.9232
14.9038
12.9684
11.1076
9.31114
7.56928
5.87245
4.21194
2.58134
0.975947
75.3881
73.0678
70.2506
67.183
64.0754
60.9662
57.8417
54.704
51.5705
48.4603
45.3896
42.3714
39.4174
36.5375
33.7396
31.0295
28.411
25.8857
23.4532
21.1113
18.8562
16.6822
14.5827
12.5496
10.5743
8.64796
6.76131
4.90561
3.07325
1.26809
76.0939
73.9218
71.2852
68.4069
65.4804
62.5406
59.5731
56.5775
53.5683
50.5623
47.5738
44.6151
41.697
38.8295
36.021
33.2781
30.6057
28.0068
25.4828
23.0332
20.6558
18.3469
16.1012
13.9122
11.7725
9.67371
7.6068
5.56242
3.53101
1.52054
76.6888
74.6432
72.1618
69.4476
66.6791
63.8884
61.0607
58.1936
55.299
52.3915
49.4837
46.5865
43.7101
40.864
38.0565
35.2947
32.5841
29.9288
27.3312
24.792
22.3105
19.8842
17.5093
15.1804
12.8907
10.6325
8.39649
6.17262
3.94915
1.73512
77.1887
75.251
72.903
70.3305
67.6994
65.0393
62.3352
59.5831
56.7927
53.9764
51.1453
48.3091
45.4769
42.6576
39.8593
37.0889
34.3524
31.6544
28.9979
26.3847
23.815
21.2874
18.799
16.3452
13.92
11.5158
9.1232
6.73125
4.32628
1.91665
77.6073
75.7615
73.5278
71.0773
68.565
66.0186
63.4229
60.7727
58.0756
55.3425
52.5828
49.8049
47.0172
44.2275
41.4436
38.6721
35.919
33.1891
30.4861
27.8122
25.1683
22.5537
19.9663
17.4021
14.8556
12.3192
9.78353
7.23665
4.6635
2.07073
77.9557
76.1876
74.0514
71.7054
69.2953
66.847
64.3455
61.7845
59.1701
56.5115
53.8168
51.0934
48.3484
45.5891
42.8225
40.055
37.2923
34.5393
31.7998
29.0764
26.3706
23.682
21.009
18.3482
15.6943
13.0399
10.3752
7.68782
4.9617
2.20136
78.2448
76.5419
74.4882
72.231
69.9078
67.5435
65.1229
62.6391
60.0967
57.5037
54.8671
52.193
49.4879
46.7582
44.0101
41.2497
38.4825
35.7131
32.9454
30.1822
27.425
24.6742
21.9281
19.1839
16.4362
13.6778
10.8988
8.08628
5.2236
2.31273
78.4806
76.832
74.8471
72.6643
70.4141
68.1204
65.7682
63.35
60.8694
58.333
55.7469
53.1165
50.4473
47.7449
45.0152
42.2635
39.4951
36.7143
33.9251
31.1301
28.3312
25.5286
22.7211
19.9058
17.0777
14.2295
11.3511
8.42946
5.4475
2.40472
78.6751
77.0705
75.1422
73.0205
70.8304
68.5949
66.2994
63.9357
61.5066
59.0178
56.4745
53.8815
51.2435
48.5656
45.8528
43.1103
40.3427
37.5544
34.749
31.9292
29.0967
26.252
23.3939
20.5196
17.6241
14.7002
11.7376
8.72307
5.63937
2.4827
78.8249
77.2551
75.3715
73.2983
71.1559
68.9668
66.7164
64.3964
62.0087
59.5583
57.0499
54.4875
51.8752
49.2177
46.5196
43.7855
41.0198
38.2265
35.4091
32.5703
29.7117
26.8337
23.9353
21.0136
18.0637
15.0782
12.0469
8.95634
5.78934
2.53967
78.9525
77.4083
75.5587
73.5224
71.4161
69.262
67.0459
64.759
62.4028
59.9818
57.5001
54.9613
52.3691
49.7276
47.0411
44.3139
41.5502
38.7537
35.9277
33.0748
30.1966
27.2935
24.3644
21.4065
18.4147
15.3817
12.297
9.14697
5.91426
2.58858
79.0307
77.5026
75.6753
73.6639
71.582
69.4513
67.2581
64.9935
62.6585
60.2572
57.7934
55.2705
52.6918
50.0613
47.3828
44.6605
41.8983
39.0999
36.2683
33.4062
30.515
27.5951
24.6454
21.663
18.6428
15.5773
12.4559
9.26455
5.98583
2.6077
79.1187
77.5918
75.7767
73.7804
71.7122
69.5941
67.4131
65.1602
62.8362
60.445
57.9904
55.4753
52.9031
50.2775
47.6024
44.8817
42.1193
39.3188
36.4832
33.615
30.7158
27.7859
24.8241
21.8277
18.7914
15.7076
12.5654
9.34983
6.0408
2.6143
)
;

boundaryField
{
    inlet
    {
        type            zeroGradient;
    }
    outlet
    {
        type            fixedValue;
        value           uniform 0;
    }
    flap
    {
        type            zeroGradient;
    }
    upperWall
    {
        type            zeroGradient;
    }
    lowerWall
    {
        type            zeroGradient;
    }
    frontAndBack
    {
        type            empty;
    }
}


// ************************************************************************* //
