/*--------------------------------*- C++ -*----------------------------------*\
  =========                 |
  \\      /  F ield         | OpenFOAM: The Open Source CFD Toolbox
   \\    /   O peration     | Website:  https://openfoam.org
    \\  /    A nd           | Version:  7
     \\/     M anipulation  |
\*---------------------------------------------------------------------------*/
FoamFile
{
    version     2.0;
    format      ascii;
    class       surfaceScalarField;
    location    "2.3";
    object      phi;
}
// * * * * * * * * * * * * * * * * * * * * * * * * * * * * * * * * * * * * * //

dimensions      [0 3 -1 0 0 0 0];

internalField   nonuniform List<scalar> 
5457
(
0.198417
0.00158257
0.19648
0.00193774
0.194191
0.00228863
0.191507
0.0026843
0.188425
0.00308207
0.184947
0.00347778
0.181067
0.0038797
0.176772
0.00429523
0.172042
0.0047295
0.166856
0.00518652
0.161186
0.00566979
0.155004
0.00618226
0.148278
0.00672611
0.140975
0.00730234
0.133065
0.00791033
0.124518
0.00854707
0.115312
0.00920627
0.105434
0.00987729
0.0948906
0.0105439
0.0837075
0.011183
0.0719437
0.0117639
0.0596964
0.0122473
0.047109
0.0125874
0.0343704
0.0127386
0.0216772
0.0126933
0.00902891
0.0126482
-0.0029201
0.011949
-0.00847258
0.00555249
-0.00804229
-0.000430292
-0.00804229
0.199928
0.0016546
0.199175
0.00269055
0.197964
0.00350013
0.19633
0.00431821
0.194269
0.00514302
0.191778
0.00596889
0.18885
0.00680784
0.185471
0.00767334
0.181625
0.00857572
0.177288
0.00952326
0.172435
0.0105232
0.167035
0.0115819
0.161057
0.012704
0.154468
0.0138923
0.147232
0.0151463
0.139318
0.0164608
0.130699
0.0178246
0.121359
0.0192176
0.111294
0.0206086
0.100525
0.0219525
0.0891013
0.0231876
0.0771147
0.0242339
0.06471
0.024992
0.0521041
0.0253446
0.0396455
0.0251518
0.0280976
0.0241962
0.0185876
0.021459
0.00879062
0.0153495
0.00118058
0.00717974
-0.00686171
0.19978
0.00187422
0.199086
0.00338476
0.197945
0.00464161
0.196407
0.00585555
0.19448
0.00707002
0.19216
0.00828895
0.189442
0.0095264
0.186315
0.0108
0.182766
0.0121249
0.178776
0.0135134
0.174322
0.0149766
0.16938
0.0165242
0.16392
0.0181638
0.157912
0.0199005
0.151323
0.0217354
0.144121
0.0236633
0.136275
0.0256705
0.127761
0.0277317
0.118564
0.0298054
0.108686
0.03183
0.098155
0.0337188
0.0870337
0.0353552
0.0754381
0.0365876
0.0635625
0.0372203
0.0517222
0.036992
0.0403887
0.0355297
0.0297319
0.0321159
0.0191613
0.0259201
0.00959442
0.0167466
0.00273271
0.199703
0.00217134
0.199007
0.00408045
0.197886
0.00576269
0.196374
0.00736719
0.194485
0.00895902
0.192218
0.010556
0.18957
0.0121752
0.186532
0.0138372
0.183097
0.0155606
0.179249
0.0173612
0.174973
0.0192529
0.170249
0.021248
0.165056
0.0233566
0.159371
0.0255857
0.153168
0.027938
0.146422
0.0304091
0.139108
0.0329853
0.1312
0.0356392
0.122681
0.0383245
0.11354
0.0409705
0.103784
0.0434751
0.0934425
0.0456969
0.0825824
0.0474476
0.071321
0.0484816
0.0598307
0.0484824
0.0483084
0.047052
0.0368042
0.04362
0.0251832
0.0375411
0.0133331
0.0285967
0.0160658
0.199667
0.00250411
0.198964
0.00478409
0.197862
0.00686457
0.196379
0.0088496
0.19453
0.0108087
0.192314
0.0127716
0.189729
0.0147602
0.186769
0.0167971
0.183426
0.0189036
0.179689
0.0210983
0.175545
0.0233972
0.170978
0.0258144
0.165974
0.0283616
0.160512
0.031047
0.154576
0.0338744
0.148145
0.0368403
0.141198
0.0399316
0.133717
0.0431209
0.12568
0.0463613
0.117071
0.0495795
0.107878
0.0526679
0.0980999
0.055475
0.0877512
0.0577964
0.0768666
0.0593662
0.0654983
0.0598507
0.0536994
0.0588509
0.0414473
0.0558721
0.0285831
0.0504052
0.0148499
0.0423299
0.0309157
0.199653
0.00285151
0.198948
0.00548854
0.19787
0.00794309
0.196425
0.0102945
0.194624
0.0126096
0.192469
0.0149262
0.189958
0.017271
0.187086
0.0196692
0.183846
0.0221442
0.180227
0.0247169
0.176219
0.0274051
0.171809
0.0302244
0.166983
0.0331876
0.161726
0.0363041
0.156022
0.0395783
0.149855
0.0430077
0.143206
0.0465804
0.136056
0.0502705
0.128384
0.0540335
0.120165
0.0577988
0.111371
0.0614616
0.101973
0.0648728
0.0919405
0.0678293
0.0812412
0.0700654
0.0698432
0.0712487
0.0577078
0.0709863
0.0447537
0.0688263
0.0308444
0.0643146
0.0158707
0.0573036
0.0467864
0.19965
0.00320165
0.198953
0.00618492
0.197903
0.0089933
0.196503
0.011695
0.19476
0.0143528
0.192676
0.0170093
0.190252
0.0196958
0.187481
0.0224401
0.184357
0.0252677
0.180873
0.0282012
0.177017
0.0312605
0.172779
0.0344624
0.168146
0.0378211
0.163103
0.0413469
0.157636
0.0450456
0.151727
0.0489161
0.145359
0.0529486
0.138509
0.0571204
0.131151
0.0613918
0.123251
0.0656994
0.114765
0.0699476
0.105638
0.0739996
0.0958013
0.0776657
0.0851724
0.0806943
0.0736565
0.0827647
0.0611519
0.0834909
0.0475479
0.0824302
0.0327537
0.0791088
0.0167804
0.0732769
0.0635668
0.199654
0.0035472
0.198974
0.00686543
0.197958
0.0100097
0.196608
0.0130445
0.194931
0.0160298
0.192929
0.019011
0.190602
0.0220232
0.187945
0.0250967
0.184954
0.0282591
0.18162
0.0315349
0.177935
0.0349454
0.173889
0.0385093
0.169467
0.0422421
0.164659
0.0461557
0.159447
0.0502577
0.153813
0.0545495
0.147737
0.0590246
0.141192
0.0636656
0.134144
0.0684402
0.126547
0.0732959
0.118343
0.0781521
0.109451
0.0828913
0.0997696
0.087347
0.0891723
0.0912916
0.0775123
0.0944247
0.064637
0.0963661
0.0504097
0.0966575
0.034763
0.0947554
0.0177873
0.0902526
0.0813541
0.199664
0.00388323
0.199006
0.00752365
0.198029
0.0109865
0.196737
0.0143368
0.195134
0.0176328
0.193223
0.020922
0.191003
0.0242423
0.188473
0.0276268
0.185628
0.0311047
0.182461
0.0347022
0.178964
0.0384425
0.175127
0.0423458
0.17094
0.0464296
0.166388
0.0507077
0.161455
0.0551902
0.156123
0.0598821
0.150365
0.0647818
0.144152
0.0698792
0.13744
0.0751521
0.130174
0.0805623
0.122276
0.0860493
0.113646
0.0915214
0.104149
0.0968439
0.0936172
0.101824
0.0818505
0.106191
0.0686381
0.109579
0.0537937
0.111502
0.0372313
0.111318
0.0190809
0.108403
0.100435
0.199677
0.00420622
0.199046
0.00815431
0.198114
0.0119185
0.196885
0.0155659
0.195363
0.0191547
0.193552
0.0227338
0.19145
0.0263435
0.189058
0.030019
0.186371
0.0337915
0.183385
0.0376887
0.180092
0.0417355
0.176484
0.0459538
0.17255
0.050363
0.168279
0.0549795
0.163652
0.0598166
0.158651
0.0648837
0.153247
0.0701856
0.147405
0.0757209
0.141077
0.0814802
0.134196
0.087443
0.126672
0.0935731
0.118382
0.0998112
0.109162
0.106064
0.0988006
0.112186
0.0870366
0.117955
0.0735774
0.123038
0.0581397
0.12694
0.0405466
0.128911
0.020899
0.128051
0.121334
0.199693
0.00451351
0.199094
0.00875313
0.198212
0.0128007
0.197051
0.0167264
0.195617
0.0205892
0.193912
0.0244388
0.191937
0.028318
0.189693
0.0322635
0.187176
0.0363082
0.184383
0.0404814
0.181309
0.0448095
0.177947
0.0493162
0.174287
0.0540229
0.170318
0.0589487
0.166024
0.0641105
0.161385
0.0695228
0.156373
0.0751974
0.150951
0.0811432
0.145066
0.087365
0.138647
0.0938625
0.131592
0.100628
0.123764
0.10764
0.114972
0.114856
0.104961
0.122196
0.093401
0.129515
0.0798842
0.136555
0.0639587
0.142865
0.0452298
0.14764
0.0236098
0.149671
0.144944
0.19971
0.00480304
0.199147
0.00931658
0.198319
0.013629
0.197232
0.0178135
0.19589
0.0219304
0.194299
0.0260305
0.192459
0.0301579
0.190371
0.0343513
0.188034
0.0386447
0.185447
0.0430689
0.182605
0.0476516
0.179503
0.052418
0.176134
0.0573917
0.172489
0.0625943
0.168553
0.0680465
0.164307
0.0737679
0.159727
0.0797777
0.154775
0.0860951
0.1494
0.09274
0.14353
0.0997331
0.137061
0.107096
0.129849
0.114852
0.121688
0.123017
0.11229
0.131594
0.101252
0.140553
0.0880298
0.149777
0.0719135
0.158982
0.0520823
0.167471
0.0278852
0.173868
0.172829
0.19973
0.0050732
0.199205
0.0098418
0.198434
0.0143996
0.197424
0.0188231
0.196181
0.0231735
0.194709
0.027503
0.19301
0.0318568
0.191086
0.0362749
0.188938
0.0407925
0.186566
0.0454413
0.183967
0.0502503
0.181139
0.0552462
0.178077
0.060454
0.174773
0.065898
0.171218
0.071602
0.167395
0.0775904
0.163284
0.0838891
0.158852
0.0905272
0.154054
0.0975383
0.148823
0.104963
0.143066
0.112853
0.136646
0.121272
0.12936
0.130302
0.120913
0.140042
0.110859
0.150607
0.0985255
0.16211
0.0828917
0.174615
0.0624343
0.187929
0.0351281
0.201174
0.207957
0.19975
0.00532272
0.199266
0.0103265
0.198556
0.0151098
0.197627
0.0197515
0.196486
0.0243145
0.195138
0.0288516
0.193585
0.0334092
0.191832
0.0380281
0.18988
0.0427444
0.187731
0.0475907
0.185384
0.0525967
0.18284
0.05779
0.180097
0.0631971
0.177151
0.0688441
0.173996
0.0747574
0.170621
0.0809652
0.167011
0.0874989
0.163143
0.0943953
0.158982
0.101699
0.154478
0.109468
0.149555
0.117776
0.144103
0.126725
0.137954
0.136451
0.13085
0.147146
0.122377
0.15908
0.111839
0.172648
0.098008
0.188447
0.0785412
0.207395
0.048677
0.231038
0.256634
0.199772
0.00555064
0.19933
0.0107689
0.198683
0.0157569
0.197838
0.020596
0.196803
0.0253501
0.195581
0.0300727
0.19418
0.0348109
0.192602
0.0396062
0.190851
0.0444953
0.188931
0.049511
0.186844
0.0546836
0.184592
0.0600414
0.182178
0.0656115
0.179601
0.0714211
0.17686
0.0774982
0.173952
0.0838734
0.170869
0.0905816
0.1676
0.0976644
0.164125
0.105174
0.160417
0.113177
0.15643
0.121763
0.1521
0.131055
0.147326
0.141224
0.141951
0.15252
0.135714
0.165318
0.128143
0.180218
0.118301
0.198288
0.103938
0.221759
0.0777318
0.257244
0.334366
0.00568291
-0.00568291
0.0109261
-0.00524319
0.0154326
-0.00450645
0.0192888
-0.00385621
0.0226149
-0.0033261
0.0255079
-0.00289305
0.0280453
-0.00253734
0.0302894
-0.00224416
0.0322891
-0.00199965
0.034078
-0.00178893
0.0356704
-0.00159238
0.0370558
-0.00138541
0.0382058
-0.00115004
0.0390984
-0.000892606
0.03975
-0.00065162
0.0402009
-0.000450894
0.0404487
-0.000247765
0.040467
-1.83313e-05
0.0403049
0.000162174
0.0400514
0.000253422
0.039777
0.000274481
0.0395371
0.000239871
0.0394015
0.000135612
0.0394481
-4.66293e-05
0.0397227
-0.0002746
0.0402758
-0.000553117
0.0411172
-0.000841358
0.0422443
-0.00112713
0.0436318
-0.00138753
-0.00138844
0.00470025
-0.0103832
0.0092944
-0.00983734
0.0133356
-0.00854762
0.0168424
-0.00736301
0.019913
-0.00639674
0.02263
-0.00560999
0.0250557
-0.00496311
0.0272386
-0.00442708
0.0292174
-0.00397843
0.0310235
-0.00359505
0.0326768
-0.00324559
0.0341747
-0.00288332
0.035491
-0.00246632
0.0365903
-0.00199193
0.0374775
-0.00153889
0.0382215
-0.00119489
0.0388311
-0.000857274
0.0392792
-0.000466505
0.0395389
-9.74689e-05
0.0396193
0.000173036
0.0395348
0.000358969
0.0392825
0.000492152
0.0388624
0.000555693
0.0382976
0.000518172
0.0376669
0.00035614
0.0370273
8.64353e-05
0.0364269
-0.000240959
0.0359324
-0.000632654
0.0357158
-0.00117093
-0.0020017
0.00360022
-0.0139834
0.00706546
-0.0133026
0.0100944
-0.0115766
0.0127179
-0.00998652
0.0150044
-0.00868326
0.0170104
-0.00761599
0.0187799
-0.0067326
0.0203443
-0.00599151
0.0217284
-0.00536246
0.0229576
-0.00482423
0.0240564
-0.00434444
0.0250306
-0.0038575
0.0258577
-0.00329345
0.0264737
-0.00260788
0.0268659
-0.00193114
0.0271818
-0.0015108
0.0272814
-0.000956816
0.0267989
1.59319e-05
0.0256021
0.00109932
0.0239393
0.00183587
0.0220107
0.00228755
0.0199669
0.00253595
0.0179371
0.00258552
0.0160451
0.00241017
0.0144791
0.00192213
0.0134838
0.00108179
0.0131059
0.000136948
0.0134176
-0.000944398
0.0144152
-0.00216856
-0.0035798
0.00246593
-0.0164493
0.00464122
-0.0154779
0.00645811
-0.0133935
0.00799487
-0.0115233
0.00928785
-0.00997624
0.0103665
-0.00869459
0.0112561
-0.00762227
0.0119707
-0.00670612
0.0125147
-0.00590646
0.0128962
-0.00520565
0.0131379
-0.00458618
0.0132677
-0.00398732
0.0133203
-0.00334607
0.0131897
-0.00247723
0.0124597
-0.00120115
0.0107911
0.000157792
0.0086211
0.00121318
0.00676952
0.00186751
0.00525066
0.00261818
0.00378769
0.00329884
0.00235519
0.00372004
0.0010345
0.00385664
-9.1633e-05
0.00371166
-0.000920076
0.00323861
-0.00141698
0.00241903
-0.0015835
0.00124831
-0.00127969
-0.000166863
-0.000523751
-0.00170033
0.000647129
-0.00333944
-0.00452036
0.0012056
-0.0176549
0.00197637
-0.0162486
0.00246661
-0.0138837
0.00277863
-0.0118353
0.00291057
-0.0101082
0.00287744
-0.00866145
0.00269137
-0.00743621
0.00235746
-0.00637221
0.00186345
-0.00541244
0.00116453
-0.00450674
0.000193875
-0.00361552
-0.00107938
-0.00271407
-0.00270381
-0.00172163
-0.00455761
-0.000623435
-0.00620155
0.000442797
-0.00739849
0.00135473
-0.00837639
0.00219107
-0.00944738
0.00293851
-0.0104422
0.00361299
-0.0112962
0.00415285
-0.0120075
0.00443135
-0.0125551
0.00440422
-0.0129041
0.00406068
-0.0130522
0.00338668
-0.0130181
0.00238496
-0.0128351
0.00106525
-0.012495
-0.000506927
-0.0120179
-0.00217748
-0.011558
-0.00379926
-0.00502754
-0.000224072
-0.0174308
-0.000887398
-0.0155853
-0.00177537
-0.0129957
-0.00279073
-0.0108199
-0.00393654
-0.00896237
-0.00520467
-0.00739333
-0.00659073
-0.00605015
-0.00808796
-0.00487497
-0.00968435
-0.00381605
-0.0113547
-0.00283644
-0.0130634
-0.00190682
-0.0147713
-0.00100612
-0.0163823
-0.000110601
-0.0177051
0.000699362
-0.0187605
0.00149817
-0.0197048
0.00229906
-0.0205523
0.00303858
-0.0213021
0.00368822
-0.0219177
0.00422862
-0.0223654
0.00460056
-0.0226552
0.00472118
-0.0227992
0.00454816
-0.0228063
0.00406779
-0.0226975
0.00327793
-0.0225019
0.00218929
-0.0222554
0.000818757
-0.021994
-0.00076831
-0.0217384
-0.00243307
-0.0215163
-0.00402137
-0.00525311
-0.00166931
-0.0157615
-0.00384378
-0.0134108
-0.00610808
-0.0107314
-0.00841669
-0.00851133
-0.0107215
-0.00665756
-0.0129964
-0.00511839
-0.015214
-0.00383261
-0.0173489
-0.00274001
-0.0193831
-0.00178189
-0.0212917
-0.000927812
-0.0230481
-0.000150432
-0.0245922
0.000537998
-0.0258825
0.00117969
-0.027001
0.0018178
-0.0279845
0.0024817
-0.0288205
0.00313511
-0.0295126
0.00373065
-0.0300576
0.00423317
-0.0304411
0.00461218
-0.0306586
0.00481803
-0.0307305
0.00479314
-0.0306843
0.00450191
-0.0305467
0.00393018
-0.0303466
0.00307782
-0.0301143
0.00195699
-0.0298858
0.00059031
-0.0297012
-0.000952922
-0.0295759
-0.00255834
-0.0295093
-0.00408801
-0.00526252
-0.0031634
-0.0125981
-0.00674196
-0.00983228
-0.0102635
-0.00720987
-0.0136208
-0.00515402
-0.0167589
-0.00351947
-0.019656
-0.0022213
-0.0222978
-0.00119082
-0.024683
-0.000354812
-0.0267897
0.000324773
-0.028612
0.000894508
-0.0301716
0.00140914
-0.0315375
0.00190399
-0.0327605
0.00240266
-0.0338446
0.00290183
-0.0347666
0.00340371
-0.0355162
0.00388472
-0.0360958
0.00431029
-0.0365098
0.00464715
-0.0367598
0.00486218
-0.0368564
0.00491466
-0.0368261
0.00476285
-0.0367024
0.00437817
-0.0365189
0.0037467
-0.0363075
0.00286639
-0.0360982
0.00174769
-0.0359257
0.000417827
-0.0358235
-0.00105513
-0.0358046
-0.00257716
-0.0358697
-0.00402299
-0.00509832
-0.00469031
-0.00790782
-0.00956321
-0.00495938
-0.0141505
-0.00262254
-0.0182924
-0.0010122
-0.0219328
0.00012099
-0.0250544
0.000900318
-0.027708
0.00146278
-0.0299669
0.00190408
-0.031919
0.00227684
-0.033645
0.00262054
-0.0351849
0.00294907
-0.036555
0.00327408
-0.0377561
0.00360375
-0.0387891
0.00393484
-0.0396458
0.00426032
-0.0403225
0.00456144
-0.0408238
0.0048116
-0.0411584
0.00498174
-0.0413373
0.00504112
-0.0413793
0.00495664
-0.0413138
0.00469731
-0.0411762
0.00424063
-0.0410027
0.00357315
-0.040826
0.00268968
-0.0406755
0.00159724
-0.0405821
0.000324464
-0.0405723
-0.00106496
-0.0406573
-0.00249221
-0.0408395
-0.00384079
-0.00481692
-0.00655108
-0.00135674
-0.0125647
0.00105423
-0.017664
0.00247676
-0.0219457
0.00326953
-0.0255218
0.00369702
-0.0285525
0.00393107
-0.0311702
0.00408048
-0.0334491
0.00418294
-0.0354428
0.00427051
-0.0371877
0.00436548
-0.0387167
0.00447804
-0.0400528
0.00461024
-0.0412062
0.00475714
-0.0421802
0.00490885
-0.0429741
0.00505417
-0.0435902
0.00517756
-0.0440367
0.00525814
-0.0443259
0.00527097
-0.0444739
0.00518904
-0.0445029
0.00498569
-0.0444436
0.00463801
-0.0443317
0.00412875
-0.0442036
0.00344504
-0.044092
0.00257807
-0.0440246
0.00152987
-0.044027
0.000326811
-0.0441189
-0.000973038
-0.0443098
-0.00230133
-0.0446
-0.00355059
-0.00444189
-0.00761373
0.00625699
-0.0141468
0.00758727
-0.0195359
0.00786589
-0.0240294
0.00776305
-0.0277854
0.00745299
-0.0309387
0.00708435
-0.0336015
0.00674329
-0.0358763
0.00645775
-0.0378359
0.00623009
-0.0395296
0.00605926
-0.0409966
0.00594502
-0.0422655
0.00587918
-0.0433518
0.00584335
-0.0442606
0.00581769
-0.0449945
0.00578808
-0.0455599
0.00574298
-0.0459687
0.00566695
-0.0462363
0.00553848
-0.0463808
0.00533354
-0.0464257
0.00503064
-0.0464012
0.00461353
-0.0463424
0.00406992
-0.0462851
0.00338771
-0.046261
0.00255404
-0.0462953
0.00156409
-0.046407
0.000438495
-0.0466097
-0.000770325
-0.0469104
-0.00200064
-0.0473057
-0.00315529
-0.00397461
-0.00814598
0.014403
-0.0153707
0.014812
-0.0212186
0.0137137
-0.0258828
0.0124273
-0.0296449
0.0112151
-0.0327182
0.0101576
-0.0352664
0.00929155
-0.037419
0.00861031
-0.039258
0.00806911
-0.0408348
0.00763599
-0.0421921
0.00730232
-0.0433644
0.00705148
-0.044369
0.00684798
-0.0452093
0.00665797
-0.0458868
0.00646557
-0.0464104
0.0062666
-0.046796
0.00605253
-0.0470613
0.00580386
-0.047225
0.00549716
-0.0473089
0.00511455
-0.0473414
0.00464606
-0.0473563
0.00408485
-0.0473888
0.0034202
-0.0474698
0.00263498
-0.0476209
0.00171526
-0.0478545
0.000672083
-0.0481771
-0.000447735
-0.0485929
-0.00158488
-0.0490964
-0.0026518
-0.00340911
-0.0093404
0.0237434
-0.0173333
0.022805
-0.0233167
0.0196971
-0.027781
0.0168916
-0.0312548
0.0146889
-0.0340208
0.0129237
-0.0362759
0.0115466
-0.0381815
0.0105159
-0.0398184
0.009706
-0.0412188
0.00903644
-0.042423
0.00850644
-0.0434736
0.00810212
-0.0443882
0.00776256
-0.0451611
0.00743085
-0.0457875
0.00709201
-0.0462781
0.00675724
-0.0466544
0.00642878
-0.0469366
0.00608607
-0.047141
0.00570153
-0.0472853
0.00525891
-0.0473945
0.00475524
-0.0475006
0.00419097
-0.0476386
0.00355817
-0.0478391
0.00283548
-0.0481213
0.0019974
-0.0484897
0.00104051
-0.0489416
4.17414e-06
-0.0494788
-0.0010477
-0.0500984
-0.00203212
-0.00273664
-0.0115362
0.0352796
-0.0205997
0.0318684
-0.0262304
0.0253278
-0.029879
0.0205402
-0.032689
0.0174989
-0.0349027
0.0151374
-0.03667
0.0133138
-0.0382067
0.0120527
-0.0395796
0.0110789
-0.040757
0.0102138
-0.0417672
0.00951665
-0.0426757
0.00901064
-0.0435008
0.00858763
-0.0442148
0.00814487
-0.044798
0.00767521
-0.0452638
0.00722303
-0.0456444
0.00680947
-0.0459642
0.00640587
-0.0462335
0.00597076
-0.0464617
0.00548711
-0.046668
0.00496159
-0.0468825
0.00440542
-0.0471402
0.00381595
-0.0474729
0.0031682
-0.0478981
0.00242258
-0.0484133
0.00155564
-0.0490062
0.000597123
-0.0496753
-0.000378587
-0.0504223
-0.00128516
-0.00194602
-0.0155587
0.0508383
-0.0260785
0.0423883
-0.0305192
0.0297685
-0.0321651
0.0221861
-0.0338841
0.0192179
-0.0353417
0.016595
-0.0364038
0.0143759
-0.0374543
0.0131032
-0.0385538
0.0121785
-0.0394844
0.0111443
-0.0402551
0.0102874
-0.0410033
0.00975878
-0.0417556
0.00933993
-0.0424324
0.00882168
-0.0429834
0.00822627
-0.0434304
0.00766999
-0.0438296
0.00720867
-0.0442128
0.00678904
-0.0445776
0.00633554
-0.0449188
0.00582832
-0.0452471
0.00528988
-0.0455899
0.00474822
-0.0459833
0.00420943
-0.0464615
0.0036464
-0.0470425
0.0030035
-0.0477169
0.00223012
-0.0484613
0.0013415
-0.0492722
0.000432321
-0.0501604
-0.000396966
-0.00101388
0.207447
0.00576365
0.207034
0.011182
0.20643
0.0163602
0.205645
0.0213815
0.204684
0.0263105
0.203555
0.0312016
0.202264
0.0361022
0.200816
0.0410539
0.199218
0.0460938
0.197474
0.0512548
0.195591
0.0565672
0.193573
0.0620592
0.191426
0.0677582
0.189156
0.0736914
0.186767
0.0798874
0.184263
0.0863773
0.181647
0.093197
0.178922
0.10039
0.176088
0.108008
0.173142
0.116122
0.170081
0.124823
0.166901
0.134235
0.163598
0.144528
0.160173
0.155945
0.156651
0.16884
0.153129
0.18374
0.149977
0.20144
0.148886
0.22285
0.160693
0.245436
0.258443
0.236616
0.21249
0.00595632
0.212117
0.0115553
0.211572
0.0169045
0.210866
0.0220884
0.210004
0.0271723
0.208995
0.0322107
0.207846
0.0372511
0.206565
0.0423352
0.205159
0.0474998
0.203636
0.0527775
0.202005
0.0581982
0.200275
0.0637894
0.198455
0.0695778
0.196557
0.0755899
0.194591
0.0818531
0.192571
0.0883975
0.190511
0.095257
0.188428
0.102472
0.186345
0.110092
0.184289
0.118178
0.182302
0.126811
0.180443
0.136093
0.178814
0.146157
0.177586
0.157174
0.177081
0.169344
0.177958
0.182864
0.181636
0.197762
0.190729
0.213757
0.206248
0.229917
0.245299
0.219391
0.217657
0.00612652
0.217328
0.0118848
0.216848
0.017384
0.216228
0.0227091
0.215474
0.027926
0.214596
0.0330889
0.213602
0.0382452
0.212501
0.0434361
0.211303
0.0486977
0.210019
0.0540619
0.208659
0.0595575
0.207238
0.065211
0.205768
0.0710473
0.204267
0.0770912
0.202752
0.0833676
0.201246
0.0899034
0.199775
0.096728
0.198372
0.103876
0.197078
0.111386
0.195949
0.119307
0.195063
0.127696
0.194535
0.136621
0.194534
0.146159
0.195323
0.156384
0.197314
0.167354
0.201117
0.179061
0.2075
0.191379
0.217118
0.204139
0.229676
0.21736
0.228461
0.246515
0.222951
0.00627223
0.222669
0.0121666
0.22226
0.0177929
0.221733
0.0232365
0.221096
0.0285629
0.220359
0.0338261
0.219531
0.0390728
0.218624
0.0443434
0.217648
0.049673
0.216618
0.0550923
0.215547
0.0606284
0.214452
0.0663059
0.213352
0.0721476
0.212268
0.0781752
0.211225
0.0844102
0.210255
0.0908742
0.209392
0.0975905
0.208684
0.104584
0.208188
0.111882
0.207981
0.119514
0.208165
0.127512
0.208882
0.135905
0.210322
0.144718
0.21275
0.153956
0.216511
0.163592
0.222023
0.173549
0.229732
0.18367
0.240201
0.193669
0.254343
0.203218
0.21006
0.272744
0.228374
0.00639162
0.228143
0.0123972
0.22781
0.0181263
0.227383
0.0236639
0.22687
0.0290751
0.226284
0.034413
0.225633
0.0397234
0.224931
0.0450455
0.224191
0.0504131
0.223428
0.055855
0.22266
0.0613965
0.221906
0.0670596
0.22119
0.0728642
0.220537
0.0788281
0.219979
0.0849683
0.219553
0.0913004
0.219303
0.0978397
0.219287
0.104601
0.219571
0.111597
0.220246
0.11884
0.221422
0.126335
0.223245
0.134082
0.2259
0.142064
0.229615
0.150241
0.23467
0.158538
0.241391
0.166828
0.250154
0.174907
0.261402
0.182422
0.275603
0.189017
0.193608
0.292055
0.233929
0.00648298
0.233753
0.0125732
0.2335
0.0183793
0.233179
0.0239853
0.232798
0.0294553
0.23237
0.0348413
0.231906
0.0401878
0.231419
0.0455325
0.230924
0.0509074
0.23044
0.0563394
0.229985
0.0618511
0.229583
0.0674617
0.22926
0.0731877
0.229045
0.0790427
0.228975
0.0850381
0.229092
0.0911833
0.229447
0.0974851
0.2301
0.103948
0.231126
0.110571
0.232616
0.11735
0.234682
0.12427
0.237458
0.131306
0.241108
0.138414
0.245824
0.145525
0.251824
0.152537
0.259349
0.159303
0.268639
0.165617
0.27987
0.171191
0.293134
0.175753
0.178794
0.307949
0.239619
0.00654483
0.239501
0.0126918
0.239332
0.0185479
0.239122
0.0241955
0.23888
0.0296974
0.238617
0.0351041
0.238346
0.0404585
0.238082
0.0457965
0.237842
0.051148
0.237644
0.0565376
0.23751
0.0619851
0.237465
0.0675067
0.237538
0.0731148
0.237762
0.0788187
0.238175
0.0846244
0.238824
0.0905346
0.239761
0.0965484
0.241048
0.10266
0.24276
0.108859
0.244985
0.115125
0.247825
0.12143
0.251398
0.127732
0.25584
0.133971
0.2613
0.140065
0.267933
0.145905
0.275886
0.151349
0.28528
0.156223
0.296157
0.160314
0.308504
0.163406
0.165235
0.322062
0.245448
0.00657589
0.245389
0.0127506
0.245309
0.0186286
0.245214
0.0242902
0.245115
0.0297963
0.245023
0.0351959
0.244952
0.0405298
0.244916
0.0458318
0.244935
0.0511296
0.245027
0.0564452
0.245217
0.0617955
0.24553
0.0671934
0.245997
0.0726476
0.246653
0.0781628
0.247538
0.0837398
0.248697
0.0893755
0.250183
0.0950618
0.252058
0.100785
0.254391
0.106526
0.257262
0.112254
0.260759
0.117933
0.26498
0.123511
0.270029
0.128922
0.276013
0.134082
0.28303
0.138888
0.29116
0.143219
0.300449
0.146934
0.310887
0.149877
0.322403
0.151889
0.152841
0.334797
0.251418
0.00657515
0.251421
0.0127477
0.251431
0.0186187
0.251455
0.024266
0.251503
0.0297484
0.251586
0.0351128
0.251718
0.0403978
0.251915
0.0456351
0.252195
0.0508497
0.252579
0.056061
0.253091
0.0612833
0.253759
0.0665259
0.254612
0.0717938
0.255687
0.0770879
0.257023
0.0824042
0.258664
0.0877345
0.260661
0.0930651
0.263069
0.0983765
0.265952
0.103642
0.269378
0.108829
0.273419
0.113892
0.278151
0.118779
0.283649
0.123424
0.289982
0.127749
0.297206
0.131664
0.305354
0.13507
0.314428
0.13786
0.324381
0.139923
0.335116
0.141155
0.141497
0.346461
0.257532
0.00654185
0.257598
0.0126815
0.257701
0.0185162
0.257846
0.0241207
0.258043
0.0295513
0.258304
0.0348525
0.258641
0.0400608
0.25907
0.0452053
0.259612
0.0503086
0.260285
0.0553875
0.261115
0.0604532
0.262129
0.0655123
0.263356
0.0705663
0.264832
0.0756124
0.266593
0.0806431
0.268681
0.0856459
0.271143
0.0906032
0.274028
0.0954916
0.277389
0.100281
0.281282
0.104936
0.285763
0.109412
0.290886
0.113656
0.296702
0.117608
0.30325
0.121201
0.310554
0.124361
0.318615
0.127009
0.327408
0.129068
0.336866
0.130464
0.346887
0.131134
0.131055
0.357329
0.263794
0.00647553
0.263924
0.0125512
0.26412
0.0183199
0.264388
0.0238529
0.264736
0.0292037
0.265174
0.0344145
0.265716
0.039519
0.266377
0.044544
0.267176
0.0495096
0.268133
0.05443
0.269273
0.0593139
0.27062
0.0641649
0.272204
0.068982
0.274058
0.0737592
0.276214
0.0784863
0.278712
0.083148
0.281591
0.0877241
0.284894
0.0921894
0.288662
0.0965129
0.29294
0.100658
0.297768
0.104584
0.303182
0.108242
0.30921
0.111579
0.315871
0.11454
0.323165
0.117067
0.331073
0.119101
0.339552
0.120588
0.348534
0.121483
0.357919
0.121748
0.121384
0.36759
0.270207
0.00637599
0.270401
0.0123566
0.270692
0.0180296
0.271082
0.0234627
0.271579
0.0287063
0.272194
0.0337998
0.272938
0.0387746
0.273827
0.0436549
0.274879
0.0484585
0.276112
0.053197
0.277549
0.057877
0.279214
0.0624995
0.281134
0.0670614
0.283339
0.0715547
0.285858
0.0759669
0.288725
0.0802813
0.291973
0.0844766
0.295635
0.0885273
0.299744
0.0924031
0.304333
0.09607
0.309427
0.0994899
0.315047
0.102621
0.321206
0.105421
0.327903
0.107843
0.335125
0.109845
0.342841
0.111385
0.351002
0.112428
0.359538
0.112947
0.368361
0.112925
0.112373
0.377372
0.276773
0.00624333
0.277032
0.0120977
0.277416
0.0176458
0.277928
0.0229509
0.278574
0.0280605
0.279362
0.0330112
0.280305
0.0378317
0.281416
0.042544
0.282711
0.0471634
0.284209
0.0516996
0.285929
0.0561568
0.287894
0.0605346
0.290127
0.0648279
0.292654
0.0690274
0.295502
0.0731195
0.298696
0.077087
0.302264
0.0809087
0.306231
0.08456
0.310622
0.0880129
0.315455
0.0912368
0.320746
0.0941984
0.326504
0.0968634
0.332728
0.0991966
0.339407
0.101164
0.346518
0.102734
0.354023
0.10388
0.361871
0.104579
0.369998
0.10482
0.378326
0.104597
0.103927
0.386771
0.283498
0.00607794
0.28382
0.0117755
0.284296
0.0171697
0.284928
0.0223197
0.285719
0.0272694
0.286677
0.0320529
0.287812
0.0366963
0.289137
0.0412191
0.290666
0.0456347
0.292415
0.0499508
0.294401
0.0541701
0.296645
0.0582907
0.299167
0.0623064
0.301987
0.0662071
0.305128
0.0699791
0.308609
0.0736054
0.312452
0.077066
0.316674
0.0803382
0.32129
0.0833969
0.326311
0.0862156
0.331743
0.0887667
0.337583
0.0910224
0.343824
0.0929559
0.350446
0.0945423
0.35742
0.0957602
0.364707
0.0965928
0.372257
0.0970291
0.380012
0.0970654
0.387903
0.0967051
0.0959685
0.395862
0.290384
0.00588043
0.290768
0.0113912
0.291334
0.0166034
0.292082
0.0215719
0.293014
0.0263372
0.294137
0.0309305
0.295458
0.0353755
0.296987
0.0396896
0.298737
0.0438843
0.300723
0.0479656
0.302958
0.051935
0.305459
0.0557896
0.308243
0.0595226
0.311326
0.0631239
0.314725
0.0665801
0.318455
0.0698754
0.32253
0.0729912
0.32696
0.0759076
0.331754
0.0786029
0.336915
0.081055
0.34244
0.0832416
0.348321
0.0851413
0.354543
0.0867344
0.361081
0.0880038
0.367905
0.0889361
0.374976
0.0895223
0.382246
0.0897588
0.389663
0.0896481
0.39717
0.0891983
0.0884305
0.404708
0.297435
0.00565167
0.297879
0.0109465
0.298533
0.0159496
0.299394
0.0207113
0.300462
0.0252689
0.301742
0.0296507
0.303239
0.0338781
0.304963
0.0379664
0.306921
0.0419254
0.309127
0.0457599
0.311592
0.0494705
0.314328
0.0530536
0.317348
0.0565025
0.320664
0.0598073
0.324289
0.0629556
0.328231
0.0659329
0.3325
0.068723
0.337098
0.0713087
0.342029
0.073672
0.347289
0.075795
0.35287
0.0776606
0.358759
0.0792528
0.364935
0.0805581
0.371373
0.0815655
0.378042
0.0822677
0.384903
0.0826616
0.391913
0.0827485
0.399026
0.0825348
0.406193
0.0820312
0.0812584
0.413365
0.304654
0.00539272
0.305157
0.0104435
0.305895
0.0152114
0.306864
0.0197424
0.308063
0.0240704
0.309492
0.0282211
0.311157
0.0322134
0.313062
0.0360609
0.315216
0.039772
0.317625
0.0433504
0.3203
0.046796
0.323248
0.0501052
0.326479
0.0532713
0.330001
0.0562853
0.333821
0.059136
0.337943
0.0618108
0.34237
0.0642957
0.347103
0.0665765
0.352136
0.0686387
0.357462
0.0704685
0.36307
0.072053
0.368941
0.0733813
0.375055
0.0744445
0.381384
0.0752366
0.387897
0.075755
0.394558
0.0760003
0.401329
0.0759775
0.408169
0.0756949
0.415035
0.0751645
0.074406
0.421888
0.312046
0.00510478
0.312605
0.00988451
0.313424
0.0143925
0.314496
0.0186702
0.315818
0.0227484
0.31739
0.0266498
0.319211
0.0303916
0.321287
0.0339854
0.32362
0.0374384
0.326217
0.0407537
0.329082
0.0439307
0.332222
0.0469658
0.33564
0.0498529
0.339341
0.052584
0.343328
0.0551494
0.347601
0.0575383
0.352157
0.0597392
0.356993
0.0617406
0.3621
0.0635313
0.367468
0.0651011
0.37308
0.066441
0.378917
0.0675438
0.384957
0.0684046
0.391173
0.069021
0.397534
0.0693937
0.404008
0.0695262
0.410561
0.0694251
0.417156
0.0691001
0.423757
0.0685635
0.0678333
0.430329
0.319615
0.00478917
0.320227
0.00927223
0.321123
0.0134968
0.322293
0.0175001
0.323732
0.0213095
0.325436
0.0249455
0.327405
0.028423
0.329638
0.0317521
0.332138
0.0349391
0.334905
0.0379862
0.337943
0.0408929
0.341253
0.0436558
0.344836
0.0462695
0.348693
0.0487272
0.352822
0.0510205
0.35722
0.0531406
0.361881
0.0550784
0.366796
0.0568251
0.371955
0.0583721
0.377344
0.0597125
0.382945
0.0608401
0.388737
0.0617512
0.394698
0.0624436
0.400801
0.0629178
0.407019
0.0631764
0.41332
0.0632248
0.419674
0.0630707
0.42605
0.0627241
0.432417
0.062197
0.0615056
0.438745
0.327365
0.00444726
0.328028
0.00860931
0.328997
0.0125284
0.330259
0.0162375
0.331808
0.019761
0.333636
0.0231168
0.335741
0.0263179
0.33812
0.0293731
0.340772
0.0322877
0.343695
0.0350635
0.346888
0.0376998
0.35035
0.0401939
0.354078
0.042541
0.35807
0.0447354
0.36232
0.0467704
0.366821
0.048639
0.371566
0.050334
0.376542
0.051849
0.381736
0.053178
0.387132
0.0543163
0.392712
0.0552607
0.398454
0.0560093
0.404335
0.0565624
0.41033
0.0569223
0.416414
0.057093
0.422558
0.0570808
0.428735
0.0568938
0.434917
0.0565418
0.441078
0.0560362