/*--------------------------------*- C++ -*----------------------------------*\
  =========                 |
  \\      /  F ield         | OpenFOAM: The Open Source CFD Toolbox
   \\    /   O peration     | Website:  https://openfoam.org
    \\  /    A nd           | Version:  7
     \\/     M anipulation  |
\*---------------------------------------------------------------------------*/
FoamFile
{
    version     2.0;
    format      ascii;
    class       volVectorField;
    location    "2.3";
    object      U;
}
// * * * * * * * * * * * * * * * * * * * * * * * * * * * * * * * * * * * * * //

dimensions      [0 1 -1 0 0 0 0];

internalField   nonuniform List<vector> 
2790
(
(9.94398 0.0205255 0)
(9.8757 0.0295926 0)
(9.77517 0.0359971 0)
(9.64936 0.0425665 0)
(9.50397 0.0493984 0)
(9.3399 0.0564439 0)
(9.15632 0.0638339 0)
(8.95234 0.0717318 0)
(8.72711 0.0802772 0)
(8.47966 0.089597 0)
(8.20878 0.099818 0)
(7.91308 0.11107 0)
(7.59105 0.123485 0)
(7.24108 0.137189 0)
(6.86158 0.152295 0)
(6.451 0.16889 0)
(6.00805 0.187014 0)
(5.53183 0.206631 0)
(5.02211 0.227597 0)
(4.47959 0.249612 0)
(3.90633 0.272169 0)
(3.30604 0.29451 0)
(2.68456 0.315595 0)
(2.04997 0.334254 0)
(1.41123 0.350562 0)
(0.797586 0.372831 0)
(0.110243 0.324826 0)
(-0.469501 -0.114871 0)
(-0.453765 -0.296963 0)
(-0.231125 -0.423727 0)
(9.9985 0.0407102 0)
(9.98144 0.0623976 0)
(9.9357 0.0791628 0)
(9.86409 0.0966551 0)
(9.77085 0.115162 0)
(9.65698 0.134533 0)
(9.52183 0.155026 0)
(9.36456 0.177 0)
(9.18436 0.200769 0)
(8.98024 0.226615 0)
(8.75102 0.254811 0)
(8.49531 0.285627 0)
(8.21156 0.319314 0)
(7.89812 0.356083 0)
(7.55328 0.396074 0)
(7.17539 0.439308 0)
(6.76294 0.485627 0)
(6.3148 0.534608 0)
(5.83038 0.585466 0)
(5.31002 0.63694 0)
(4.75531 0.68717 0)
(4.16962 0.733592 0)
(3.55856 0.772877 0)
(2.93089 0.800996 0)
(2.29937 0.813633 0)
(1.69248 0.807118 0)
(1.10676 0.747059 0)
(0.658617 0.54773 0)
(0.18606 0.224302 0)
(-0.00819083 -0.453774 0)
(9.99559 0.0432191 0)
(9.97554 0.0752966 0)
(9.93176 0.103384 0)
(9.86482 0.132422 0)
(9.77766 0.163123 0)
(9.67138 0.195474 0)
(9.54566 0.229829 0)
(9.39985 0.266699 0)
(9.2333 0.306574 0)
(9.04522 0.349916 0)
(8.8346 0.397184 0)
(8.60026 0.448833 0)
(8.34083 0.5053 0)
(8.05482 0.566964 0)
(7.74064 0.6341 0)
(7.39666 0.706805 0)
(7.02129 0.784891 0)
(6.61312 0.867755 0)
(6.17109 0.954198 0)
(5.6948 1.04223 0)
(5.18481 1.12882 0)
(4.64318 1.20969 0)
(4.07407 1.27903 0)
(3.48472 1.32917 0)
(2.88627 1.34989 0)
(2.29898 1.3262 0)
(1.73145 1.22051 0)
(1.21595 0.972754 0)
(0.700951 0.569922 0)
(0.35788 -0.156809 0)
(9.99402 0.0495162 0)
(9.97179 0.093241 0)
(9.92784 0.133625 0)
(9.86217 0.17428 0)
(9.77682 0.216522 0)
(9.67281 0.260766 0)
(9.55009 0.307549 0)
(9.4082 0.357547 0)
(9.24667 0.411433 0)
(9.06491 0.469855 0)
(8.86219 0.533455 0)
(8.63764 0.602876 0)
(8.39022 0.678739 0)
(8.11884 0.761611 0)
(7.82226 0.851942 0)
(7.49923 0.949974 0)
(7.14843 1.05562 0)
(6.76861 1.16828 0)
(6.35865 1.28661 0)
(5.91776 1.40823 0)
(5.44572 1.52938 0)
(4.94323 1.64455 0)
(4.41244 1.74596 0)
(3.85761 1.82299 0)
(3.28525 1.86109 0)
(2.70592 1.84002 0)
(2.12526 1.72567 0)
(1.55397 1.47752 0)
(0.957771 1.08336 0)
(0.509338 0.502012 0)
(9.99331 0.0572354 0)
(9.96992 0.111004 0)
(9.92589 0.162172 0)
(9.86138 0.213439 0)
(9.77787 0.26647 0)
(9.67618 0.322049 0)
(9.55631 0.380856 0)
(9.41792 0.443658 0)
(9.26061 0.511239 0)
(9.0839 0.584362 0)
(8.8872 0.663784 0)
(8.66982 0.750258 0)
(8.43095 0.844522 0)
(8.16976 0.947258 0)
(7.88532 1.05903 0)
(7.57668 1.1802 0)
(7.24283 1.31077 0)
(6.88275 1.45023 0)
(6.49542 1.59722 0)
(6.07988 1.74927 0)
(5.63533 1.9023 0)
(5.16133 2.05014 0)
(4.65804 2.18394 0)
(4.12655 2.29145 0)
(3.56882 2.35622 0)
(2.9884 2.35693 0)
(2.38644 2.26453 0)
(1.7661 2.0472 0)
(1.08982 1.69095 0)
(0.536566 1.15372 0)
(9.99301 0.0655654 0)
(9.96921 0.128756 0)
(9.92552 0.190197 0)
(9.86245 0.251955 0)
(9.78116 0.315718 0)
(9.68227 0.382484 0)
(9.56578 0.453063 0)
(9.43142 0.52831 0)
(9.27884 0.609105 0)
(9.10762 0.69632 0)
(8.91726 0.79082 0)
(8.70715 0.893463 0)
(8.47663 1.00509 0)
(8.22495 1.12647 0)
(7.95137 1.25828 0)
(7.65506 1.40096 0)
(7.33516 1.55465 0)
(6.99075 1.71892 0)
(6.62079 1.89255 0)
(6.22411 2.07315 0)
(5.79941 2.25671 0)
(5.34522 2.43699 0)
(4.85994 2.60491 0)
(4.34201 2.74786 0)
(3.78979 2.84912 0)
(3.20207 2.88772 0)
(2.57617 2.83771 0)
(1.91318 2.67106 0)
(1.17258 2.37344 0)
(0.549886 1.89386 0)
(9.99296 0.0741066 0)
(9.96925 0.146379 0)
(9.92633 0.217582 0)
(9.86501 0.289425 0)
(9.7863 0.363521 0)
(9.69067 0.441023 0)
(9.57811 0.522885 0)
(9.44841 0.610059 0)
(9.30127 0.703523 0)
(9.13633 0.804246 0)
(8.95312 0.913187 0)
(8.7511 1.0313 0)
(8.52965 1.1595 0)
(8.28812 1.29865 0)
(8.02577 1.44952 0)
(7.74182 1.61266 0)
(7.43538 1.78832 0)
(7.10546 1.97623 0)
(6.75085 2.1754 0)
(6.37006 2.38373 0)
(5.96118 2.59757 0)
(5.52176 2.81112 0)
(5.04871 3.0158 0)
(4.53827 3.19953 0)
(3.98602 3.34617 0)
(3.38738 3.43539 0)
(2.73684 3.44268 0)
(2.03594 3.34084 0)
(1.24158 3.11291 0)
(0.563436 2.69249 0)
(9.99306 0.0826249 0)
(9.96979 0.163682 0)
(9.92803 0.244165 0)
(9.86877 0.325634 0)
(9.793 0.409638 0)
(9.70108 0.497434 0)
(9.59299 0.5901 0)
(9.46857 0.688685 0)
(9.32757 0.794252 0)
(9.16968 0.907858 0)
(8.99448 1.03055 0)
(8.80148 1.16337 0)
(8.5901 1.30733 0)
(8.35972 1.46339 0)
(8.10959 1.63241 0)
(7.83889 1.81509 0)
(7.54664 2.01183 0)
(7.23166 2.2226 0)
(6.89248 2.44674 0)
(6.52714 2.6826 0)
(6.13309 2.92716 0)
(5.7069 3.17546 0)
(5.24408 3.41995 0)
(4.73898 3.64968 0)
(4.18479 3.84963 0)
(3.57419 4.00021 0)
(2.89908 4.07716 0)
(2.1618 4.05161 0)
(1.31594 3.90091 0)
(0.583143 3.53937 0)
(9.99325 0.0909703 0)
(9.9707 0.180495 0)
(9.93042 0.269799 0)
(9.87354 0.360417 0)
(9.80105 0.453866 0)
(9.71325 0.55147 0)
(9.61013 0.65441 0)
(9.49156 0.763827 0)
(9.35736 0.880863 0)
(9.20725 1.00666 0)
(9.04089 1.14235 0)
(8.85782 1.28905 0)
(8.65753 1.4479 0)
(8.43939 1.61994 0)
(8.20267 1.80618 0)
(7.94648 2.00747 0)
(7.66975 2.22444 0)
(7.37108 2.45738 0)
(7.04869 2.70606 0)
(6.70016 2.96947 0)
(6.32225 3.24544 0)
(5.9106 3.53018 0)
(5.45938 3.81758 0)
(4.96113 4.09838 0)
(4.40665 4.35915 0)
(3.78578 4.58129 0)
(3.08709 4.74021 0)
(2.31238 4.80356 0)
(1.41046 4.74017 0)
(0.614235 4.44102 0)
(9.99352 0.0990394 0)
(9.97189 0.196676 0)
(9.93336 0.294342 0)
(9.87916 0.393615 0)
(9.81027 0.496003 0)
(9.72698 0.602883 0)
(9.62928 0.71552 0)
(9.51709 0.835137 0)
(9.39027 0.962951 0)
(9.24863 1.10018 0)
(9.09187 1.24803 0)
(8.9196 1.40774 0)
(8.73135 1.5805 0)
(8.52655 1.76751 0)
(8.30447 1.96992 0)
(8.06422 2.18879 0)
(7.80461 2.42503 0)
(7.52413 2.67931 0)
(7.2207 2.95195 0)
(6.89154 3.24272 0)
(6.53281 3.55054 0)
(6.1393 3.87309 0)
(5.70395 4.20615 0)
(5.21749 4.54268 0)
(4.66813 4.87159 0)
(4.04217 5.17601 0)
(3.32317 5.43128 0)
(2.50942 5.60092 0)
(1.54169 5.64245 0)
(0.66399 5.41703 0)
(9.99384 0.106757 0)
(9.97328 0.212108 0)
(9.93675 0.317666 0)
(9.88549 0.425076 0)
(9.8205 0.535865 0)
(9.74206 0.651449 0)
(9.65018 0.773165 0)
(9.54484 0.902306 0)
(9.42595 1.04016 0)
(9.29339 1.188 0)
(9.14691 1.34714 0)
(8.98623 1.51886 0)
(8.81093 1.70449 0)
(8.62051 1.90534 0)
(8.4143 2.12274 0)
(8.19141 2.35796 0)
(7.95068 2.61225 0)
(7.69052 2.88672 0)
(7.40872 3.18234 0)
(7.10228 3.49977 0)
(6.76699 3.83921 0)
(6.39701 4.2001 0)
(5.9843 4.58055 0)
(5.51794 4.97651 0)
(4.98339 5.38033 0)
(4.36247 5.77843 0)
(3.63133 6.14793 0)
(2.77977 6.44944 0)
(1.73329 6.62733 0)
(0.744787 6.50199 0)
(9.9942 0.114064 0)
(9.97485 0.226694 0)
(9.94051 0.339654 0)
(9.89243 0.454667 0)
(9.8316 0.573288 0)
(9.75831 0.696973 0)
(9.67262 0.827113 0)
(9.57453 0.965061 0)
(9.46405 1.11216 0)
(9.34109 1.26976 0)
(9.20552 1.43921 0)
(9.05712 1.62191 0)
(8.89559 1.81926 0)
(8.7205 2.0327 0)
(8.53129 2.26373 0)
(8.32717 2.51387 0)
(8.10706 2.78469 0)
(7.86943 3.07779 0)
(7.61215 3.39482 0)
(7.33222 3.73741 0)
(7.02539 4.10718 0)
(6.68563 4.50555 0)
(6.30443 4.9334 0)
(5.86975 5.39051 0)
(5.36462 5.87419 0)
(4.76597 6.3769 0)
(4.04007 6.88178 0)
(3.16111 7.35206 0)
(2.02464 7.72187 0)
(0.880739 7.75594 0)
(9.99459 0.120917 0)
(9.97655 0.240355 0)
(9.94456 0.360206 0)
(9.89987 0.482268 0)
(9.84342 0.608131 0)
(9.77555 0.739283 0)
(9.69635 0.877159 0)
(9.60587 1.02316 0)
(9.50419 1.17868 0)
(9.3913 1.34512 0)
(9.26716 1.52388 0)
(9.13165 1.71643 0)
(8.98458 1.92425 0)
(8.82567 2.14891 0)
(8.65448 2.39206 0)
(8.4704 2.65544 0)
(8.27253 2.94095 0)
(8.05957 3.25064 0)
(7.82966 3.58683 0)
(7.58011 3.95214 0)
(7.30705 4.34958 0)
(7.0049 4.78265 0)
(6.66551 5.25532 0)
(6.27688 5.77188 0)
(5.82106 6.33633 0)
(5.27137 6.9508 0)
(4.58379 7.61187 0)
(3.70964 8.29917 0)
(2.48822 8.95672 0)
(1.12462 9.29216 0)
(9.99501 0.12728 0)
(9.97836 0.253026 0)
(9.94886 0.379237 0)
(9.90771 0.507778 0)
(9.85584 0.640274 0)
(9.79361 0.77824 0)
(9.72115 0.923145 0)
(9.63857 1.07643 0)
(9.54601 1.23952 0)
(9.44356 1.41384 0)
(9.33127 1.60086 0)
(9.20914 1.80208 0)
(9.07712 2.01906 0)
(8.93507 2.25346 0)
(8.78276 2.50706 0)
(8.61981 2.78178 0)
(8.44558 3.0798 0)
(8.25917 3.40358 0)
(8.05918 3.75599 0)
(7.84357 4.14052 0)
(7.60934 4.56146 0)
(7.35206 5.0242 0)
(7.06514 5.5357 0)
(6.73849 6.10495 0)
(6.3562 6.74367 0)
(5.89269 7.46698 0)
(5.2999 8.29411 0)
(4.50864 9.24573 0)
(3.26923 10.3401 0)
(1.60552 11.3586 0)
(9.99544 0.133125 0)
(9.98024 0.264657 0)
(9.95334 0.396676 0)
(9.91587 0.531104 0)
(9.86874 0.669596 0)
(9.81232 0.813689 0)
(9.74679 0.964874 0)
(9.67234 1.12462 0)
(9.58916 1.29436 0)
(9.49744 1.47558 0)
(9.39732 1.66974 0)
(9.28894 1.87838 0)
(9.17239 2.10311 0)
(9.04774 2.34565 0)
(8.91495 2.60786 0)
(8.77394 2.89183 0)
(8.62445 3.19989 0)
(8.46605 3.5348 0)
(8.298 3.89987 0)
(8.11919 4.29917 0)
(7.92791 4.73793 0)
(7.72163 5.22298 0)
(7.49652 5.76355 0)
(7.24672 6.37243 0)
(6.96279 7.0681 0)
(6.62926 7.8784 0)
(6.21342 8.84884 0)
(5.66595 10.0626 0)
(4.69172 11.7284 0)
(2.68913 14.5937 0)
(0.184336 -0.199909 0)
(0.414244 -0.173639 0)
(0.655904 -0.142314 0)
(0.870653 -0.116403 0)
(1.0528 -0.0960373 0)
(1.20825 -0.0799017 0)
(1.34331 -0.0669897 0)
(1.46224 -0.0565908 0)
(1.56786 -0.0481181 0)
(1.6622 -0.0410243 0)
(1.74651 -0.0347355 0)
(1.82098 -0.0286734 0)
(1.88463 -0.0224811 0)
(1.936 -0.0162906 0)
(1.97458 -0.010756 0)
(2.00175 -0.0064267 0)
(2.01904 -0.00287673 0)
(2.02592 0.00023507 0)
(2.022 0.00315285 0)
(2.0106 0.00590014 0)
(1.99633 0.00840614 0)
(1.98266 0.00995074 0)
(1.97244 0.00940065 0)
(1.96937 0.00595535 0)
(1.97669 -0.000647792 0)
(1.99702 -0.00880411 0)
(2.03189 -0.0177559 0)
(2.08116 -0.0264992 0)
(2.14353 -0.0335249 0)
(2.23145 -0.0345966 0)
(0.134924 -0.408308 0)
(0.35092 -0.373343 0)
(0.564376 -0.314602 0)
(0.756648 -0.262887 0)
(0.922879 -0.221492 0)
(1.06764 -0.18843 0)
(1.19579 -0.161811 0)
(1.31061 -0.140233 0)
(1.4143 -0.122555 0)
(1.50855 -0.107704 0)
(1.59469 -0.0944161 0)
(1.67333 -0.081199 0)
(1.74397 -0.0670121 0)
(1.80501 -0.052183 0)
(1.85491 -0.0387349 0)
(1.89482 -0.0271326 0)
(1.9282 -0.0139284 0)
(1.95517 -0.00111598 0)
(1.9742 0.00635988 0)
(1.98222 0.00768334 0)
(1.9816 0.00522952 0)
(1.97325 0.00101287 0)
(1.95647 -0.00425291 0)
(1.9312 -0.0101525 0)
(1.89994 -0.0161975 0)
(1.86719 -0.0206081 0)
(1.83645 -0.0231296 0)
(1.80763 -0.0260237 0)
(1.7871 -0.029319 0)
(1.79402 -0.031289 0)
(0.0941422 -0.619434 0)
(0.269202 -0.577257 0)
(0.427495 -0.492968 0)
(0.571807 -0.416641 0)
(0.695755 -0.354767 0)
(0.803224 -0.304808 0)
(0.897491 -0.264102 0)
(0.980703 -0.230607 0)
(1.05427 -0.202815 0)
(1.11927 -0.179516 0)
(1.17693 -0.159126 0)
(1.22831 -0.139112 0)
(1.27354 -0.11695 0)
(1.31131 -0.0918444 0)
(1.33788 -0.0703868 0)
(1.35133 -0.0598864 0)
(1.36398 -0.0525103 0)
(1.36457 -0.0364862 0)
(1.31939 -0.014279 0)
(1.24408 0.00535884 0)
(1.15158 0.0213717 0)
(1.05094 0.0344155 0)
(0.948037 0.0433829 0)
(0.848303 0.0464218 0)
(0.759184 0.0414623 0)
(0.690732 0.0278779 0)
(0.659029 0.0106342 0)
(0.657543 -0.00708673 0)
(0.687638 -0.0316629 0)
(0.770604 -0.0651179 0)
(0.0587537 -0.766294 0)
(0.18225 -0.710177 0)
(0.274398 -0.603928 0)
(0.362097 -0.509516 0)
(0.433395 -0.432885 0)
(0.492943 -0.370671 0)
(0.542282 -0.319671 0)
(0.582529 -0.277237 0)
(0.614246 -0.241416 0)
(0.637347 -0.211054 0)
(0.652195 -0.185115 0)
(0.660124 -0.16153 0)
(0.662955 -0.138551 0)
(0.66261 -0.112331 0)
(0.659657 -0.0784499 0)
(0.59833 -0.0381223 0)
(0.475063 -0.000267948 0)
(0.376891 0.0407265 0)
(0.305881 0.0754782 0)
(0.229148 0.0963698 0)
(0.154249 0.106153 0)
(0.0838381 0.108081 0)
(0.0215913 0.102759 0)
(-0.0273842 0.089345 0)
(-0.0603353 0.0668382 0)
(-0.0763941 0.0352434 0)
(-0.0770689 -0.000284515 0)
(-0.0464903 -0.0364179 0)
(-0.00265282 -0.0760181 0)
(0.0707459 -0.111766 0)
(0.0237966 -0.854729 0)
(0.0870372 -0.779131 0)
(0.106045 -0.655056 0)
(0.131446 -0.548825 0)
(0.142134 -0.461861 0)
(0.145016 -0.390759 0)
(0.139735 -0.332172 0)
(0.126972 -0.282993 0)
(0.106963 -0.240536 0)
(0.0782744 -0.202725 0)
(0.0372362 -0.167604 0)
(-0.0191751 -0.132633 0)
(-0.0907196 -0.0943246 0)
(-0.182071 -0.0484275 0)
(-0.279651 0.00246637 0)
(-0.339404 0.0431764 0)
(-0.393177 0.0668049 0)
(-0.446641 0.0845205 0)
(-0.496138 0.104555 0)
(-0.542766 0.121629 0)
(-0.582755 0.129426 0)
(-0.614939 0.127377 0)
(-0.637672 0.11622 0)
(-0.650027 0.0959462 0)
(-0.652148 0.0671647 0)
(-0.646335 0.0308475 0)
(-0.636051 -0.0101729 0)
(-0.611473 -0.0531773 0)
(-0.589127 -0.0922614 0)
(-0.57468 -0.118239 0)
(-0.0131579 -0.875846 0)
(-0.017228 -0.776238 0)
(-0.0727096 -0.638883 0)
(-0.114866 -0.525629 0)
(-0.169362 -0.431771 0)
(-0.228989 -0.354622 0)
(-0.294911 -0.290435 0)
(-0.366774 -0.235771 0)
(-0.444056 -0.187664 0)
(-0.52596 -0.143851 0)
(-0.611041 -0.102919 0)
(-0.697415 -0.0646863 0)
(-0.781905 -0.0286599 0)
(-0.858406 0.00431461 0)
(-0.913352 0.0338168 0)
(-0.962323 0.0629722 0)
(-1.00732 0.0904375 0)
(-1.04758 0.111492 0)
(-1.08133 0.127954 0)
(-1.10775 0.138868 0)
(-1.12625 0.141325 0)
(-1.13713 0.13451 0)
(-1.14076 0.118748 0)
(-1.13785 0.0945316 0)
(-1.12967 0.0627128 0)
(-1.11849 0.0243711 0)
(-1.10671 -0.0183013 0)
(-1.09191 -0.061307 0)
(-1.08273 -0.100222 0)
(-1.08064 -0.127469 0)
(-0.0563036 -0.822825 0)
(-0.130518 -0.700457 0)
(-0.255921 -0.559348 0)
(-0.366396 -0.44482 0)
(-0.481326 -0.350773 0)
(-0.59535 -0.273945 0)
(-0.707451 -0.210613 0)
(-0.8162 -0.157507 0)
(-0.92045 -0.111903 0)
(-1.01917 -0.0720388 0)
(-1.11108 -0.036936 0)
(-1.19525 -0.00578851 0)
(-1.26588 0.0218515 0)
(-1.32402 0.0474466 0)
(-1.37643 0.0718568 0)
(-1.42176 0.094883 0)
(-1.46 0.115168 0)
(-1.49091 0.131361 0)
(-1.51383 0.142727 0)
(-1.52851 0.148036 0)
(-1.53548 0.145621 0)
(-1.53586 0.134851 0)
(-1.53094 0.115939 0)
(-1.52207 0.0894897 0)
(-1.51084 0.0564182 0)
(-1.49925 0.0179118 0)
(-1.48913 -0.0239793 0)
(-1.48104 -0.06565 0)
(-1.47921 -0.10332 0)
(-1.48152 -0.129926 0)
(-0.104278 -0.697196 0)
(-0.243319 -0.558826 0)
(-0.434597 -0.421285 0)
(-0.60366 -0.313313 0)
(-0.765151 -0.228213 0)
(-0.915278 -0.16091 0)
(-1.05316 -0.10682 0)
(-1.17833 -0.0630397 0)
(-1.29121 -0.0271911 0)
(-1.38913 0.00172852 0)
(-1.47326 0.0259654 0)
(-1.54493 0.047085 0)
(-1.60975 0.0668472 0)
(-1.66745 0.0859316 0)
(-1.71749 0.104482 0)
(-1.75913 0.121445 0)
(-1.79226 0.135609 0)
(-1.81693 0.14603 0)
(-1.8332 0.15187 0)
(-1.84146 0.152054 0)
(-1.84271 0.145491 0)
(-1.83848 0.131712 0)
(-1.8304 0.110846 0)
(-1.8201 0.0834067 0)
(-1.80925 0.050237 0)
(-1.79962 0.012572 0)
(-1.79276 -0.0275844 0)
(-1.79046 -0.0672082 0)
(-1.79413 -0.10293 0)
(-1.79893 -0.127728 0)
(-0.158979 -0.505541 0)
(-0.357539 -0.361426 0)
(-0.605669 -0.240036 0)
(-0.821083 -0.147852 0)
(-1.01427 -0.0777262 0)
(-1.18271 -0.0263897 0)
(-1.32546 0.00909497 0)
(-1.44704 0.0348103 0)
(-1.55062 0.0540979 0)
(-1.64194 0.0702104 0)
(-1.72342 0.0846978 0)
(-1.79605 0.0982938 0)
(-1.86028 0.111286 0)
(-1.9161 0.123608 0)
(-1.96323 0.135201 0)
(-2.0014 0.145357 0)
(-2.03067 0.153129 0)
(-2.05132 0.157648 0)
(-2.0638 0.158111 0)
(-2.06889 0.153663 0)
(-2.06785 0.143559 0)
(-2.06234 0.127454 0)
(-2.05414 0.105398 0)
(-2.04498 0.0777515 0)
(-2.03649 0.0452186 0)
(-2.0303 0.00901784 0)
(-2.02781 -0.0289333 0)
(-2.03115 -0.0661432 0)
(-2.03975 -0.0995141 0)
(-2.04656 -0.122144 0)
(-0.229174 -0.271167 0)
(-0.491484 -0.105923 0)
(-0.77481 0.00188955 0)
(-1.00391 0.0594778 0)
(-1.19644 0.0902975 0)
(-1.35841 0.10707 0)
(-1.49842 0.118327 0)
(-1.61994 0.126478 0)
(-1.72604 0.132982 0)
(-1.81897 0.13864 0)
(-1.90049 0.143931 0)
(-1.97194 0.14918 0)
(-2.03407 0.154436 0)
(-2.08715 0.159434 0)
(-2.1312 0.16386 0)
(-2.16626 0.16716 0)
(-2.1926 0.168611 0)
(-2.21071 0.167452 0)
(-2.22127 0.162952 0)
(-2.22526 0.154432 0)
(-2.22404 0.141372 0)
(-2.21932 0.123519 0)
(-2.21292 0.10086 0)
(-2.20654 0.0735786 0)
(-2.20176 0.0421898 0)
(-2.20004 0.00780704 0)
(-2.2027 -0.0277775 0)
(-2.21179 -0.0624765 0)
(-2.22514 -0.0934383 0)
(-2.2339 -0.114066 0)
(-0.275417 0.152349 0)
(-0.562021 0.220332 0)
(-0.861309 0.244698 0)
(-1.1026 0.251963 0)
(-1.30542 0.248469 0)
(-1.47568 0.240159 0)
(-1.61939 0.230507 0)
(-1.74169 0.221265 0)
(-1.84675 0.213235 0)
(-1.93747 0.206721 0)
(-2.01608 0.201779 0)
(-2.08424 0.198205 0)
(-2.14298 0.195502 0)
(-2.19271 0.193073 0)
(-2.2336 0.190439 0)
(-2.26587 0.187146 0)
(-2.28997 0.182641 0)
(-2.30659 0.176264 0)
(-2.31653 0.16735 0)
(-2.32084 0.155348 0)
(-2.3209 0.139898 0)
(-2.31839 0.120825 0)
(-2.31511 0.0980554 0)
(-2.31273 0.0715896 0)
(-2.31267 0.0417107 0)
(-2.31623 0.00935097 0)
(-2.32469 -0.0238516 0)
(-2.33974 -0.056095 0)
(-2.35793 -0.0847901 0)
(-2.36872 -0.103757 0)
(-0.286119 0.506922 0)
(-0.606318 0.536864 0)
(-0.936982 0.505579 0)
(-1.19237 0.461771 0)
(-1.39896 0.417041 0)
(-1.56701 0.376319 0)
(-1.70561 0.34174 0)
(-1.82189 0.313489 0)
(-1.92081 0.290433 0)
(-2.00553 0.271554 0)
(-2.07842 0.256359 0)
(-2.14142 0.244173 0)
(-2.19571 0.233865 0)
(-2.24169 0.224351 0)
(-2.27942 0.215028 0)
(-2.3092 0.205605 0)
(-2.33168 0.195708 0)
(-2.34767 0.184738 0)
(-2.35806 0.172046 0)
(-2.36385 0.157163 0)
(-2.36633 0.139863 0)
(-2.36711 0.120051 0)
(-2.36797 0.0976058 0)
(-2.3705 0.0723364 0)
(-2.37597 0.0442462 0)
(-2.3855 0.0140087 0)
(-2.40038 -0.0169141 0)
(-2.4217 -0.0468623 0)
(-2.44498 -0.073522 0)
(-2.45797 -0.0911676 0)
(-0.324893 0.932729 0)
(-0.689146 0.902242 0)
(-1.04177 0.784375 0)
(-1.2933 0.672009 0)
(-1.48692 0.579835 0)
(-1.63957 0.504585 0)
(-1.76293 0.444569 0)
(-1.86577 0.398075 0)
(-1.95355 0.361088 0)
(-2.02877 0.330613 0)
(-2.09338 0.30588 0)
(-2.14957 0.28601 0)
(-2.19866 0.269044 0)
(-2.24073 0.253175 0)
(-2.27547 0.237735 0)
(-2.30311 0.222786 0)
(-2.32453 0.208227 0)
(-2.34076 0.193446 0)
(-2.35264 0.177693 0)
(-2.36099 0.160529 0)
(-2.36692 0.141869 0)
(-2.37193 0.121739 0)
(-2.37775 0.0999994 0)
(-2.38596 0.0762663 0)
(-2.39767 0.0501991 0)
(-2.41385 0.0221094 0)
(-2.43573 -0.00673409 0)
(-2.46371 -0.0346337 0)
(-2.49248 -0.0595055 0)
(-2.50791 -0.0761054 0)
(-0.404927 1.4319 0)
(-0.83652 1.31129 0)
(-1.20064 1.0637 0)
(-1.41838 0.861277 0)
(-1.57453 0.721731 0)
(-1.69645 0.614265 0)
(-1.79355 0.53097 0)
(-1.87535 0.469873 0)
(-1.94769 0.422317 0)
(-2.01068 0.381879 0)
(-2.06477 0.348792 0)
(-2.1127 0.322892 0)
(-2.15622 0.300924 0)
(-2.19465 0.279776 0)
(-2.22676 0.258875 0)
(-2.25262 0.239076 0)
(-2.27354 0.220753 0)
(-2.2909 0.203116 0)
(-2.30543 0.185084 0)
(-2.31756 0.166187 0)
(-2.32805 0.146547 0)
(-2.33822 0.126404 0)
(-2.3498 0.105666 0)
(-2.36436 0.0837606 0)
(-2.38295 0.0599326 0)
(-2.40634 0.0340005 0)
(-2.4357 0.00700381 0)
(-2.47114 -0.0192536 0)
(-2.50586 -0.0424892 0)
(-2.52405 -0.0581596 0)
(-0.576718 2.27951 0)
(-1.08869 1.90387 0)
(-1.45197 1.35159 0)
(-1.57991 0.983424 0)
(-1.65928 0.817885 0)
(-1.73548 0.695431 0)
(-1.79549 0.594232 0)
(-1.84842 0.524477 0)
(-1.90276 0.472341 0)
(-1.95253 0.4236 0)
(-1.99412 0.383193 0)
(-2.03233 0.353815 0)
(-2.07048 0.329564 0)
(-2.10629 0.30448 0)
(-2.13649 0.278577 0)
(-2.16091 0.254483 0)
(-2.18186 0.233455 0)
(-2.20141 0.214171 0)
(-2.22005 0.19475 0)
(-2.23748 0.174637 0)
(-2.25387 0.154314 0)
(-2.27033 0.134379 0)
(-2.28855 0.114865 0)
(-2.31022 0.0950298 0)
(-2.33636 0.073642 0)
(-2.36757 0.0498858 0)
(-2.40485 0.0245094 0)
(-2.44829 -0.00027426 0)
(-2.4898 -0.0220028 0)
(-2.51114 -0.0367158 0)
(9.9959 0.138526 0)
(9.98223 0.275403 0)
(9.95806 0.412777 0)
(9.92444 0.552614 0)
(9.88227 0.69659 0)
(9.83195 0.846256 0)
(9.7737 1.00312 0)
(9.70777 1.16865 0)
(9.63444 1.3443 0)
(9.55398 1.53155 0)
(9.46667 1.73189 0)
(9.37277 1.94685 0)
(9.27254 2.17806 0)
(9.16624 2.42727 0)
(9.05413 2.69637 0)
(8.93642 2.98751 0)
(8.81331 3.30313 0)
(8.68493 3.64612 0)
(8.55137 4.01997 0)
(8.41263 4.42907 0)
(8.26863 4.87905 0)
(8.1193 5.37734 0)
(7.96458 5.93412 0)
(7.80479 6.56372 0)
(7.64118 7.28721 0)
(7.47884 8.13715 0)
(7.33123 9.16751 0)
(7.28891 10.4719 0)
(7.75191 12.1953 0)
(7.94456 14.9141 0)
(9.99638 0.143492 0)
(9.98432 0.285271 0)
(9.963 0.427524 0)
(9.93342 0.57225 0)
(9.89642 0.721139 0)
(9.8524 0.875746 0)
(9.80167 1.03758 0)
(9.74453 1.20811 0)
(9.68134 1.38879 0)
(9.61248 1.58109 0)
(9.53832 1.78646 0)
(9.45929 2.00645 0)
(9.37582 2.24266 0)
(9.28839 2.49681 0)
(9.19753 2.77078 0)
(9.10382 3.06669 0)
(9.0079 3.38696 0)
(8.91052 3.73442 0)
(8.81261 4.11253 0)
(8.71535 4.52552 0)
(8.62035 4.97882 0)
(8.52998 5.47942 0)
(8.44798 6.03663 0)
(8.38063 6.66301 0)
(8.33916 7.37573 0)
(8.34573 8.19811 0)
(8.43934 9.16018 0)
(8.67607 10.2949 0)
(9.32502 11.5462 0)
(9.81883 12.6263 0)
(9.99688 0.147935 0)
(9.98649 0.294095 0)
(9.96814 0.440695 0)
(9.94273 0.589748 0)
(9.91106 0.742947 0)
(9.87356 0.901844 0)
(9.83056 1.06793 0)
(9.78244 1.24267 0)
(9.72963 1.42749 0)
(9.6726 1.62381 0)
(9.61186 1.83307 0)
(9.54795 2.05677 0)
(9.48151 2.29644 0)
(9.41323 2.55374 0)
(9.3439 2.83048 0)
(9.27444 3.12864 0)
(9.20596 3.45049 0)
(9.13978 3.79866 0)
(9.07761 4.17627 0)
(9.02164 4.58705 0)
(8.97491 5.03559 0)
(8.94169 5.52756 0)
(8.92828 6.0699 0)
(8.94421 6.67096 0)
(9.00397 7.34012 0)
(9.12972 8.0859 0)
(9.35243 8.90997 0)
(9.68143 9.80087 0)
(10.246 10.7066 0)
(10.9314 11.4159 0)
(9.99739 0.151803 0)
(9.98871 0.30177 0)
(9.97342 0.452122 0)
(9.95229 0.604875 0)
(9.92608 0.761714 0)
(9.89522 0.924174 0)
(9.86011 1.09372 0)
(9.82117 1.27179 0)
(9.77891 1.45977 0)
(9.73387 1.65902 0)
(9.68668 1.87094 0)
(9.63803 2.09693 0)
(9.58869 2.33845 0)
(9.53957 2.59703 0)
(9.49172 2.87433 0)
(9.44635 3.17214 0)
(9.40497 3.49245 0)
(9.36939 3.83753 0)
(9.34191 4.20995 0)
(9.3255 4.61267 0)
(9.32408 5.04907 0)
(9.34295 5.52298 0)
(9.38934 6.03849 0)
(9.47316 6.59953 0)
(9.60757 7.2088 0)
(9.80935 7.86589 0)
(10.1012 8.56357 0)
(10.4915 9.28703 0)
(11.0468 10.026 0)
(11.8366 10.6675 0)
(9.99792 0.155049 0)
(9.99099 0.308202 0)
(9.97879 0.46167 0)
(9.96202 0.617455 0)
(9.94135 0.777222 0)
(9.91723 0.942476 0)
(9.89009 1.11465 0)
(9.86041 1.29513 0)
(9.82876 1.48524 0)
(9.79576 1.68629 0)
(9.76212 1.89959 0)
(9.72866 2.12642 0)
(9.69629 2.36813 0)
(9.6661 2.62608 0)
(9.63933 2.90173 0)
(9.61745 3.1966 0)
(9.60226 3.51234 0)
(9.59592 3.85072 0)
(9.60112 4.21366 0)
(9.62124 4.60319 0)
(9.66059 5.02139 0)
(9.72469 5.47027 0)
(9.82059 5.95142 0)
(9.95723 6.4655 0)
(10.1456 7.0114 0)
(10.3987 7.5852 0)
(10.7339 8.17873 0)
(11.1624 8.7773 0)
(11.7072 9.36937 0)
(12.4566 9.88016 0)
(9.99845 0.15763 0)
(9.99328 0.313307 0)
(9.98422 0.469212 0)
(9.97184 0.627321 0)
(9.95675 0.789265 0)
(9.9394 0.956508 0)
(9.92024 1.13044 0)
(9.89981 1.31237 0)
(9.87873 1.50357 0)
(9.85767 1.70526 0)
(9.83744 1.91862 0)
(9.81894 2.14484 0)
(9.80319 2.38509 0)
(9.79142 2.64055 0)
(9.785 2.91242 0)
(9.7856 3.20191 0)
(9.79519 3.51027 0)
(9.81611 3.83874 0)
(9.85122 4.18853 0)
(9.90402 4.56076 0)
(9.97876 4.95632 0)
(10.0807 5.37568 0)
(10.216 5.81855 0)
(10.3924 6.28346 0)
(10.6185 6.76716 0)
(10.904 7.26384 0)
(11.26 7.76431 0)
(11.6945 8.25302 0)
(12.208 8.71333 0)
(12.8802 9.10383 0)
(9.99898 0.159506 0)
(9.99558 0.317006 0)
(9.98966 0.474636 0)
(9.98167 0.634326 0)
(9.97214 0.797663 0)
(9.96152 0.966062 0)
(9.95029 1.14084 0)
(9.93902 1.32326 0)
(9.92835 1.51448 0)
(9.91903 1.71563 0)
(9.9119 1.92777 0)
(9.90794 2.15195 0)
(9.90825 2.38914 0)
(9.91412 2.64032 0)
(9.92705 2.90642 0)
(9.94875 3.18831 0)
(9.98128 3.48682 0)
(10.027 3.80267 0)
(10.0888 4.1364 0)
(10.17 4.48832 0)
(10.2744 4.85831 0)
(10.4068 5.24568 0)
(10.5724 5.64883 0)
(10.777 6.06497 0)
(11.0271 6.48961 0)
(11.329 6.91606 0)
(11.6889 7.335 0)
(12.1106 7.73305 0)
(12.5882 8.09572 0)
(13.1903 8.4026 0)
(9.99951 0.160643 0)
(9.99787 0.319233 0)
(9.99505 0.477843 0)
(9.99142 0.638344 0)
(9.98739 0.802267 0)
(9.98341 0.970963 0)
(9.97998 1.14568 0)
(9.97768 1.32759 0)
(9.97718 1.51777 0)
(9.97925 1.71722 0)
(9.98477 1.92688 0)
(9.99476 2.14762 0)
(10.0104 2.38025 0)
(10.0329 2.6255 0)
(10.0639 2.88403 0)
(10.105 3.15639 0)
(10.1583 3.44298 0)
(10.2261 3.74406 0)
(10.3111 4.05959 0)
(10.4162 4.38919 0)
(10.5448 4.73202 0)
(10.7008 5.08654 0)
(10.8883 5.45036 0)
(11.1116 5.81998 0)
(11.3749 6.1905 0)
(11.682 6.55539 0)
(12.0357 6.9064 0)
(12.4374 7.23326 0)
(12.8796 7.52491 0)
(13.4199 7.77011 0)
(10 0.161014 0)
(10.0001 0.319934 0)
(10.0004 0.478753 0)
(10.001 0.639273 0)
(10.0024 0.802956 0)
(10.0049 0.971081 0)
(10.009 1.14482 0)
(10.0154 1.32524 0)
(10.0247 1.51332 0)
(10.0377 1.70995 0)
(10.0553 1.91591 0)
(10.0785 2.13192 0)
(10.1085 2.35859 0)
(10.1465 2.59643 0)
(10.194 2.84582 0)
(10.2527 3.10701 0)
(10.3245 3.38006 0)
(10.4115 3.66478 0)
(10.516 3.96069 0)
(10.6407 4.26691 0)
(10.7883 4.58205 0)
(10.9618 4.90409 0)
(11.1642 5.23027 0)
(11.3985 5.55687 0)
(11.6671 5.87916 0)
(11.9721 6.19132 0)
(12.3141 6.4865 0)
(12.6929 6.75693 0)
(13.1008 6.99432 0)
(13.5864 7.19186 0)
(10.0005 0.160598 0)
(10.0023 0.319066 0)
(10.0055 0.477307 0)
(10.0103 0.637038 0)
(10.0169 0.799647 0)
(10.0257 0.966331 0)
(10.0372 1.13817 0)
(10.0519 1.31614 0)
(10.0706 1.50111 0)
(10.094 1.69383 0)
(10.1229 1.89496 0)
(10.1585 2.10503 0)
(10.2017 2.32449 0)
(10.2538 2.55362 0)
(10.3163 2.79257 0)
(10.3906 3.04131 0)
(10.4784 3.2996 0)
(10.5817 3.56692 0)
(10.7023 3.84244 0)
(10.8425 4.12494 0)
(11.0044 4.41273 0)
(11.1901 4.70357 0)
(11.4018 4.99458 0)
(11.6412 5.2822 0)
(11.9096 5.56215 0)
(12.2076 5.82948 0)
(12.5348 6.07869 0)
(12.8898 6.30391 0)
(13.2655 6.49916 0)
(13.7037 6.66029 0)
(10.001 0.159378 0)
(10.0044 0.3166 0)
(10.0105 0.473464 0)
(10.0193 0.631595 0)
(10.031 0.792294 0)
(10.0458 0.956674 0)
(10.0642 1.12572 0)
(10.0869 1.30031 0)
(10.1144 1.48119 0)
(10.1475 1.66899 0)
(10.187 1.86423 0)
(10.2339 2.06729 0)
(10.2892 2.27844 0)
(10.354 2.49778 0)
(10.4296 2.72524 0)
(10.5175 2.96057 0)
(10.619 3.20328 0)
(10.7357 3.45262 0)
(10.8692 3.70754 0)
(11.0212 3.9666 0)
(11.1933 4.22799 0)
(11.3869 4.48943 0)
(11.6034 4.74815 0)
(11.8435 5.00092 0)
(12.1078 5.24403 0)
(12.3959 5.47341 0)
(12.7068 5.68475 0)
(13.0385 5.87372 0)
(13.3849 6.03612 0)
(13.7824 6.16944 0)
(10.0015 0.157347 0)
(10.0065 0.31252 0)
(10.0153 0.467206 0)
(10.028 0.622925 0)
(10.0444 0.780888 0)
(10.0649 0.942117 0)
(10.0899 1.1075 0)
(10.12 1.27781 0)
(10.1557 1.45368 0)
(10.1978 1.63563 0)
(10.247 1.82404 0)
(10.3042 2.01915 0)
(10.3703 2.22107 0)
(10.4463 2.42974 0)
(10.5334 2.64492 0)
(10.6328 2.86618 0)
(10.7455 3.09286 0)
(10.873 3.32406 0)
(11.0165 3.55858 0)
(11.1771 3.79493 0)
(11.3559 4.03127 0)
(11.5539 4.26542 0)
(11.7716 4.49486 0)
(12.0094 4.71675 0)
(12.267 4.92799 0)
(12.5436 5.12532 0)
(12.8377 5.30543 0)
(13.1475 5.4652 0)
(13.4674 5.60171 0)
(13.8299 5.71347 0)
(10.0019 0.154503 0)
(10.0084 0.306827 0)
(10.0199 0.458535 0)
(10.0361 0.61104 0)
(10.057 0.765457 0)
(10.0829 0.922714 0)
(10.114 1.08361 0)
(10.151 1.24879 0)
(10.1943 1.41881 0)
(10.2446 1.59406 0)
(10.3026 1.77481 0)
(10.3689 1.96116 0)
(10.4445 2.15309 0)
(10.5303 2.35042 0)
(10.6272 2.55277 0)
(10.736 2.75958 0)
(10.8579 2.97009 0)
(10.9938 3.1833 0)
(11.1445 3.39798 0)
(11.3109 3.61263 0)
(11.4936 3.82551 0)
(11.6931 4.03461 0)
(11.9095 4.23771 0)
(12.1427 4.4324 0)
(12.3919 4.61615 0)
(12.6563 4.7864 0)
(12.9341 4.94067 0)
(13.2234 5.0767 0)
(13.5198 5.19251 0)
(13.8521 5.28727 0)
(10.0024 0.150854 0)
(10.0102 0.299533 0)
(10.0241 0.447475 0)
(10.0437 0.595979 0)
(10.0688 0.746064 0)
(10.0996 0.898563 0)
(10.1365 1.05417 0)
(10.1798 1.21346 0)
(10.23 1.37685 0)
(10.2876 1.54465 0)
(10.3534 1.71701 0)
(10.4278 1.89394 0)
(10.5117 2.0753 0)
(10.6057 2.26081 0)
(10.7106 2.45 0)
(10.8272 2.64222 0)
(10.9562 2.83667 0)
(11.0983 3.0323 0)
(11.254 3.22791 0)
(11.4239 3.42207 0)
(11.6081 3.61319 0)
(11.807 3.79947 0)
(12.0201 3.97902 0)
(12.2471 4.14983 0)
(12.4872 4.30987 0)
(12.7391 4.45717 0)
(13.0013 4.5899 0)
(13.2719 4.70645 0)
(13.5471 4.8055 0)
(13.8534 4.88663 0)
(10.0027 0.14641 0)
(10.0119 0.290664 0)
(10.0281 0.434069 0)
(10.0508 0.57781 0)
(10.0798 0.722807 0)
(10.1151 0.869799 0)
(10.1571 1.01939 0)
(10.2061 1.17206 0)
(10.2625 1.32813 0)
(10.3267 1.48783 0)
(10.3992 1.6512 0)
(10.4807 1.81817 0)
(10.5715 1.98854 0)
(10.6724 2.16192 0)
(10.7839 2.3378 0)
(10.9065 2.5155 0)
(11.0408 2.69418 0)
(11.1872 2.87283 0)
(11.3459 3.0503 0)
(11.5173 3.22529 0)
(11.7014 3.39636 0)
(11.8979 3.56197 0)
(12.1064 3.72051 0)
(12.3264 3.87036 0)
(12.5568 4.00993 0)
(12.7964 4.13771 0)
(13.0439 4.25235 0)
(13.2974 4.35275 0)
(13.5538 4.43803 0)
(13.8373 4.50804 0)
(10.0031 0.141191 0)
(10.0134 0.280257 0)
(10.0317 0.418377 0)
(10.0573 0.556621 0)
(10.0898 0.69581 0)
(10.1292 0.836594 0)
(10.1759 0.979489 0)
(10.23 1.12488 0)
(10.2918 1.27303 0)
(10.3617 1.42406 0)
(10.4401 1.57795 0)
(10.5275 1.73457 0)
(10.6241 1.89364 0)
(10.7306 2.05474 0)
(10.8472 2.21733 0)
(10.9743 2.38072 0)
(11.1123 2.54409 0)
(11.2614 2.70648 0)
(11.4216 2.86683 0)
(11.593 3.02398 0)
(11.7753 3.17667 0)
(11.9683 3.3236 0)
(12.1713 3.46345 0)
(12.3837 3.5949 0)
(12.6044 3.71672 0)
(12.8322 3.82778 0)
(13.0659 3.92713 0)
(13.3039 4.01398 0)
(13.5436 4.0878 0)
(13.8072 4.14859 0)
(10.0034 0.135219 0)
(10.0148 0.268361 0)
(10.035 0.400476 0)
(10.0632 0.532521 0)
(10.0988 0.665223 0)
(10.142 0.799145 0)
(10.1927 0.934722 0)
(10.2513 1.07226 0)
(10.3179 1.21195 0)
(10.3927 1.35385 0)
(10.4761 1.49788 0)
(10.5683 1.64385 0)
(10.6697 1.79146 0)
(10.7805 1.94025 0)
(10.901 2.08969 0)
(11.0313 2.23911 0)