/*--------------------------------*- C++ -*----------------------------------*\
  =========                 |
  \\      /  F ield         | OpenFOAM: The Open Source CFD Toolbox
   \\    /   O peration     | Website:  https://openfoam.org
    \\  /    A nd           | Version:  7
     \\/     M anipulation  |
\*---------------------------------------------------------------------------*/
FoamFile
{
    version     2.0;
    format      ascii;
    class       surfaceVectorField;
    location    "2.3";
    object      Uf;
}
// * * * * * * * * * * * * * * * * * * * * * * * * * * * * * * * * * * * * * //

dimensions      [0 1 -1 0 0 0 0];

internalField   nonuniform List<vector> 
5457
(
(9.92087 0.0251132 0)
(9.97124 0.0387506 0)
(9.82398 0.0328331 0)
(9.92857 0.0485951 0)
(9.70955 0.039321 0)
(9.85543 0.0587833 0)
(9.57534 0.0460232 0)
(9.75672 0.0706137 0)
(9.42123 0.0529632 0)
(9.63741 0.0830389 0)
(9.24735 0.060183 0)
(9.49844 0.0959668 0)
(9.05336 0.06783 0)
(9.33907 0.109647 0)
(8.8386 0.0760556 0)
(9.15845 0.124327 0)
(8.60212 0.0849928 0)
(8.95573 0.140209 0)
(8.3428 0.0947686 0)
(8.72995 0.157477 0)
(8.05931 0.105511 0)
(8.4799 0.176314 0)
(7.7502 0.117352 0)
(8.2042 0.196901 0)
(7.41389 0.130419 0)
(7.9013 0.219404 0)
(7.04877 0.144832 0)
(7.5696 0.243963 0)
(6.65326 0.160692 0)
(7.20743 0.270668 0)
(6.2259 0.17806 0)
(6.81319 0.299529 0)
(5.76559 0.19694 0)
(6.38549 0.330435 0)
(5.27172 0.21724 0)
(5.92331 0.363096 0)
(4.74453 0.238736 0)
(5.42624 0.396976 0)
(4.18538 0.261025 0)
(4.89481 0.431225 0)
(3.59718 0.283473 0)
(4.33082 0.464594 0)
(2.98482 0.305178 0)
(3.73783 0.495385 0)
(2.35545 0.325036 0)
(3.12156 0.521459 0)
(1.71852 0.342505 0)
(2.49043 0.54049 0)
(1.08386 0.361829 0)
(1.8553 0.551593 0)
(0.451446 0.348542 0)
(1.24503 0.562932 0)
(-0.146005 0.10235 0)
(0.6085 0.544676 0)
(-0.423629 -0.207005 0)
(0.0945576 0.259223 0)
(-0.402115 -0.361103 0)
(-0.133852 -0.0205745 0)
(-0.119658 -0.393846 0)
(9.9964 0.0516835 0)
(9.99704 0.0405143 0)
(9.95876 0.0708803 0)
(9.97849 0.0674744 0)
(9.89818 0.0880135 0)
(9.93373 0.0899004 0)
(9.81649 0.106019 0)
(9.86445 0.113596 0)
(9.71344 0.124963 0)
(9.77426 0.138566 0)
(9.58888 0.144902 0)
(9.66418 0.164707 0)
(9.44248 0.166145 0)
(9.53374 0.192402 0)
(9.27357 0.189027 0)
(9.38221 0.222108 0)
(9.08126 0.213846 0)
(9.20883 0.254232 0)
(8.86442 0.240881 0)
(9.01273 0.289152 0)
(8.62175 0.270403 0)
(8.79281 0.327242 0)
(8.35177 0.302672 0)
(8.54778 0.368876 0)
(8.05287 0.337918 0)
(8.27619 0.414403 0)
(7.72338 0.376318 0)
(7.97647 0.464127 0)
(7.36158 0.41795 0)
(7.64696 0.51826 0)
(6.96589 0.462744 0)
(7.28602 0.576865 0)
(6.53497 0.51041 0)
(6.89212 0.639768 0)
(6.06796 0.560341 0)
(6.46396 0.706451 0)
(5.56472 0.611511 0)
(6.00073 0.77591 0)
(5.02625 0.662356 0)
(5.50241 0.8465 0)
(4.45507 0.710659 0)
(4.97006 0.915756 0)
(3.85574 0.75347 0)
(4.4064 0.980228 0)
(3.2355 0.787105 0)
(3.81631 1.03535 0)
(2.6052 0.80739 0)
(3.2078 1.07535 0)
(1.98228 0.810337 0)
(2.59282 1.09299 0)
(1.40488 0.77673 0)
(1.99573 1.07689 0)
(0.929381 0.646204 0)
(1.4191 0.978173 0)
(0.439531 0.384084 0)
(0.937284 0.716606 0)
(0.0590291 -0.118787 0)
(0.443506 0.343302 0)
(0.174845 -0.336031 0)
(9.98902 0.0594495 0)
(9.99481 0.045892 0)
(9.95431 0.0895081 0)
(9.97367 0.084884 0)
(9.89723 0.118076 0)
(9.9298 0.119219 0)
(9.82037 0.147956 0)
(9.8635 0.154037 0)
(9.72402 0.179492 0)
(9.77724 0.190484 0)
(9.60801 0.212857 0)
(9.6721 0.228727 0)
(9.47209 0.248484 0)
(9.54787 0.269233 0)
(9.31575 0.286874 0)
(9.40403 0.312611 0)
(9.13829 0.328504 0)
(9.23999 0.359449 0)
(8.93879 0.373832 0)
(9.05506 0.410304 0)
(8.71612 0.423317 0)
(8.8484 0.465731 0)
(8.469 0.477404 0)
(8.61895 0.526284 0)
(8.19601 0.536501 0)
(8.36552 0.592499 0)
(7.8956 0.600933 0)
(8.08683 0.664854 0)
(7.56615 0.670887 0)
(7.78145 0.74372 0)
(7.20603 0.746315 0)
(7.44794 0.829272 0)
(6.81373 0.826818 0)
(7.08486 0.921377 0)
(6.38803 0.911493 0)
(6.69086 1.01943 0)
(5.92819 0.998739 0)
(6.26487 1.12217 0)
(5.43431 1.08604 0)
(5.80628 1.22738 0)
(4.90775 1.16974 0)
(5.31526 1.33167 0)
(4.35168 1.24477 0)
(4.7932 1.43007 0)
(3.77191 1.3044 0)
(4.24326 1.51572 0)
(3.17812 1.33966 0)
(3.67117 1.57923 0)
(2.58611 1.33791 0)
(3.08576 1.60751 0)
(2.01944 1.27273 0)
(2.50245 1.58131 0)
(1.48659 1.09515 0)
(1.92835 1.46395 0)
(0.958064 0.768931 0)
(1.38496 1.2101 0)
(0.479721 0.202214 0)
(0.829361 0.800744 0)
(0.433609 0.133826 0)
(9.98514 0.0716398 0)
(9.99366 0.0531673 0)
(9.95036 0.113674 0)
(9.97086 0.102331 0)
(9.89431 0.154195 0)
(9.92686 0.148014 0)
(9.81872 0.195653 0)
(9.86178 0.193803 0)
(9.72427 0.238908 0)
(9.77734 0.241379 0)
(9.61092 0.284437 0)
(9.6745 0.291284 0)
(9.47848 0.332847 0)
(9.5532 0.344093 0)
(9.32662 0.384812 0)
(9.41306 0.400524 0)
(9.15484 0.440993 0)
(9.25364 0.461303 0)
(8.96245 0.502035 0)
(9.07441 0.527133 0)
(8.74863 0.56858 0)
(8.8747 0.598711 0)
(8.51244 0.641261 0)
(8.65373 0.676736 0)
(8.2528 0.720671 0)
(8.41059 0.761887 0)
(7.96854 0.807316 0)
(8.1443 0.85479 0)
(7.65841 0.901544 0)
(7.85379 0.955954 0)
(7.32112 1.00343 0)
(7.53795 1.06568 0)
(6.95538 1.11262 0)
(7.19563 1.18392 0)
(6.56 1.22815 0)
(6.82568 1.31012 0)
(6.13405 1.34814 0)
(6.42704 1.44291 0)
(5.67702 1.46953 0)
(5.99882 1.57985 0)
(5.18921 1.58765 0)
(5.54052 1.71698 0)
(4.67212 1.69586 0)
(5.05228 1.84838 0)
(4.12912 1.78494 0)
(4.53524 1.96562 0)
(3.56605 1.84227 0)
(3.99208 2.05704 0)
(2.99153 1.85043 0)
(3.42703 2.10683 0)
(2.41542 1.78216 0)
(2.84716 2.09413 0)
(1.84021 1.60011 0)
(2.25585 1.98835 0)
(1.25916 1.27809 0)
(1.66003 1.75264 0)
(0.666654 0.789213 0)
(1.0238 1.36736 0)
(0.522952 0.786772 0)
(9.98336 0.0844408 0)
(9.99316 0.0613156 0)
(9.94818 0.136894 0)
(9.96957 0.119977 0)
(9.89308 0.188112 0)
(9.9257 0.176316 0)
(9.81896 0.240271 0)
(9.86192 0.232799 0)
(9.72648 0.294592 0)
(9.77952 0.291214 0)
(9.6157 0.351804 0)
(9.67922 0.352424 0)
(9.48645 0.412632 0)
(9.56104 0.417148 0)
(9.33846 0.477853 0)
(9.42467 0.486198 0)
(9.17131 0.548238 0)
(9.26972 0.560408 0)
(8.98446 0.624548 0)
(9.09576 0.6406 0)
(8.77724 0.707538 0)
(8.90223 0.727585 0)
(8.54892 0.797954 0)
(8.68848 0.822172 0)
(8.29868 0.896504 0)
(8.45379 0.925148 0)
(8.02561 1.00381 0)
(8.19736 1.03725 0)
(7.72879 1.12034 0)
(7.91835 1.15908 0)
(7.40723 1.24627 0)
(7.61587 1.29106 0)
(7.05992 1.38133 0)
(7.289 1.43324 0)
(6.68583 1.5246 0)
(6.93675 1.58515 0)
(6.28399 1.67415 0)
(6.5581 1.7455 0)
(5.85354 1.8267 0)
(6.15199 1.91182 0)
(5.3939 1.9771 0)
(5.71737 2.08003 0)
(4.90499 2.11784 0)
(5.25327 2.24389 0)
(4.38756 2.23834 0)
(4.75899 2.39434 0)
(3.84333 2.32422 0)
(4.23428 2.51886 0)
(3.27491 2.35658 0)
(3.67931 2.60085 0)
(2.68497 2.31018 0)
(3.09524 2.61926 0)
(2.07236 2.15457 0)
(2.48131 2.54684 0)
(1.42915 1.86695 0)
(1.83964 2.35322 0)
(0.742496 1.41912 0)
(1.1312 2.02402 0)
(0.543226 1.514 0)
(9.98263 0.0975385 0)
(9.99299 0.0698219 0)
(9.94741 0.159844 0)
(9.96923 0.137643 0)
(9.89348 0.221445 0)
(9.92592 0.204017 0)
(9.82124 0.284217 0)
(9.86373 0.27081 0)
(9.73119 0.3495 0)
(9.78373 0.339734 0)
(9.62346 0.418195 0)
(9.68647 0.411877 0)
(9.49792 0.491136 0)
(9.57194 0.488109 0)
(9.35432 0.56919 0)
(9.43991 0.569332 0)
(9.19228 0.653233 0)
(9.29005 0.656479 0)
(9.01135 0.744134 0)
(9.12197 0.750471 0)
(8.81096 0.842755 0)
(8.93519 0.85222 0)
(8.59046 0.949942 0)
(8.72912 0.962627 0)
(8.34915 1.0665 0)
(8.50314 1.08257 0)
(8.0863 1.19316 0)
(8.25654 1.21288 0)
(7.80111 1.33047 0)
(7.98857 1.35425 0)
(7.49274 1.47873 0)
(7.69844 1.50719 0)
(7.1603 1.63777 0)
(7.38527 1.67188 0)
(6.80282 1.80677 0)
(7.0481 1.84798 0)
(6.41921 1.98393 0)
(6.68582 2.03435 0)
(6.00824 2.16603 0)
(6.29709 2.22876 0)
(5.56856 2.34792 0)
(5.88029 2.42732 0)
(5.09867 2.52195 0)
(5.43349 2.62402 0)
(4.59702 2.67724 0)
(4.95433 2.80997 0)
(4.06206 2.79909 0)
(4.44014 2.97282 0)
(3.49216 2.86865 0)
(3.88791 3.09615 0)
(2.88539 2.86241 0)
(3.29473 3.15937 0)
(2.23768 2.75339 0)
(2.6565 3.13733 0)
(1.54222 2.52048 0)
(1.97456 3.00259 0)
(0.793536 2.13078 0)
(1.20708 2.73999 0)
(0.556661 2.29122 0)
(9.98249 0.110675 0)
(9.99301 0.0783955 0)
(9.94767 0.182406 0)
(9.96952 0.155107 0)
(9.89516 0.253933 0)
(9.92718 0.230992 0)
(9.82514 0.326915 0)
(9.86689 0.307652 0)
(9.73798 0.402735 0)
(9.78965 0.3867 0)
(9.63382 0.482443 0)
(9.69587 0.469359 0)
(9.51258 0.566993 0)
(9.58555 0.556639 0)
(9.37404 0.657349 0)
(9.45849 0.649538 0)
(9.21786 0.754486 0)
(9.31442 0.749076 0)
(9.04364 0.859367 0)
(9.153 0.856265 0)
(8.85087 0.972947 0)
(8.9738 0.972111 0)
(8.63897 1.09616 0)
(8.77629 1.09761 0)
(8.4073 1.22991 0)
(8.55988 1.23372 0)
(8.15516 1.37499 0)
(8.32392 1.38135 0)
(7.88179 1.53207 0)
(8.06768 1.54133 0)
(7.58637 1.70154 0)
(7.79035 1.71425 0)
(7.26796 1.8834 0)
(7.49101 1.90045 0)
(6.92547 2.07701 0)
(7.16856 2.09978 0)
(6.55755 2.28081 0)
(6.82166 2.31139 0)
(6.16253 2.49193 0)
(6.4486 2.53341 0)
(5.73823 2.70562 0)
(6.04713 2.76247 0)
(5.28189 2.91469 0)
(5.61433 2.99319 0)
(4.79006 3.10876 0)
(5.1464 3.21747 0)
(4.25862 3.27373 0)
(4.63863 3.4238 0)
(3.68282 3.39131 0)
(4.08541 3.59659 0)
(3.05759 3.43908 0)
(3.48078 3.71591 0)
(2.3774 3.39115 0)
(2.81796 3.75744 0)
(1.63769 3.22551 0)
(2.09887 3.69327 0)
(0.839021 2.90018 0)
(1.27876 3.50375 0)
(0.57329 3.11299 0)
(9.98272 0.123638 0)
(9.99316 0.0868566 0)
(9.9487 0.204404 0)
(9.97025 0.172173 0)
(9.89788 0.285386 0)
(9.92922 0.257097 0)
(9.8304 0.368138 0)
(9.87115 0.343152 0)
(9.74655 0.454061 0)
(9.79703 0.431883 0)
(9.64647 0.544321 0)
(9.70717 0.524594 0)
(9.5301 0.639981 0)
(9.60156 0.622414 0)
(9.39727 0.742099 0)
(9.48007 0.726435 0)
(9.2477 0.851733 0)
(9.34247 0.837758 0)
(9.08102 0.969938 0)
(9.18846 0.957484 0)
(8.89677 1.09775 0)
(9.01768 1.0867 0)
(8.69443 1.23621 0)
(8.82965 1.2265 0)
(8.47337 1.38629 0)
(8.62382 1.37793 0)
(8.23294 1.54891 0)
(8.39955 1.54201 0)
(7.97233 1.72484 0)
(8.15613 1.71967 0)
(7.69066 1.91463 0)
(7.89268 1.91167 0)
(7.38686 2.11847 0)
(7.60819 2.11853 0)
(7.0596 2.33601 0)
(7.30137 2.34039 0)
(6.70718 2.56607 0)
(6.97058 2.57677 0)
(6.32735 2.80634 0)
(6.61365 2.82633 0)
(5.91713 3.05279 0)
(6.22767 3.08649 0)
(5.47254 3.29917 0)
(5.80875 3.35284 0)
(4.98848 3.53619 0)
(5.35173 3.61853 0)
(4.45861 3.75085 0)
(4.85006 3.87343 0)
(3.87561 3.92582 0)
(4.29572 4.10328 0)
(3.23185 4.03914 0)
(3.67998 4.28894 0)
(2.52048 4.06423 0)
(2.99309 4.40597 0)
(1.73815 3.97536 0)
(2.23709 4.42375 0)
(0.889365 3.71798 0)
(1.3632 4.31545 0)
(0.598689 3.98407 0)
(9.9832 0.136267 0)
(9.99339 0.0950847 0)
(9.95029 0.22568 0)
(9.97129 0.18868 0)
(9.90145 0.315649 0)
(9.93189 0.282187 0)
(9.83683 0.4077 0)
(9.87635 0.377146 0)
(9.75668 0.503251 0)
(9.80566 0.475073 0)
(9.66113 0.603555 0)
(9.72012 0.577326 0)
(9.55017 0.709773 0)
(9.6197 0.685131 0)
(9.42367 0.823045 0)
(9.50432 0.799668 0)
(9.2814 0.944512 0)
(9.37382 0.922115 0)
(9.12303 1.07531 0)
(9.22794 1.05365 0)
(8.94818 1.21658 0)
(9.06638 1.19545 0)
(8.75635 1.36942 0)
(8.88871 1.34869 0)
(8.54698 1.53495 0)
(8.69444 1.51452 0)
(8.31938 1.71417 0)
(8.48297 1.69408 0)
(8.07276 1.90803 0)
(8.25357 1.88844 0)
(7.80613 2.11725 0)
(8.00535 2.09855 0)
(7.51826 2.3423 0)
(7.73718 2.32518 0)
(7.20759 2.58321 0)
(7.4476 2.5688 0)
(6.872 2.83934 0)
(7.13469 2.82946 0)
(6.50868 3.1091 0)
(6.79585 3.10653 0)
(6.11382 3.38951 0)
(6.42753 3.39837 0)
(5.68232 3.6756 0)
(6.02495 3.70192 0)
(5.20747 3.95966 0)
(5.58166 4.01196 0)
(4.68086 4.23032 0)
(5.08931 4.32031 0)
(4.09253 4.47155 0)
(4.53739 4.6146 0)
(3.43191 4.6617 0)
(3.91397 4.87698 0)
(2.68969 4.77226 0)
(3.20513 5.08263 0)
(1.86156 4.77149 0)
(2.4109 5.19698 0)
(0.954043 4.58881 0)
(1.47607 5.18332 0)
(0.639113 4.91849 0)
(9.98385 0.148441 0)
(9.99368 0.102993 0)
(9.95232 0.246093 0)
(9.97259 0.204496 0)
(9.90572 0.344572 0)
(9.93505 0.306125 0)
(9.84426 0.445421 0)
(9.88233 0.409479 0)
(9.76817 0.550081 0)
(9.81539 0.516077 0)
(9.67758 0.659874 0)
(9.73452 0.627322 0)
(9.57252 0.776043 0)
(9.63973 0.744514 0)
(9.4529 0.899808 0)
(9.53096 0.868913 0)
(9.31856 1.03238 0)
(9.40811 1.00177 0)
(9.16924 1.17499 0)
(9.27101 1.14433 0)
(9.00459 1.32884 0)
(9.11939 1.29785 0)
(8.82419 1.49515 0)
(8.95291 1.4636 0)
(8.62752 1.67512 0)
(8.77114 1.64283 0)
(8.41393 1.86993 0)
(8.57353 1.8368 0)
(8.18261 2.08067 0)
(8.35939 2.04674 0)
(7.93253 2.30832 0)
(8.12781 2.27383 0)
(7.66233 2.55368 0)
(7.87765 2.51913 0)
(7.37025 2.81726 0)
(7.60732 2.78355 0)
(7.05384 3.09907 0)
(7.31471 3.06772 0)
(6.7098 3.39847 0)
(6.99691 3.37185 0)
(6.33361 3.71375 0)
(6.6499 3.69552 0)
(5.91912 4.04161 0)
(6.26815 4.03723 0)
(5.45812 4.37642 0)
(5.84412 4.39392 0)
(4.94003 4.7091 0)
(5.36771 4.75995 0)
(4.35183 5.02562 0)
(4.82576 5.12581 0)
(3.67887 5.30517 0)
(4.20232 5.47601 0)
(2.90698 5.51711 0)
(3.47725 5.78633 0)
(2.02733 5.62193 0)
(2.64459 6.01834 0)
(1.04495 5.52839 0)
(1.63749 6.12278 0)
(0.704388 5.94196 0)
(9.98464 0.160062 0)
(9.99402 0.110518 0)
(9.95469 0.265518 0)
(9.97407 0.219513 0)
(9.91058 0.372013 0)
(9.93863 0.328785 0)
(9.85256 0.481132 0)
(9.88896 0.440008 0)
(9.78084 0.594348 0)
(9.82605 0.554724 0)
(9.69558 0.713034 0)
(9.75019 0.674372 0)
(9.59686 0.838507 0)
(9.6614 0.800315 0)
(9.48464 0.972055 0)
(9.55969 0.93388 0)
(9.3588 1.11496 0)
(9.445 1.07638 0)
(9.21917 1.26852 0)
(9.31724 1.22913 0)
(9.06546 1.43402 0)
(9.17622 1.39345 0)
(8.89734 1.61278 0)
(9.02168 1.57069 0)
(8.71434 1.80612 0)
(8.85326 1.76222 0)
(8.51588 2.01534 0)
(8.67051 1.96941 0)
(8.30119 2.24176 0)
(8.4728 2.19367 0)
(8.06924 2.48662 0)
(8.25929 2.4364 0)
(7.81865 2.75112 0)
(8.02887 2.69902 0)
(7.54754 3.03629 0)
(7.77997 2.98287 0)
(7.2533 3.34295 0)
(7.51044 3.28928 0)
(6.93233 3.67152 0)
(7.21725 3.61939 0)
(6.5796 4.02181 0)
(6.89619 3.97412 0)
(6.18818 4.3926 0)
(6.54132 4.35388 0)
(5.74858 4.7809 0)
(6.14437 4.75814 0)
(5.24806 5.18083 0)
(5.69384 5.18469 0)
(4.67005 5.58176 0)
(5.174 5.62817 0)
(3.99421 5.96539 0)
(4.56422 6.0776 0)
(3.19793 6.30049 0)
(3.8357 6.51227 0)
(2.26149 6.53945 0)
(2.97044 6.89271 0)
(1.18049 6.56391 0)
(1.87897 7.15654 0)
(0.812763 7.09817 0)
(9.98552 0.171052 0)
(9.99439 0.117607 0)
(9.95735 0.283849 0)
(9.9757 0.233644 0)
(9.91594 0.397848 0)
(9.94254 0.350059 0)
(9.86158 0.514686 0)
(9.89615 0.468607 0)
(9.79452 0.63587 0)
(9.83751 0.59086 0)
(9.71494 0.762821 0)
(9.76693 0.718292 0)
(9.62294 0.896911 0)
(9.68448 0.852316 0)
(9.51855 1.03949 0)
(9.5902 0.994312 0)
(9.40172 1.1919 0)
(9.48412 1.14565 0)
(9.27235 1.3555 0)
(9.36619 1.30769 0)
(9.13025 1.53165 0)
(9.23634 1.48183 0)
(8.97516 1.72176 0)
(9.09439 1.66948 0)
(8.80672 1.92725 0)
(8.94009 1.87211 0)
(8.62443 2.1496 0)
(8.77309 2.09121 0)
(8.42763 2.3903 0)
(8.59289 2.32835 0)
(8.21537 2.6509 0)
(8.39879 2.58517 0)
(7.98635 2.93299 0)
(8.18979 2.86341 0)
(7.73876 3.2382 0)
(7.9645 3.16491 0)
(7.47001 3.56816 0)
(7.72091 3.49165 0)
(7.17648 3.92451 0)
(7.45616 3.84577 0)
(6.85304 4.30875 0)
(7.16622 4.2296 0)
(6.49244 4.72203 0)
(6.84527 4.6456 0)
(6.08439 5.16469 0)
(6.48497 5.09622 0)
(5.61448 5.63524 0)
(6.07331 5.58345 0)
(5.06262 6.12855 0)
(5.59284 6.1078 0)
(4.40149 6.63236 0)
(5.01867 6.66609 0)
(3.59567 7.11973 0)
(4.31193 7.24691 0)
(2.60411 7.53917 0)
(3.43537 7.81855 0)
(1.39426 7.73911 0)
(2.25643 8.31353 0)
(1.00268 8.46376 0)
(9.98649 0.181349 0)
(9.9948 0.124222 0)
(9.96023 0.300996 0)
(9.97745 0.246815 0)
(9.9217 0.421966 0)
(9.94671 0.369853 0)
(9.87122 0.545951 0)
(9.90379 0.495164 0)
(9.80906 0.67449 0)
(9.84963 0.624354 0)
(9.73544 0.809045 0)
(9.78458 0.758925 0)
(9.65049 0.951033 0)
(9.70875 0.90033 0)
(9.55431 1.10185 0)
(9.62222 1.04999 0)
(9.44692 1.2629 0)
(9.5251 1.20932 0)
(9.3283 1.43557 0)
(9.41743 1.37972 0)
(9.19837 1.62131 0)
(9.29921 1.56264 0)
(9.05696 1.82158 0)
(9.1704 1.75956 0)
(8.90384 2.03792 0)
(9.03085 1.972 0)
(8.73866 2.27194 0)
(8.88037 2.20158 0)
(8.56089 2.52533 0)
(8.71862 2.45 0)
(8.36977 2.7999 0)
(8.5451 2.71913 0)
(8.1642 3.09765 0)
(8.35906 3.01098 0)
(7.94259 3.42074 0)
(8.15937 3.32784 0)
(7.70268 3.77167 0)
(7.94442 3.6723 0)
(7.44116 4.15323 0)
(7.71184 4.04745 0)
(7.15332 4.5687 0)
(7.4582 4.45695 0)
(6.83228 5.02181 0)
(7.17848 4.90531 0)
(6.468 5.51668 0)
(6.86532 5.39804 0)
(6.04563 6.05748 0)
(6.50769 5.94187 0)
(5.54293 6.64724 0)
(6.08863 6.5447 0)
(4.92627 7.28529 0)
(5.58203 7.21499 0)
(4.14459 7.95963 0)
(4.94185 7.95955 0)
(3.12171 8.63187 0)
(4.10914 8.77363 0)
(1.7564 9.12645 0)
(2.87872 9.61919 0)
(1.36507 10.1841 0)
(9.98752 0.190904 0)
(9.99522 0.130332 0)
(9.96329 0.316886 0)
(9.9793 0.258971 0)
(9.92778 0.444276 0)
(9.9511 0.388092 0)
(9.88136 0.574817 0)
(9.91179 0.519588 0)
(9.82431 0.710081 0)
(9.86229 0.655095 0)
(9.75688 0.851558 0)
(9.80297 0.79614 0)
(9.67926 1.0007 0)
(9.73397 0.944204 0)
(9.5916 1.15895 0)
(9.65546 1.10074 0)
(9.494 1.32772 0)
(9.56759 1.26718 0)
(9.38653 1.50847 0)
(9.4705 1.44498 0)
(9.26921 1.70267 0)
(9.3643 1.63561 0)
(9.14202 1.91187 0)
(9.24904 1.84057 0)
(9.00486 2.13766 0)
(9.12476 2.06148 0)
(8.85756 2.38177 0)
(8.9914 2.3 0)
(8.69979 2.64606 0)
(8.84886 2.55797 0)
(8.53104 2.93257 0)
(8.69687 2.8374 0)
(8.35055 3.24362 0)
(8.53502 3.14055 0)
(8.15715 3.58189 0)
(8.36261 3.47003 0)
(7.94911 3.95056 0)
(8.17859 3.82896 0)
(7.72389 4.35351 0)
(7.98138 4.22114 0)
(7.47775 4.79559 0)
(7.76863 4.65137 0)
(7.20514 5.283 0)
(7.53684 5.12584 0)
(6.89771 5.82372 0)
(7.28083 5.65276 0)
(6.54251 6.42813 0)
(6.9926 6.24328 0)
(6.11883 7.10965 0)
(6.65949 6.91293 0)
(5.59196 7.88549 0)
(6.26097 7.68398 0)
(4.9004 8.77561 0)
(5.75666 8.59002 0)
(3.92706 9.79943 0)
(5.08729 9.68246 0)
(2.43385 10.8554 0)
(3.98047 11.0472 0)
(2.14733 12.5679 0)
(9.9886 0.199677 0)
(9.99567 0.135913 0)
(9.96649 0.331455 0)
(9.98122 0.270065 0)
(9.93413 0.464693 0)
(9.95565 0.404714 0)
(9.8919 0.601178 0)
(9.92007 0.541803 0)
(9.84013 0.742503 0)
(9.87538 0.682995 0)
(9.77907 0.890185 0)
(9.82195 0.829834 0)
(9.70899 1.0457 0)
(9.75999 0.983819 0)
(9.63008 1.2105 0)
(9.68972 1.14642 0)
(9.54254 1.38605 0)
(9.61137 1.31909 0)
(9.44653 1.57382 0)
(9.52518 1.50329 0)
(9.34218 1.7753 0)
(9.43134 1.70051 0)
(9.2296 1.99208 0)
(9.33007 1.91228 0)
(9.10889 2.22583 0)
(9.22152 2.14023 0)
(8.98004 2.47832 0)
(9.10588 2.3861 0)
(8.843 2.75154 0)
(8.98323 2.65176 0)
(8.69759 3.0477 0)
(8.85365 2.93932 0)
(8.54345 3.36935 0)
(8.71711 3.25119 0)
(8.38 3.71952 0)
(8.57343 3.59021 0)
(8.20627 4.10191 0)
(8.42231 3.95977 0)
(8.02083 4.52117 0)
(8.26315 4.36416 0)
(7.82149 4.98336 0)
(8.09507 4.80882 0)
(7.60498 5.49649 0)
(7.91673 5.30099 0)
(7.3663 6.07163 0)
(7.72615 5.85052 0)
(7.09757 6.72442 0)
(7.52051 6.47133 0)
(6.78568 7.47809 0)
(7.29561 7.18399 0)
(6.40716 8.36942 0)
(7.04607 8.02092 0)
(5.91507 9.46299 0)
(6.76182 9.03865 0)
(5.19688 10.9055 0)
(6.46218 10.353 0)
(3.88659 13.1782 0)
(6.19307 12.3002 0)
(5.26748 16.3745 0)
(0.284146 -0.186931 0)
(0.15963 -0.278303 0)
(0.546305 -0.158164 0)
(0.382582 -0.250704 0)
(0.771628 -0.129513 0)
(0.61014 -0.210388 0)
(0.964438 -0.106342 0)
(0.81365 -0.175779 0)
(1.13074 -0.0880659 0)
(0.987838 -0.148034 0)
(1.2754 -0.0735228 0)
(1.13795 -0.125719 0)
(1.40226 -0.0618524 0)
(1.26955 -0.107658 0)
(1.51447 -0.0524051 0)
(1.38642 -0.0929692 0)
(1.61445 -0.0446136 0)
(1.49108 -0.0808833 0)
(1.7039 -0.0379175 0)
(1.58538 -0.0706508 0)
(1.78352 -0.0317407 0)
(1.6706 -0.0614029 0)
(1.85279 -0.0256142 0)
(1.74715 -0.0521606 0)
(1.91029 -0.0194228 0)
(1.8143 -0.0422761 0)
(1.95492 -0.0135564 0)
(1.87051 -0.0320378 0)
(1.9875 -0.00861724 0)
(1.91474 -0.0228358 0)
(2.01005 -0.00467293 0)
(1.94828 -0.0154282 0)
(2.02244 -0.00133942 0)
(1.97362 -0.00827754 0)
(2.02335 0.00167652 0)
(1.99054 -0.000597962 0)
(2.01524 0.00451008 0)
(1.9981 0.00516515 0)
(2.00257 0.00713817 0)
(1.99641 0.00788069 0)
(1.98885 0.00916921 0)
(1.98897 0.00833399 0)
(1.97685 0.00967898 0)
(1.97795 0.00711111 0)
(1.97007 0.00769859 0)
(1.96446 0.00392533 0)
(1.97241 0.00269323 0)
(1.95028 -0.00131783 0)
(1.98614 -0.00467721 0)
(1.93832 -0.00757738 0)
(2.01379 -0.0132265 0)
(1.9321 -0.0149024 0)
(2.05586 -0.0220753 0)
(1.93417 -0.0221329 0)
(2.11222 -0.02997 0)
(1.9444 -0.0289502 0)
(2.18159 -0.0340543 0)
(1.96531 -0.0347968 0)
(2.01273 -0.0339972 0)
(0.235012 -0.391035 0)
(0.114533 -0.508483 0)
(0.46472 -0.344323 0)
(0.310061 -0.470375 0)
(0.666779 -0.289053 0)
(0.495936 -0.399054 0)
(0.842118 -0.242437 0)
(0.664228 -0.335631 0)
(0.995651 -0.205159 0)
(0.809317 -0.284698 0)
(1.1315 -0.17528 0)
(0.935434 -0.243785 0)
(1.25279 -0.151151 0)
(1.04664 -0.210581 0)
(1.36193 -0.1315 0)
(1.14565 -0.183401 0)
(1.46087 -0.115218 0)
(1.23428 -0.160922 0)
(1.55118 -0.101139 0)
(1.31391 -0.141981 0)
(1.63384 -0.0878865 0)
(1.38581 -0.125152 0)
(1.70873 -0.0741903 0)
(1.45082 -0.108557 0)
(1.77455 -0.0596862 0)
(1.50876 -0.0906634 0)
(1.82951 -0.0455393 0)
(1.55816 -0.0714953 0)
(1.87388 -0.0330031 0)
(1.59639 -0.0539299 0)
(1.91108 -0.0206094 0)
(1.62307 -0.0408856 0)
(1.94155 -0.00759876 0)
(1.64609 -0.0286405 0)
(1.96396 0.00257728 0)
(1.65987 -0.0152173 0)
(1.97694 0.0070137 0)
(1.6468 -0.00310432 0)
(1.98096 0.00647109 0)
(1.61315 0.00538093 0)
(1.97674 0.00314639 0)
(1.56659 0.0108993 0)
(1.96412 -0.00158856 0)
(1.5121 0.0145901 0)
(1.94312 -0.00716744 0)
(1.45226 0.0160848 0)
(1.91488 -0.0131389 0)
(1.38975 0.0146444 0)
(1.88334 -0.0183765 0)
(1.32956 0.00982742 0)
(1.85137 -0.0218538 0)
(1.27896 0.00232879 0)
(1.82135 -0.0245594 0)
(1.24774 -0.00633871 0)
(1.79662 -0.0276516 0)
(1.23259 -0.0162497 0)
(1.78579 -0.0302922 0)
(1.23737 -0.0293648 0)
(1.28231 -0.0490137 0)
(0.180011 -0.598597 0)
(0.076448 -0.684793 0)
(0.353273 -0.535616 0)
(0.225726 -0.636067 0)
(0.50472 -0.455261 0)
(0.350947 -0.540464 0)
(0.635896 -0.386074 0)
(0.466952 -0.455219 0)
(0.750222 -0.330086 0)
(0.564575 -0.386463 0)
(0.850522 -0.284698 0)
(0.648083 -0.330957 0)
(0.938996 -0.247555 0)
(0.719887 -0.285659 0)
(1.01722 -0.216877 0)
(0.781616 -0.248211 0)
(1.08642 -0.191305 0)
(0.834256 -0.216905 0)
(1.14788 -0.169443 0)
(0.878309 -0.190525 0)
(1.20282 -0.149238 0)
(0.914563 -0.167524 0)
(1.25153 -0.128163 0)
(0.944216 -0.145234 0)
(1.29289 -0.104547 0)
(0.96825 -0.121069 0)
(1.32368 -0.0812438 0)
(0.986958 -0.093603 0)
(1.3433 -0.0651993 0)
(0.998768 -0.0676764 0)
(1.35909 -0.0562424 0)
(0.974828 -0.0516949 0)
(1.36407 -0.044594 0)
(0.919519 -0.0319661 0)
(1.33995 -0.0255153 0)
(0.870732 0.000519695 0)
(1.28011 -0.00457743 0)
(0.812635 0.0350126 0)
(1.19697 0.0132696 0)
(0.736615 0.0570902 0)
(1.10054 0.0278157 0)
(0.652915 0.0694561 0)
(0.998347 0.0388456 0)
(0.567389 0.0751796 0)
(0.896855 0.0448842 0)
(0.484814 0.0748389 0)
(0.802255 0.0439717 0)
(0.41046 0.0681157 0)
(0.723956 0.0347513 0)
(0.349424 0.0530397 0)
(0.674188 0.0193591 0)
(0.307169 0.0291463 0)
(0.655293 0.00187962 0)
(0.29098 0.00360258 0)
(0.67088 -0.019228 0)
(0.305527 -0.0242568 0)
(0.720762 -0.0481905 0)
(0.342493 -0.0543838 0)
(0.420675 -0.0876548 0)
(0.123296 -0.738571 0)
(0.0412752 -0.805554 0)
(0.232061 -0.657688 0)
(0.134643 -0.740079 0)
(0.322905 -0.557286 0)
(0.190222 -0.625287 0)
(0.399744 -0.471658 0)
(0.246771 -0.52527 0)
(0.464393 -0.402149 0)
(0.287764 -0.44401 0)
(0.518323 -0.345476 0)
(0.318979 -0.377828 0)
(0.562806 -0.298708 0)
(0.341008 -0.323407 0)
(0.598537 -0.259541 0)
(0.354751 -0.277815 0)
(0.625737 -0.226416 0)
(0.360605 -0.238908 0)
(0.644808 -0.198239 0)
(0.357811 -0.205589 0)
(0.656895 -0.173463 0)
(0.344715 -0.176846 0)
(0.663386 -0.150178 0)
(0.320475 -0.150122 0)
(0.666016 -0.125598 0)
(0.286118 -0.123003 0)
(0.659484 -0.0955928 0)
(0.24027 -0.0889139 0)
(0.622985 -0.0585271 0)
(0.190003 -0.0420939 0)
(0.539555 -0.0194213 0)
(0.129463 0.00539918 0)
(0.431055 0.0199843 0)
(0.0409434 0.040531 0)
(0.338476 0.0578947 0)
(-0.0348754 0.0609179 0)
(0.262533 0.0857992 0)
(-0.0951286 0.0833875 0)
(0.189384 0.101203 0)
(-0.156809 0.102584 0)
(0.11776 0.107106 0)
(-0.214253 0.11295 0)
(0.0517251 0.105452 0)
(-0.265551 0.114332 0)
(-0.00458165 0.096132 0)
(-0.30804 0.107435 0)
(-0.0460038 0.0782261 0)
(-0.338706 0.0915289 0)
(-0.0708492 0.0512296 0)
(-0.356242 0.0667515 0)
(-0.0791749 0.0176917 0)
(-0.361365 0.0336326 0)
(-0.0639843 -0.0181353 0)
(-0.35656 -0.00438953 0)
(-0.0261876 -0.0559814 0)
(-0.328982 -0.0436729 0)
(0.0323564 -0.0936784 0)
(-0.29589 -0.0837474 0)
(-0.251967 -0.110685 0)
(0.0602802 -0.817381 0)
(0.00531932 -0.864595 0)
(0.0988183 -0.717835 0)
(0.0349046 -0.776933 0)
(0.123331 -0.602575 0)
(0.0166677 -0.648174 0)
(0.138931 -0.505862 0)
(0.00829009 -0.539492 0)
(0.145529 -0.426735 0)
(-0.0136143 -0.449882 0)
(0.143872 -0.361816 0)
(-0.0419866 -0.376388 0)
(0.134569 -0.307876 0)
(-0.0775884 -0.315512 0)
(0.117873 -0.262018 0)
(-0.119901 -0.263982 0)
(0.0931723 -0.221856 0)
(-0.168547 -0.218926 0)
(0.0582266 -0.185374 0)
(-0.223843 -0.177986 0)
(0.00969375 -0.150327 0)
(-0.286903 -0.139417 0)
(-0.0539689 -0.113708 0)
(-0.358295 -0.102184 0)
(-0.13519 -0.0716503 0)
(-0.436312 -0.0632884 0)
(-0.22788 -0.0232847 0)
(-0.520238 -0.0223766 0)
(-0.310078 0.0225781 0)
(-0.596502 0.0155177 0)
(-0.369925 0.0548494 0)
(-0.650863 0.0463548 0)
(-0.418819 0.0755568 0)
(-0.700251 0.0732013 0)
(-0.472369 0.0944179 0)
(-0.747108 0.0958537 0)
(-0.522109 0.11299 0)
(-0.788734 0.115071 0)
(-0.56481 0.125481 0)
(-0.825259 0.129142 0)
(-0.600376 0.128414 0)
(-0.854501 0.134548 0)
(-0.627755 0.121865 0)
(-0.876036 0.130566 0)
(-0.645207 0.106204 0)
(-0.889218 0.117538 0)
(-0.65261 0.0817274 0)
(-0.893937 0.0957134 0)
(-0.650906 0.0492231 0)
(-0.890907 0.0658113 0)
(-0.641753 0.0105824 0)
(-0.882414 0.0287006 0)
(-0.62475 -0.0314181 0)
(-0.871382 -0.0133353 0)
(-0.600893 -0.0724858 0)
(-0.851692 -0.0559284 0)
(-0.577902 -0.105095 0)
(-0.835929 -0.095279 0)
(-0.827658 -0.123104 0)
(-0.0112036 -0.826637 0)
(-0.0347308 -0.853622 0)
(-0.0443699 -0.708381 0)
(-0.073873 -0.745216 0)
(-0.0887685 -0.582933 0)
(-0.164315 -0.606719 0)
(-0.139536 -0.479261 0)
(-0.240631 -0.493209 0)
(-0.196827 -0.393658 0)
(-0.325344 -0.398886 0)
(-0.260233 -0.322912 0)
(-0.412169 -0.321281 0)
(-0.329536 -0.263429 0)
(-0.501181 -0.256703 0)
(-0.404398 -0.212005 0)
(-0.591487 -0.201956 0)
(-0.484218 -0.166019 0)
(-0.682253 -0.154354 0)
(-0.567733 -0.12363 0)
(-0.772565 -0.112021 0)
(-0.653168 -0.0840313 0)
(-0.86106 -0.073528 0)
(-0.738565 -0.0468884 0)
(-0.946333 -0.0378803 0)
(-0.819117 -0.0123696 0)
(-1.02389 -0.00406577 0)
(-0.885257 0.0188894 0)
(-1.09121 0.0251018 0)
(-0.938025 0.0482203 0)
(-1.14489 0.052503 0)
(-0.985242 0.0765408 0)
(-1.19204 0.0786669 0)
(-1.02762 0.100839 0)
(-1.23366 0.101516 0)
(-1.0651 0.119625 0)
(-1.26924 0.120309 0)
(-1.09588 0.133346 0)
(-1.29758 0.134679 0)
(-1.11827 0.140082 0)
(-1.31813 0.143064 0)
(-1.13276 0.137959 0)
(-1.33086 0.143348 0)
(-1.13996 0.126723 0)
(-1.3365 0.134833 0)
(-1.14031 0.106784 0)
(-1.33585 0.117744 0)
(-1.13488 0.0788123 0)
(-1.32996 0.0926401 0)
(-1.12509 0.043771 0)
(-1.32025 0.0604119 0)
(-1.11277 0.00328987 0)
(-1.30887 0.0220594 0)
(-1.0997 -0.0395472 0)
(-1.29792 -0.0202113 0)
(-1.08692 -0.0805322 0)
(-1.28648 -0.0624931 0)
(-1.07581 -0.113683 0)
(-1.28097 -0.100849 0)
(-1.28108 -0.128627 0)
(-0.0834654 -0.762373 0)
(-0.0802906 -0.771872 0)
(-0.192189 -0.630746 0)
(-0.186918 -0.641243 0)
(-0.305404 -0.502768 0)
(-0.345259 -0.501008 0)
(-0.420834 -0.398359 0)
(-0.485028 -0.387975 0)
(-0.536075 -0.312818 0)
(-0.623238 -0.296306 0)
(-0.649822 -0.242657 0)
(-0.755314 -0.222422 0)
(-0.760699 -0.184377 0)
(-0.880303 -0.162614 0)
(-0.867447 -0.134977 0)
(-0.997266 -0.113511 0)
(-0.969155 -0.092209 0)
(-1.10583 -0.0720751 0)
(-1.06459 -0.0546971 0)
(-1.20415 -0.0366424 0)
(-1.15241 -0.0215484 0)
(-1.29217 -0.00580074 0)
(-1.22961 0.00786633 0)
(-1.37009 0.0202556 0)
(-1.29413 0.0344961 0)
(-1.43782 0.0433662 0)
(-1.35005 0.0595059 0)
(-1.49573 0.0652452 0)
(-1.39922 0.0832323 0)
(-1.54696 0.0869706 0)
(-1.44103 0.104904 0)
(-1.59045 0.107274 0)
(-1.47563 0.123168 0)
(-1.62613 0.124637 0)
(-1.50288 0.136976 0)
(-1.65392 0.138085 0)
(-1.52206 0.14535 0)
(-1.67351 0.146895 0)
(-1.53293 0.146843 0)
(-1.68499 0.149827 0)
(-1.53653 0.1403 0)
(-1.6891 0.145533 0)
(-1.53421 0.125508 0)
(-1.68717 0.133462 0)
(-1.52733 0.102873 0)
(-1.68067 0.113761 0)
(-1.51733 0.0731516 0)
(-1.67109 0.0869846 0)
(-1.50571 0.0373951 0)
(-1.66004 0.0540017 0)
(-1.49429 -0.00278342 0)
(-1.64943 0.0159045 0)
(-1.48506 -0.0445656 0)
(-1.64094 -0.0250678 0)
(-1.4788 -0.0842601 0)
(-1.63575 -0.0657108 0)
(-1.47546 -0.116464 0)
(-1.63667 -0.10252 0)
(-1.64023 -0.128858 0)
(-0.15817 -0.628838 0)
(-0.131629 -0.616955 0)
(-0.337098 -0.490877 0)
(-0.300429 -0.470133 0)
(-0.513176 -0.367944 0)
(-0.520133 -0.3366 0)
(-0.681042 -0.271271 0)
(-0.712372 -0.234937 0)
(-0.837946 -0.194964 0)
(-0.88971 -0.15664 0)
(-0.982801 -0.134189 0)
(-1.04899 -0.096528 0)
(-1.11489 -0.0851917 0)
(-1.18931 -0.0505254 0)
(-1.23415 -0.0453296 0)
(-1.31269 -0.0146989 0)
(-1.33948 -0.0129041 0)
(-1.42092 0.0131366 0)
(-1.4306 0.0137021 0)
(-1.51553 0.0353271 0)
(-1.50858 0.036399 0)
(-1.59834 0.0543373 0)
(-1.57688 0.056848 0)
(-1.67049 0.0716849 0)
(-1.63803 0.0762754 0)
(-1.73502 0.0883233 0)
(-1.69223 0.0950962 0)
(-1.79177 0.104154 0)
(-1.73833 0.112862 0)
(-1.84036 0.119282 0)
(-1.77581 0.128442 0)
(-1.88027 0.132923 0)
(-1.80479 0.140757 0)
(-1.91146 0.144002 0)
(-1.82549 0.148915 0)
(-1.93412 0.151589 0)
(-1.83799 0.151961 0)
(-1.9485 0.154857 0)
(-1.84282 0.148812 0)
(-1.95517 0.152832 0)
(-1.84131 0.138684 0)
(-1.95528 0.144613 0)
(-1.83512 0.121404 0)
(-1.95041 0.129793 0)
(-1.82594 0.0972902 0)
(-1.94227 0.10845 0)
(-1.81537 0.06702 0)
(-1.93254 0.0810093 0)
(-1.80491 0.0316296 0)
(-1.92287 0.0482262 0)
(-1.79628 -0.00726624 0)
(-1.91496 0.0112573 0)
(-1.79117 -0.0471595 0)
(-1.91028 -0.0277566 0)
(-1.79023 -0.0848556 0)
(-1.9108 -0.0661941 0)
(-1.79348 -0.115181 0)
(-1.91694 -0.10089 0)
(-1.92275 -0.124837 0)
(-0.234515 -0.434345 0)
(-0.194077 -0.387261 0)
(-0.47816 -0.301457 0)
(-0.424512 -0.237134 0)
(-0.707527 -0.194495 0)
(-0.69024 -0.122436 0)
(-0.914618 -0.113208 0)
(-0.912497 -0.0461397 0)
(-1.09664 -0.0523647 0)
(-1.10535 0.00538486 0)
(-1.25272 -0.00885941 0)
(-1.27056 0.0391238 0)
(-1.3854 0.021799 0)
(-1.41194 0.0620647 0)
(-1.49835 0.0443388 0)
(-1.53349 0.0788804 0)
(-1.59595 0.0620579 0)
(-1.63833 0.0920951 0)