/*--------------------------------*- C++ -*----------------------------------*\
  =========                 |
  \\      /  F ield         | OpenFOAM: The Open Source CFD Toolbox
   \\    /   O peration     | Website:  https://openfoam.org
    \\  /    A nd           | Version:  7
     \\/     M anipulation  |
\*---------------------------------------------------------------------------*/
FoamFile
{
    version     2.0;
    format      ascii;
    class       surfaceScalarField;
    location    "2";
    object      phi;
}
// * * * * * * * * * * * * * * * * * * * * * * * * * * * * * * * * * * * * * //

dimensions      [1 0 -1 0 0 0 0];

internalField   nonuniform List<scalar> 
23692
(
1.17317e-05
-9.68879e-08
1.19097e-05
-1.7792e-07
1.2162e-05
-2.52143e-07
1.24813e-05
-3.19159e-07
1.28617e-05
-3.80234e-07
1.32979e-05
-4.35911e-07
1.37845e-05
-4.86407e-07
1.43166e-05
-5.31879e-07
1.48894e-05
-5.7247e-07
1.5498e-05
-6.08353e-07
1.6138e-05
-6.39751e-07
1.68051e-05
-6.66939e-07
1.74956e-05
-6.90237e-07
1.82057e-05
-7.09993e-07
1.89324e-05
-7.26571e-07
1.96727e-05
-7.40338e-07
2.04243e-05
-7.51648e-07
2.11851e-05
-7.60835e-07
2.19531e-05
-7.68203e-07
2.27268e-05
-7.74025e-07
2.35049e-05
-7.78538e-07
2.42863e-05
-7.81943e-07
2.507e-05
-7.84408e-07
2.58553e-05
-7.86068e-07
2.66414e-05
-7.87027e-07
2.74277e-05
-7.87365e-07
2.82136e-05
-7.87141e-07
2.89986e-05
-7.86393e-07
2.97822e-05
-7.85144e-07
3.05638e-05
-7.83405e-07
3.13431e-05
-7.81178e-07
3.21195e-05
-7.78456e-07
3.28925e-05
-7.75228e-07
3.36615e-05
-7.71479e-07
3.44261e-05
-7.67189e-07
3.51856e-05
-7.62341e-07
3.59395e-05
-7.56912e-07
3.66872e-05
-7.50883e-07
3.74281e-05
-7.44232e-07
3.81614e-05
-7.36939e-07
3.88867e-05
-7.28983e-07
3.96031e-05
-7.20343e-07
4.031e-05
-7.10998e-07
4.10066e-05
-7.00928e-07
4.16923e-05
-6.90111e-07
4.23661e-05
-6.78523e-07
4.30274e-05
-6.6614e-07
4.36754e-05
-6.52936e-07
4.43091e-05
-6.38881e-07
4.49278e-05
-6.23944e-07
4.55304e-05
-6.08088e-07
4.61161e-05
-5.91273e-07
4.66838e-05
-5.73454e-07
4.72325e-05
-5.54578e-07
4.7761e-05
-5.34584e-07
4.82683e-05
-5.13406e-07
4.8753e-05
-4.90961e-07
4.92138e-05
-4.67159e-07
4.96493e-05
-4.41889e-07
5.00578e-05
-4.15026e-07
5.04376e-05
-3.86415e-07
5.07868e-05
-3.55877e-07
5.11032e-05
-3.2319e-07
5.13845e-05
-2.88087e-07
5.16279e-05
-2.50235e-07
5.18303e-05
-2.09217e-07
5.19879e-05
-1.64505e-07
5.20965e-05
-1.15416e-07
5.21507e-05
-6.10606e-08
5.21442e-05
-3.15112e-10
5.20686e-05
6.87553e-08
5.19133e-05
1.48635e-07
5.16634e-05
2.43229e-07
5.12984e-05
3.58465e-07
5.0788e-05
5.03909e-07
5.0086e-05
6.95684e-07
4.91176e-05
9.62261e-07
4.77547e-05
1.3568e-06
4.57599e-05
1.989e-06
4.26254e-05
3.12886e-06
5.87871e-06
3.67414e-05
1.25508e-05
-1.98041e-07
1.27402e-05
-3.67301e-07
1.30094e-05
-5.21183e-07
1.33503e-05
-6.5989e-07
1.37566e-05
-7.86337e-07
1.42225e-05
-9.01596e-07
1.47425e-05
-1.00611e-06
1.53111e-05
-1.10022e-06
1.59231e-05
-1.18421e-06
1.65735e-05
-1.25845e-06
1.72574e-05
-1.32341e-06
1.79703e-05
-1.37964e-06
1.87081e-05
-1.42782e-06
1.94669e-05
-1.46866e-06
2.02434e-05
-1.50292e-06
2.10344e-05
-1.53136e-06
2.18375e-05
-1.55471e-06
2.26502e-05
-1.57366e-06
2.34706e-05
-1.58885e-06
2.42971e-05
-1.60084e-06
2.51282e-05
-1.61012e-06
2.59628e-05
-1.6171e-06
2.67998e-05
-1.62214e-06
2.76384e-05
-1.6255e-06
2.84778e-05
-1.62742e-06
2.93173e-05
-1.62805e-06
3.01564e-05
-1.62751e-06
3.09944e-05
-1.62589e-06
3.18308e-05
-1.62323e-06
3.26651e-05
-1.61955e-06
3.34967e-05
-1.61486e-06
3.43252e-05
-1.60914e-06
3.51499e-05
-1.60237e-06
3.59703e-05
-1.59451e-06
3.67858e-05
-1.58554e-06
3.75959e-05
-1.5754e-06
3.83998e-05
-1.56406e-06
3.9197e-05
-1.55147e-06
3.99868e-05
-1.53759e-06
4.07684e-05
-1.52237e-06
4.15412e-05
-1.50578e-06
4.23044e-05
-1.48776e-06
4.30573e-05
-1.46828e-06
4.3799e-05
-1.44729e-06
4.45289e-05
-1.42475e-06
4.5246e-05
-1.40061e-06
4.59495e-05
-1.37482e-06
4.66386e-05
-1.34732e-06
4.73123e-05
-1.31806e-06
4.79696e-05
-1.28697e-06
4.86096e-05
-1.25397e-06
4.92313e-05
-1.21898e-06
4.98336e-05
-1.18191e-06
5.04154e-05
-1.14266e-06
5.09755e-05
-1.10109e-06
5.15126e-05
-1.05708e-06
5.20254e-05
-1.01046e-06
5.25125e-05
-9.61035e-07
5.29723e-05
-9.08596e-07
5.34032e-05
-8.52883e-07
5.38033e-05
-7.93592e-07
5.41706e-05
-7.30358e-07
5.45029e-05
-6.62743e-07
5.47978e-05
-5.90214e-07
5.50524e-05
-5.12112e-07
5.52634e-05
-4.27619e-07
5.54273e-05
-3.35696e-07
5.55395e-05
-2.35015e-07
5.5595e-05
-1.2385e-07
5.55874e-05
2.29775e-11
5.55087e-05
1.40111e-07
5.53493e-05
3.00887e-07
5.50962e-05
4.89194e-07
5.47326e-05
7.15052e-07
5.42358e-05
9.9376e-07
5.35754e-05
1.34935e-06
5.27105e-05
1.82047e-06
5.15904e-05
2.47046e-06
5.01659e-05
3.40733e-06
4.84722e-05
4.81644e-06
6.91918e-06
4.7426e-05
1.34262e-05
-3.02928e-07
1.36271e-05
-5.68031e-07
1.39131e-05
-8.07105e-07
1.42761e-05
-1.0227e-06
1.47091e-05
-1.21916e-06
1.5206e-05
-1.39818e-06
1.57606e-05
-1.56048e-06
1.63673e-05
-1.70658e-06
1.70203e-05
-1.83695e-06
1.77143e-05
-1.95216e-06
1.84441e-05
-2.05293e-06
1.92049e-05
-2.14014e-06
1.99921e-05
-2.21484e-06
2.08017e-05
-2.27813e-06
2.16301e-05
-2.3312e-06
2.2474e-05
-2.37522e-06
2.33306e-05
-2.41133e-06
2.41974e-05
-2.44062e-06
2.50724e-05
-2.46405e-06
2.59537e-05
-2.48251e-06
2.68399e-05
-2.49676e-06
2.77296e-05
-2.50745e-06
2.86218e-05
-2.5151e-06
2.95156e-05
-2.52016e-06
3.041e-05
-2.52296e-06
3.13045e-05
-2.52377e-06
3.21983e-05
-2.52275e-06
3.30909e-05
-2.52005e-06
3.39816e-05
-2.51572e-06
3.48699e-05
-2.50981e-06
3.57552e-05
-2.50232e-06
3.66369e-05
-2.49323e-06
3.75144e-05
-2.4825e-06
3.83872e-05
-2.47007e-06
3.92546e-05
-2.4559e-06
4.01159e-05
-2.43991e-06
4.09704e-05
-2.42205e-06
4.18175e-05
-2.40223e-06
4.26565e-05
-2.3804e-06
4.34865e-05
-2.35648e-06
4.43069e-05
-2.33042e-06
4.51168e-05
-2.30213e-06
4.59153e-05
-2.27156e-06
4.67018e-05
-2.23864e-06
4.74752e-05
-2.20329e-06
4.82347e-05
-2.16544e-06
4.89794e-05
-2.12502e-06
4.97083e-05
-2.08194e-06
5.04204e-05
-2.03612e-06
5.11148e-05
-1.98744e-06
5.17904e-05
-1.93579e-06
5.24461e-05
-1.88106e-06
5.30807e-05
-1.8231e-06
5.3693e-05
-1.76175e-06
5.42819e-05
-1.69683e-06
5.48459e-05
-1.62812e-06
5.53836e-05
-1.55538e-06
5.58937e-05
-1.47834e-06
5.63744e-05
-1.39667e-06
5.6824e-05
-1.30999e-06
5.72407e-05
-1.21785e-06
5.76224e-05
-1.11972e-06
5.79669e-05
-1.01495e-06
5.82717e-05
-9.0278e-07
5.8534e-05
-7.82257e-07
5.87507e-05
-6.52212e-07
5.89183e-05
-5.1118e-07
5.90328e-05
-3.57302e-07
5.90892e-05
-1.88176e-07
5.90823e-05
-8.72334e-10
5.90053e-05
2.09322e-07
5.88508e-05
4.47687e-07
5.86099e-05
7.22455e-07
5.82726e-05
1.04482e-06
5.78284e-05
1.43061e-06
5.72682e-05
1.90223e-06
5.65904e-05
2.4912e-06
5.58133e-05
3.24066e-06
5.5008e-05
4.20581e-06
5.43783e-05
5.43963e-06
6.91174e-06
5.43795e-05
1.43626e-05
-4.11389e-07
1.45744e-05
-7.79778e-07
1.48774e-05
-1.10997e-06
1.52629e-05
-1.40802e-06
1.57235e-05
-1.67948e-06
1.62523e-05
-1.92673e-06
1.68429e-05
-2.15082e-06
1.74891e-05
-2.35248e-06
1.81849e-05
-2.53238e-06
1.89243e-05
-2.6913e-06
1.97019e-05
-2.83025e-06
2.05125e-05
-2.95046e-06
2.13513e-05
-3.05336e-06
2.22139e-05
-3.14051e-06
2.30963e-05
-3.21353e-06
2.39952e-05
-3.27405e-06
2.49075e-05
-3.32364e-06
2.58305e-05
-3.36379e-06
2.67621e-05
-3.39586e-06
2.77002e-05
-3.42106e-06
2.86434e-05
-3.44044e-06
2.95902e-05
-3.45489e-06
3.05394e-05
-3.46515e-06
3.14901e-05
-3.47182e-06
3.24414e-05
-3.47537e-06
3.33924e-05
-3.47616e-06
3.43426e-05
-3.47442e-06
3.52912e-05
-3.47034e-06
3.62376e-05
-3.46402e-06
3.71811e-05
-3.4555e-06
3.81213e-05
-3.44479e-06
3.90574e-05
-3.43185e-06
3.99887e-05
-3.41664e-06
4.09148e-05
-3.39908e-06
4.18347e-05
-3.37909e-06
4.2748e-05
-3.35658e-06
4.36537e-05
-3.33146e-06
4.45512e-05
-3.30363e-06
4.54397e-05
-3.273e-06
4.63183e-05
-3.23947e-06
4.71862e-05
-3.20296e-06
4.80427e-05
-3.16336e-06
4.88866e-05
-3.12059e-06
4.97173e-05
-3.07456e-06
5.05337e-05
-3.02516e-06
5.13349e-05
-2.9723e-06
5.21198e-05
-2.91587e-06
5.28875e-05
-2.85576e-06
5.36369e-05
-2.79184e-06
5.43669e-05
-2.72397e-06
5.50765e-05
-2.65202e-06
5.57644e-05
-2.57581e-06
5.64294e-05
-2.49515e-06
5.70702e-05
-2.40984e-06
5.76856e-05
-2.31962e-06
5.82742e-05
-2.22423e-06
5.88345e-05
-2.12335e-06
5.9365e-05
-2.01661e-06
5.9864e-05
-1.9036e-06
6.03299e-05
-1.78383e-06
6.07606e-05
-1.65672e-06
6.11543e-05
-1.52161e-06
6.15088e-05
-1.37768e-06
6.18216e-05
-1.22397e-06
6.20903e-05
-1.05933e-06
6.23121e-05
-8.82338e-07
6.24837e-05
-6.91236e-07
6.26018e-05
-4.83846e-07
6.26627e-05
-2.5742e-07
6.2662e-05
-8.57305e-09
6.25956e-05
2.67362e-07
6.24592e-05
5.75816e-07
6.22491e-05
9.2445e-07
6.19628e-05
1.32302e-06
6.16015e-05
1.78394e-06
6.11733e-05
2.32263e-06
6.06997e-05
2.95716e-06
6.02266e-05
3.70635e-06
5.98408e-05
4.58427e-06
5.96873e-05
5.58608e-06
6.65211e-06
5.99402e-05
1.53641e-05
-5.23414e-07
1.55868e-05
-1.00234e-06
1.59068e-05
-1.42987e-06
1.63152e-05
-1.81623e-06
1.6804e-05
-2.16799e-06
1.73658e-05
-2.48825e-06
1.79937e-05
-2.77839e-06
1.86809e-05
-3.0394e-06
1.94211e-05
-3.27215e-06
2.02078e-05
-3.47767e-06
2.10351e-05
-3.65728e-06
2.18975e-05
-3.81259e-06
2.27899e-05
-3.94545e-06
2.37075e-05
-4.05789e-06
2.46461e-05
-4.15201e-06
2.5602e-05
-4.22993e-06
2.6572e-05
-4.2937e-06
2.75533e-05
-4.34523e-06
2.85435e-05
-4.38629e-06
2.95405e-05
-4.41845e-06
3.05425e-05
-4.44305e-06
3.15482e-05
-4.46128e-06
3.25563e-05
-4.47407e-06
3.35657e-05
-4.48221e-06
3.45754e-05
-4.4863e-06
3.55846e-05
-4.4868e-06
3.65926e-05
-4.48403e-06
3.75986e-05
-4.47821e-06
3.8602e-05
-4.46947e-06
3.96022e-05
-4.45787e-06
4.05983e-05
-4.44342e-06
4.15898e-05
-4.42608e-06
4.2576e-05
-4.40577e-06
4.35561e-05
-4.3824e-06
4.45295e-05
-4.35587e-06
4.54952e-05
-4.32605e-06
4.64527e-05
-4.29283e-06
4.7401e-05
-4.25608e-06
4.83392e-05
-4.21568e-06
4.92666e-05
-4.17151e-06
5.01822e-05
-4.12345e-06
5.10851e-05
-4.07138e-06
5.19743e-05
-4.01518e-06
5.28488e-05
-3.95472e-06
5.37077e-05
-3.88989e-06
5.45498e-05
-3.82056e-06
5.53742e-05
-3.7466e-06
5.61798e-05
-3.66785e-06
5.69654e-05
-3.58418e-06
5.77299e-05
-3.4954e-06
5.8472e-05
-3.40134e-06
5.91906e-05
-3.30179e-06
5.98845e-05
-3.19652e-06
6.05522e-05
-3.08528e-06
6.11924e-05
-2.96776e-06
6.18038e-05
-2.84364e-06
6.23848e-05
-2.71254e-06
6.29339e-05
-2.57404e-06
6.34494e-05
-2.42764e-06
6.39298e-05
-2.27276e-06
6.43731e-05
-2.10874e-06
6.47776e-05
-1.93482e-06
6.51411e-05
-1.75009e-06
6.54617e-05
-1.55347e-06
6.57371e-05
-1.34368e-06
6.59649e-05
-1.11921e-06
6.61429e-05
-8.78202e-07
6.62684e-05
-6.18426e-07
6.63392e-05
-3.37152e-07
6.63527e-05
-3.10958e-08
6.63075e-05
3.03668e-07
6.62027e-05
6.71722e-07
6.60395e-05
1.07888e-06
6.5822e-05
1.53191e-06
6.55591e-05
2.03827e-06
6.52678e-05
2.60556e-06
6.49766e-05
3.24012e-06
6.47305e-05
3.94446e-06
6.45941e-05
4.71283e-06
6.46487e-05
5.52388e-06
6.32814e-06
6.49652e-05
1.64356e-05
-6.39129e-07
1.6669e-05
-1.23565e-06
1.70063e-05
-1.76692e-06
1.74379e-05
-2.2477e-06
1.79556e-05
-2.68539e-06
1.85514e-05
-3.08371e-06
1.92178e-05
-3.44443e-06
1.99475e-05
-3.76879e-06
2.07336e-05
-4.05789e-06
2.15694e-05
-4.31304e-06
2.24483e-05
-4.5359e-06
2.33645e-05
-4.72849e-06
2.43125e-05
-4.89311e-06
2.52871e-05
-5.0323e-06
2.62839e-05
-5.1487e-06
2.7299e-05
-5.24493e-06
2.83288e-05
-5.32354e-06
2.93703e-05
-5.38693e-06
3.04211e-05
-5.43729e-06
3.14788e-05
-5.47657e-06
3.25416e-05
-5.50646e-06
3.3608e-05
-5.52841e-06
3.46766e-05
-5.5436e-06
3.57463e-05
-5.55299e-06
3.6816e-05
-5.55734e-06
3.78849e-05
-5.5572e-06
3.89522e-05
-5.553e-06
4.0017e-05
-5.54499e-06
4.10787e-05
-5.53334e-06
4.21365e-05
-5.51811e-06
4.31898e-05
-5.49932e-06
4.42377e-05
-5.47692e-06
4.52796e-05
-5.4508e-06
4.63146e-05
-5.42086e-06
4.7342e-05
-5.38695e-06
4.8361e-05
-5.34895e-06
4.93706e-05
-5.30668e-06
5.03701e-05
-5.26e-06
5.13584e-05
-5.20875e-06
5.23347e-05
-5.15279e-06
5.3298e-05
-5.09196e-06
5.42472e-05
-5.02612e-06
5.51814e-05
-4.95512e-06
5.60995e-05
-4.87881e-06
5.70003e-05
-4.79704e-06
5.78829e-05
-4.70967e-06
5.87461e-05
-4.61652e-06
5.95887e-05
-4.51744e-06
6.04095e-05
-4.41223e-06
6.12073e-05
-4.30071e-06
6.1981e-05
-4.18265e-06
6.27291e-05
-4.05782e-06
6.34505e-05
-3.92595e-06
6.41437e-05
-3.78675e-06
6.48074e-05
-3.6399e-06
6.54401e-05
-3.48501e-06
6.60405e-05
-3.32168e-06
6.66069e-05
-3.14942e-06
6.71379e-05
-2.9677e-06
6.76318e-05
-2.7759e-06
6.80871e-05
-2.57332e-06
6.8502e-05
-2.35915e-06
6.88749e-05
-2.13246e-06
6.92041e-05
-1.89215e-06
6.94877e-05
-1.63697e-06
6.97243e-05
-1.36545e-06
6.99123e-05
-1.07587e-06
7.00505e-05
-7.66208e-07
7.01378e-05
-4.34123e-07
7.0174e-05
-7.69329e-08
7.01599e-05
3.08153e-07
7.0098e-05
7.24139e-07
6.9993e-05
1.17448e-06
6.9853e-05
1.6626e-06
6.96908e-05
2.19132e-06
6.95252e-05
2.76209e-06
6.93828e-05
3.37374e-06
6.92979e-05
4.0207e-06
6.93116e-05
4.69067e-06
6.94652e-05
5.36196e-06
6.00099e-06
6.97844e-05
1.75821e-05
-7.58765e-07
1.78263e-05
-1.47976e-06
1.81809e-05
-2.12137e-06
1.86363e-05
-2.70288e-06
1.91836e-05
-3.23237e-06
1.98143e-05
-3.71407e-06
2.05204e-05
-4.15014e-06
2.1294e-05
-4.54206e-06
2.21277e-05
-4.8912e-06
2.30142e-05
-5.19915e-06
2.39467e-05
-5.46796e-06
2.49186e-05
-5.70007e-06
2.59241e-05
-5.89831e-06
2.69578e-05
-6.06575e-06
2.80148e-05
-6.20559e-06
2.9091e-05
-6.32101e-06
3.01825e-05
-6.41512e-06
3.12862e-05
-6.49081e-06
3.23994e-05
-6.55074e-06
3.35196e-05
-6.59725e-06
3.4645e-05
-6.63242e-06
3.57738e-05
-6.65797e-06
3.69045e-05
-6.67534e-06
3.80361e-05
-6.6857e-06
3.91673e-05
-6.68995e-06
4.02973e-05
-6.68878e-06
4.14251e-05
-6.68266e-06
4.255e-05
-6.67194e-06
4.36711e-05
-6.65679e-06
4.47877e-05
-6.63731e-06
4.58991e-05
-6.61349e-06
4.70043e-05
-6.58528e-06
4.81027e-05
-6.55256e-06
4.91934e-05
-6.51518e-06
5.02755e-05
-6.47299e-06
5.13482e-05
-6.42581e-06
5.24105e-05
-6.37344e-06
5.34614e-05
-6.31571e-06
5.45e-05
-6.25243e-06
5.55253e-05
-6.18342e-06
5.65362e-05
-6.10849e-06
5.75317e-05
-6.02748e-06
5.85106e-05
-5.9402e-06
5.94719e-05
-5.8465e-06
6.04143e-05
-5.74618e-06
6.13367e-05
-5.63908e-06
6.2238e-05
-5.525e-06
6.31168e-05
-5.40377e-06
6.3972e-05
-5.27516e-06
6.48023e-05
-5.13897e-06
6.56064e-05
-4.99495e-06
6.6383e-05
-4.84285e-06
6.71307e-05
-4.68237e-06
6.78483e-05
-4.51321e-06
6.85344e-05
-4.335e-06
6.91875e-05
-4.14737e-06
6.98063e-05
-3.94988e-06
7.03894e-05
-3.74204e-06
7.09352e-05
-3.5233e-06
7.14425e-05
-3.29306e-06
7.19099e-05
-3.05062e-06
7.23359e-05
-2.79521e-06
7.27192e-05
-2.52596e-06
7.30587e-05
-2.24188e-06
7.33533e-05
-1.94186e-06
7.36021e-05
-1.62465e-06
7.38048e-05
-1.28885e-06
7.39611e-05
-9.32912e-07
7.40718e-05
-5.55144e-07
7.41383e-05
-1.53777e-07
7.41635e-05
2.72695e-07
7.4152e-05
7.25472e-07
7.41106e-05
1.20572e-06
7.40492e-05
1.71399e-06
7.3981e-05
2.24969e-06
7.39229e-05
2.81046e-06
7.38957e-05
3.39144e-06
7.39226e-05
3.9844e-06
7.40273e-05
4.57691e-06
7.42283e-05
5.15203e-06
5.68908e-06
7.45314e-05
1.88087e-05
-8.82631e-07
1.9064e-05
-1.73487e-06
1.94364e-05
-2.49358e-06
1.9916e-05
-3.18227e-06
2.04936e-05
-3.80967e-06
2.11602e-05
-4.38031e-06
2.19072e-05
-4.89672e-06
2.27261e-05
-5.36061e-06
2.3609e-05
-5.77363e-06
2.4548e-05
-6.13769e-06
2.55357e-05
-6.45523e-06
2.65651e-05
-6.72919e-06
2.76301e-05
-6.96293e-06
2.87247e-05
-7.16012e-06
2.98439e-05
-7.32456e-06
3.0983e-05
-7.46005e-06
3.21381e-05
-7.57027e-06
3.33058e-05
-7.65865e-06
3.44831e-05
-7.72835e-06
3.56676e-05
-7.78216e-06
3.6857e-05
-7.82252e-06
3.80497e-05
-7.85149e-06
3.92441e-05
-7.87077e-06
4.04389e-05
-7.88174e-06
4.1633e-05
-7.88547e-06
4.28253e-05
-7.88276e-06
4.40148e-05
-7.87419e-06
4.52008e-05
-7.86015e-06
4.63824e-05
-7.84085e-06
4.75588e-05
-7.8164e-06
4.8729e-05
-7.78678e-06
4.98924e-05
-7.75194e-06
5.1048e-05
-7.71172e-06
5.21949e-05
-7.66597e-06
5.33322e-05
-7.61448e-06
5.44589e-05
-7.55703e-06
5.55741e-05
-7.49343e-06
5.66767e-05
-7.42343e-06
5.77657e-05
-7.34682e-06
5.884e-05
-7.2634e-06
5.98985e-05
-7.17295e-06
6.09399e-05
-7.07526e-06
6.19633e-05
-6.97014e-06
6.29673e-05
-6.85739e-06
6.39507e-05
-6.73681e-06
6.49124e-05
-6.6082e-06
6.5851e-05
-6.47137e-06
6.67653e-05
-6.32609e-06
6.7654e-05
-6.17216e-06
6.85158e-05
-6.00933e-06
6.93494e-05
-5.83736e-06
7.01535e-05
-5.65598e-06
7.09268e-05
-5.4649e-06
7.16679e-05
-5.26379e-06
7.23755e-05
-5.05231e-06
7.30483e-05
-4.83007e-06
7.3685e-05
-4.59667e-06
7.42844e-05
-4.35163e-06
7.48451e-05
-4.09445e-06
7.53661e-05
-3.82459e-06
7.58462e-05
-3.54142e-06
7.62845e-05
-3.2443e-06
7.66802e-05
-2.93249e-06
7.70325e-05
-2.60521e-06
7.73412e-05
-2.26163e-06
7.76064e-05
-1.90085e-06
7.78284e-05
-1.52197e-06
7.80084e-05
-1.12404e-06
7.81483e-05
-7.06187e-07
7.82511e-05
-2.6765e-07
7.83209e-05
1.91914e-07
7.83634e-05
6.72066e-07
7.83861e-05
1.17209e-06
7.83989e-05
1.6905e-06
7.84133e-05
2.22466e-06
7.84429e-05
2.77043e-06
7.85022e-05
3.32182e-06
7.86058e-05
3.87077e-06
7.87657e-05
4.4071e-06
7.89891e-05
4.91895e-06
5.39423e-06
7.92745e-05
2.01213e-05
-1.01108e-06
2.03878e-05
-2.00126e-06
2.07784e-05
-2.88399e-06
2.12829e-05
-3.68648e-06
2.18916e-05
-4.41806e-06
2.25951e-05
-5.08343e-06
2.33841e-05
-5.68535e-06
2.42498e-05
-6.2258e-06
2.51833e-05
-6.70669e-06
2.61764e-05
-7.13027e-06
2.7221e-05
-7.49941e-06
2.83098e-05
-7.81757e-06
2.94359e-05
-8.08873e-06
3.05933e-05
-8.31717e-06
3.17763e-05
-8.50736e-06
3.29801e-05
-8.66375e-06
3.42004e-05
-8.79063e-06
3.54336e-05
-8.89205e-06
3.66766e-05
-8.97166e-06
3.79267e-05
-9.03276e-06
3.91817e-05
-9.07816e-06
4.04396e-05
-9.11029e-06
4.16989e-05
-9.13113e-06
4.29581e-05
-9.14227e-06
4.42161e-05
-9.14498e-06
4.54717e-05
-9.14017e-06
4.67239e-05
-9.12852e-06
4.79719e-05
-9.11047e-06
4.92147e-05
-9.08628e-06
5.04514e-05
-9.05606e-06
5.16813e-05
-9.01981e-06
5.29032e-05
-8.97742e-06
5.41164e-05
-8.92874e-06
5.53199e-05
-8.87357e-06
5.65126e-05
-8.81168e-06
5.76936e-05
-8.74282e-06
5.88618e-05
-8.66673e-06
6.00161e-05
-8.58315e-06
6.11553e-05
-8.49184e-06
6.22784e-05
-8.39255e-06
6.3384e-05
-8.28504e-06
6.44711e-05
-8.16909e-06
6.55384e-05
-8.04445e-06
6.65846e-05
-7.91093e-06
6.76084e-05
-7.76829e-06
6.86085e-05
-7.61634e-06
6.95837e-05
-7.45485e-06
7.05327e-05
-7.28361e-06
7.1454e-05
-7.10238e-06
7.23465e-05
-6.91094e-06
7.32087e-05
-6.70903e-06
7.40395e-05
-6.4964e-06
7.48374e-05
-6.27276e-06
7.56013e-05
-6.03782e-06
7.63299e-05
-5.79127e-06
7.7022e-05
-5.53275e-06
7.76764e-05
-5.2619e-06
7.82921e-05
-4.97833e-06
7.88681e-05
-4.68163e-06
7.94036e-05
-4.37136e-06
7.98978e-05
-4.04705e-06
8.03501e-05
-3.70823e-06
8.07604e-05
-3.3544e-06
8.11285e-05
-2.98508e-06
8.14548e-05
-2.5998e-06
8.17402e-05
-2.19813e-06
8.19861e-05
-1.77969e-06
8.21944e-05
-1.34426e-06
8.2368e-05
-8.91787e-07
8.2511e-05
-4.22464e-07
8.26278e-05
6.32686e-08
8.27243e-05
5.63779e-07
8.2808e-05
1.07679e-06
8.28872e-05
1.59971e-06
8.29714e-05
2.12903e-06
8.30704e-05
2.66015e-06
8.31938e-05
3.18737e-06
8.33497e-05
3.70393e-06
8.35439e-05
4.20224e-06
8.37779e-05
4.67447e-06
5.11379e-06
8.40481e-05
2.15256e-05
-1.14452e-06
2.18038e-05
-2.27932e-06
2.22132e-05
-3.29313e-06
2.27432e-05
-4.21617e-06
2.33839e-05
-5.05838e-06
2.41253e-05
-5.82441e-06
2.49576e-05
-6.5172e-06
2.58712e-05
-7.13893e-06
2.68568e-05
-7.69178e-06
2.79054e-05
-8.17836e-06
2.90085e-05
-8.60202e-06
3.01582e-05
-8.96678e-06
3.13471e-05
-9.27726e-06
3.25687e-05
-9.53842e-06
3.3817e-05
-9.75546e-06
3.50869e-05
-9.93352e-06
3.63738e-05
-1.00776e-05
3.76739e-05
-1.01923e-05
3.89838e-05
-1.02819e-05
4.03007e-05
-1.03502e-05
4.16222e-05
-1.04004e-05
4.29463e-05
-1.04353e-05
4.42713e-05
-1.04573e-05
4.55958e-05
-1.04681e-05
4.69184e-05
-1.04692e-05
4.82379e-05
-1.04616e-05
4.95534e-05
-1.04462e-05
5.08639e-05
-1.04234e-05
5.21683e-05
-1.03935e-05
5.34658e-05
-1.03567e-05
5.47554e-05
-1.03128e-05
5.60362e-05
-1.02619e-05
5.73071e-05
-1.02037e-05
5.85671e-05
-1.0138e-05
5.98152e-05
-1.00645e-05
6.10503e-05
-9.98301e-06
6.22712e-05
-9.89311e-06
6.34768e-05
-9.79457e-06
6.46659e-05
-9.68709e-06
6.58372e-05
-9.5704e-06
6.69896e-05
-9.44423e-06
6.81216e-05
-9.30832e-06
6.92321e-05
-9.16244e-06
7.03196e-05
-9.00635e-06
7.13829e-05
-8.83981e-06
7.24206e-05
-8.66262e-06
7.34315e-05
-8.47455e-06
7.44141e-05
-8.27538e-06
7.53671e-05
-8.06489e-06
7.62892e-05
-7.84287e-06
7.71792e-05
-7.60909e-06
7.80358e-05
-7.36331e-06
7.88577e-05
-7.10529e-06
7.96438e-05
-6.83479e-06
8.03929e-05
-6.55154e-06
8.11041e-05
-6.25527e-06
8.17764e-05
-5.94572e-06
8.24089e-05
-5.62261e-06
8.3001e-05
-5.28566e-06
8.35521e-05
-4.9346e-06
8.4062e-05
-4.56917e-06
8.45305e-05
-4.18913e-06
8.49579e-05
-3.79431e-06
8.53447e-05
-3.38455e-06
8.5692e-05
-2.9598e-06
8.60013e-05
-2.52011e-06
8.62745e-05
-2.06571e-06
8.65145e-05
-1.59698e-06
8.67245e-05
-1.11461e-06
8.69089e-05
-6.19567e-07
8.70725e-05
-1.13018e-07
8.72207e-05
4.02933e-07
8.73598e-05
9.2509e-07
8.74968e-05
1.45035e-06
8.76385e-05
1.97502e-06
8.77917e-05
2.49481e-06
8.79622e-05
3.00487e-06
8.81544e-05
3.49996e-06
8.83704e-05
3.97472e-06
8.86094e-05
4.42413e-06
4.8445e-06
8.88675e-05
2.30283e-05
-1.28333e-06
2.33186e-05
-2.56952e-06
2.37473e-05
-3.72161e-06
2.43036e-05
-4.77209e-06
2.49771e-05
-5.73147e-06
2.57573e-05
-6.60424e-06
2.6634e-05
-7.39336e-06
2.75968e-05
-8.1012e-06
2.86357e-05
-8.73017e-06
2.97412e-05
-9.28329e-06
3.09041e-05
-9.76439e-06
3.21159e-05
-1.01781e-05
3.33689e-05
-1.05298e-05
3.46559e-05
-1.08251e-05
3.59707e-05
-1.107e-05
3.73077e-05
-1.12704e-05
3.86622e-05
-1.1432e-05
4.003e-05
-1.15602e-05
4.14076e-05
-1.16598e-05
4.27919e-05
-1.1735e-05
4.41806e-05
-1.17898e-05
4.55714e-05
-1.18271e-05
4.69626e-05
-1.18497e-05
4.83526e-05
-1.18596e-05
4.974e-05
-1.18584e-05
5.11237e-05
-1.18474e-05
5.25026e-05
-1.18274e-05
5.38755e-05
-1.1799e-05
5.52415e-05
-1.17625e-05
5.65996e-05
-1.17181e-05
5.79488e-05
-1.16657e-05
5.9288e-05
-1.16051e-05
6.06163e-05
-1.15363e-05
6.19325e-05
-1.14589e-05
6.32354e-05
-1.13726e-05
6.4524e-05
-1.1277e-05
6.5797e-05
-1.11719e-05
6.70532e-05
-1.10569e-05
6.82913e-05
-1.09318e-05
6.951e-05
-1.07961e-05
7.0708e-05
-1.06496e-05
7.1884e-05
-1.0492e-05
7.30366e-05
-1.03231e-05
7.41644e-05
-1.01426e-05
7.5266e-05
-9.95025e-06
7.63402e-05
-9.74591e-06
7.73855e-05
-9.52933e-06
7.84006e-05
-9.3003e-06
7.93842e-05
-9.05864e-06
8.0335e-05
-8.80415e-06
8.12518e-05
-8.53664e-06
8.21333e-05
-8.25595e-06
8.29785e-05
-7.96188e-06
8.37864e-05
-7.65426e-06
8.45558e-05
-7.33293e-06
8.52862e-05
-6.99773e-06
8.59766e-05
-6.64853e-06
8.66266e-05
-6.28519e-06
8.72357e-05
-5.90763e-06
8.7804e-05
-5.51579e-06
8.83313e-05
-5.10965e-06
8.88182e-05
-4.68928e-06
8.92652e-05
-4.25479e-06
8.96736e-05
-3.80645e-06
9.00448e-05
-3.3446e-06
9.03808e-05
-2.86977e-06
9.06841e-05
-2.38268e-06
9.09577e-05
-1.88429e-06
9.12052e-05
-1.37581e-06
9.14307e-05
-8.58768e-07
9.16391e-05
-3.34976e-07
9.18349e-05
1.93538e-07
9.20231e-05
7.23398e-07
9.22089e-05
1.2512e-06
9.23972e-05
1.77347e-06
9.25924e-05
2.28653e-06
9.27979e-05
2.78651e-06
9.30156e-05
3.26953e-06
9.32459e-05
3.7319e-06
9.34873e-05
4.17045e-06
4.58334e-06
9.37364e-05
2.4636e-05
-1.42791e-06
2.4939e-05
-2.87234e-06
2.53877e-05
-4.17005e-06
2.59709e-05
-5.35498e-06
2.66781e-05
-6.43819e-06
2.74982e-05
-7.42384e-06
2.84202e-05
-8.31482e-06
2.94332e-05
-9.11362e-06
3.05265e-05
-9.8229e-06
3.16899e-05
-1.04461e-05
3.29136e-05
-1.09875e-05
3.41885e-05
-1.14525e-05
3.55063e-05
-1.18471e-05
3.68595e-05
-1.21779e-05
3.82414e-05
-1.24516e-05
3.96461e-05
-1.26749e-05
4.10686e-05
-1.28544e-05
4.25044e-05
-1.29961e-05
4.39498e-05
-1.31055e-05
4.54017e-05
-1.31875e-05
4.68575e-05
-1.32463e-05
4.83149e-05
-1.32855e-05
4.9772e-05
-1.3308e-05
5.12273e-05
-1.33163e-05
5.26792e-05
-1.33121e-05
5.41265e-05
-1.32968e-05
5.55682e-05
-1.32714e-05
5.7003e-05
-1.32365e-05
5.84299e-05
-1.31925e-05
5.98478e-05
-1.31395e-05
6.12557e-05
-1.30774e-05
6.26526e-05
-1.30062e-05
6.40372e-05
-1.29256e-05
6.54085e-05
-1.28352e-05
6.67652e-05
-1.27347e-05
6.81061e-05
-1.26237e-05
6.943e-05
-1.2502e-05
7.07355e-05
-1.2369e-05
7.20213e-05
-1.22246e-05
7.3286e-05
-1.20682e-05
7.45283e-05
-1.18996e-05
7.57467e-05
-1.17186e-05
7.694e-05
-1.15249e-05
7.81065e-05
-1.13181e-05
7.9245e-05
-1.10982e-05
8.03542e-05
-1.08648e-05
8.14325e-05
-1.06178e-05
8.24788e-05
-1.03571e-05
8.34916e-05
-1.00824e-05
8.44699e-05
-9.79364e-06
8.54125e-05
-9.49072e-06
8.63182e-05
-9.1735e-06
8.71861e-05
-8.84191e-06
8.80152e-05
-8.49588e-06
8.88049e-05
-8.13536e-06
8.95545e-05
-7.76034e-06
9.02636e-05
-7.37085e-06
9.09318e-05
-6.96696e-06
9.15593e-05
-6.54878e-06
9.21461e-05
-6.1165e-06
9.26928e-05
-5.67039e-06
9.32001e-05
-5.21081e-06
9.36691e-05
-4.73821e-06
9.41014e-05
-4.25321e-06
9.44988e-05
-3.75655e-06
9.48636e-05
-3.24918e-06
9.51985e-05
-2.73222e-06
9.55065e-05
-2.20704e-06
9.57912e-05
-1.67525e-06
9.60565e-05
-1.13874e-06
9.63065e-05
-5.99587e-07
9.65451e-05
-5.95848e-08
9.67757e-05
4.78323e-07
9.70022e-05
1.0103e-06
9.72281e-05
1.53339e-06
9.74559e-05
2.04459e-06
9.76876e-05
2.54094e-06
9.79238e-05
3.0196e-06
9.81641e-05
3.47806e-06
9.8407e-05
3.91433e-06
4.32765e-06
9.86496e-05
2.63561e-05
-1.57866e-06
2.66723e-05
-3.18834e-06
2.71416e-05
-4.63908e-06
2.77526e-05
-5.96559e-06
2.84942e-05
-7.1793e-06
2.93549e-05
-8.28401e-06
3.0323e-05
-9.28239e-06
3.1387e-05
-1.0177e-05
3.25355e-05
-1.09707e-05
3.37574e-05
-1.16673e-05
3.50425e-05
-1.22719e-05
3.63809e-05
-1.27903e-05
3.77639e-05
-1.32295e-05
3.91834e-05
-1.35969e-05
4.06324e-05
-1.39002e-05
4.21047e-05
-1.4147e-05
4.35948e-05
-1.43445e-05
4.50981e-05
-1.44996e-05
4.66109e-05
-1.46185e-05
4.81296e-05
-1.47068e-05
4.96517e-05
-1.47691e-05
5.11748e-05
-1.48095e-05
5.26968e-05
-1.48314e-05
5.42162e-05
-1.48373e-05
5.57314e-05
-1.48292e-05
5.72411e-05
-1.48088e-05
5.87442e-05
-1.47771e-05
6.02394e-05
-1.47347e-05
6.17257e-05
-1.46821e-05
6.3202e-05
-1.46194e-05
6.46671e-05
-1.45466e-05
6.61199e-05
-1.44635e-05
6.75593e-05
-1.43698e-05
6.89839e-05
-1.42651e-05
7.03926e-05
-1.41491e-05
7.1784e-05
-1.40213e-05
7.31568e-05
-1.38814e-05
7.45097e-05
-1.37289e-05
7.58412e-05
-1.35635e-05
7.715e-05
-1.33848e-05
7.84346e-05
-1.31925e-05
7.96935e-05
-1.29863e-05
8.09254e-05
-1.27659e-05
8.21288e-05
-1.25311e-05
8.33023e-05
-1.22817e-05
8.44445e-05
-1.20174e-05
8.55542e-05
-1.17383e-05
8.663e-05
-1.14441e-05
8.76707e-05
-1.11347e-05
8.86751e-05
-1.08101e-05
8.96423e-05
-1.04702e-05
9.05713e-05
-1.01151e-05
9.14611e-05
-9.7448e-06
9.23112e-05
-9.35931e-06
9.3121e-05
-8.95878e-06
9.38901e-05
-8.54337e-06
9.46184e-05
-8.11329e-06
9.53058e-05
-7.66883e-06
9.59527e-05
-7.21033e-06
9.65596e-05
-6.73825e-06
9.71273e-05
-6.25312e-06
9.76568e-05
-5.7556e-06
9.81497e-05
-5.24648e-06
9.86077e-05
-4.72667e-06
9.90328e-05
-4.19726e-06
9.94274e-05
-3.65949e-06
9.97943e-05
-3.11482e-06
0.000100136
-2.56485e-06
0.000100457
-2.01142e-06
0.000100759
-1.45652e-06
0.000101046
-9.02316e-07
0.000101322
-3.50989e-07
0.000101589
1.95574e-07
0.00010185
7.34105e-07
0.000102106
1.2616e-06
0.00010236
1.7756e-06
0.000102612
2.27386e-06
0.000102862
2.75434e-06
0.000103111
3.21532e-06
0.000103355
3.65555e-06
4.07491e-06
0.000103594
2.81964e-05
-1.73595e-06
2.85263e-05
-3.51806e-06
2.90169e-05
-5.12933e-06
2.96563e-05
-6.60457e-06
3.0433e-05
-7.95548e-06
3.13349e-05
-9.18537e-06
3.23498e-05
-1.02966e-05
3.34652e-05
-1.12917e-05
3.4669e-05
-1.21738e-05
3.59497e-05
-1.29472e-05
3.7296e-05
-1.36175e-05
3.86977e-05
-1.41913e-05
4.01454e-05
-1.46766e-05
4.16307e-05
-1.50817e-05
4.3146e-05
-1.54151e-05
4.46847e-05
-1.56854e-05
4.62413e-05
-1.59009e-05
4.78109e-05
-1.60692e-05
4.93893e-05
-1.61973e-05
5.09733e-05
-1.62912e-05
5.25599e-05
-1.63564e-05
5.41467e-05
-1.63973e-05
5.57316e-05
-1.64176e-05
5.7313e-05
-1.64203e-05
5.88893e-05
-1.64075e-05
6.04592e-05
-1.6381e-05
6.20214e-05
-1.63419e-05
6.35747e-05
-1.62911e-05
6.5118e-05
-1.62289e-05
6.66501e-05
-1.61554e-05
6.81698e-05
-1.60707e-05
6.96761e-05
-1.59744e-05
7.11675e-05
-1.58664e-05
7.26429e-05
-1.57461e-05
7.41009e-05
-1.56131e-05
7.55402e-05
-1.54671e-05
7.69593e-05
-1.53075e-05
7.83569e-05
-1.5134e-05
7.97315e-05
-1.4946e-05
8.10817e-05
-1.47434e-05
8.24059e-05
-1.45256e-05
8.37027e-05
-1.42925e-05
8.49707e-05
-1.40437e-05
8.62085e-05
-1.37791e-05
8.74146e-05
-1.34985e-05
8.85878e-05
-1.32017e-05
8.97266e-05
-1.28887e-05
9.083e-05
-1.25594e-05
9.18968e-05
-1.22138e-05
9.29259e-05
-1.1852e-05
9.39164e-05
-1.14739e-05
9.48676e-05
-1.10798e-05
9.57787e-05
-1.06698e-05
9.66494e-05
-1.02442e-05
9.74792e-05
-9.80314e-06
9.8268e-05
-9.34708e-06
9.90159e-05
-8.87641e-06
9.97233e-05
-8.39164e-06
0.000100391
-7.89338e-06
0.000101019
-7.38231e-06
0.000101609
-6.85925e-06
0.000102162
-6.32512e-06
0.00010268
-5.78098e-06
0.000103165
-5.22801e-06
0.000103618
-4.66755e-06
0.000104043
-4.10107e-06
0.000104442
-3.53022e-06
0.000104817
-2.95675e-06
0.000105171
-2.38257e-06
0.000105507
-1.8097e-06
0.000105829
-1.24026e-06
0.000106137
-6.76331e-07
0.000106435
-1.19394e-07
0.000106725
4.28282e-07
0.000107006
9.63551e-07
0.000107281
1.48444e-06
0.00010755
1.98921e-06
0.000107812
2.47637e-06
0.000108067
2.9447e-06
0.000108313
3.39344e-06
3.82283e-06
0.00010855
3.01653e-05
-1.90011e-06
3.05094e-05
-3.86203e-06
3.10218e-05
-5.64134e-06
3.16901e-05
-7.27246e-06
3.25024e-05
-8.76717e-06
3.34459e-05
-1.01282e-05
3.45076e-05
-1.13576e-05
3.56744e-05
-1.24577e-05
3.69334e-05
-1.3432e-05
3.82722e-05
-1.42852e-05
3.9679e-05
-1.50235e-05
4.11429e-05
-1.56545e-05
4.2654e-05
-1.6187e-05
4.42034e-05
-1.66304e-05
4.57831e-05
-1.69943e-05
4.73862e-05
-1.72882e-05
4.90069e-05
-1.75214e-05
5.06402e-05
-1.77024e-05
5.22817e-05
-1.7839e-05
5.3928e-05
-1.7938e-05
5.5576e-05
-1.80052e-05
5.72234e-05
-1.80457e-05
5.8868e-05
-1.80636e-05
6.05081e-05
-1.8062e-05
6.21422e-05
-1.80435e-05
6.37687e-05
-1.80099e-05
6.53865e-05
-1.79625e-05
6.69944e-05
-1.79021e-05
6.85911e-05
-1.78292e-05
7.01755e-05
-1.77438e-05
7.17463e-05
-1.7646e-05
7.33023e-05
-1.75354e-05
7.48422e-05
-1.74117e-05
7.63647e-05
-1.72745e-05
7.78684e-05
-1.71233e-05
7.93519e-05
-1.69575e-05
8.08138e-05
-1.67768e-05
8.22526e-05
-1.65806e-05
8.36667e-05
-1.63686e-05
8.50548e-05
-1.61403e-05
8.64153e-05
-1.58955e-05
8.77468e-05
-1.56338e-05
8.90478e-05
-1.53551e-05
9.03169e-05
-1.5059e-05
9.15528e-05
-1.47457e-05
9.27541e-05
-1.44148e-05
9.39196e-05
-1.40665e-05
9.50483e-05
-1.37008e-05
9.61391e-05
-1.33178e-05
9.71911e-05
-1.29176e-05
9.82035e-05
-1.25004e-05
9.91757e-05
-1.20665e-05
0.000100107
-1.16162e-05
0.000100998
-1.115e-05
0.000101847