/*--------------------------------*- C++ -*----------------------------------*\
  =========                 |
  \\      /  F ield         | OpenFOAM: The Open Source CFD Toolbox
   \\    /   O peration     | Website:  https://openfoam.org
    \\  /    A nd           | Version:  7
     \\/     M anipulation  |
\*---------------------------------------------------------------------------*/
FoamFile
{
    version     2.0;
    format      ascii;
    class       volScalarField;
    location    "2";
    object      T;
}
// * * * * * * * * * * * * * * * * * * * * * * * * * * * * * * * * * * * * * //

dimensions      [0 0 0 1 0 0 0];

internalField   nonuniform List<scalar> 
12013
(
300.025
300.077
300.13
300.186
300.245
300.306
300.37
300.438
300.508
300.582
300.66
300.742
300.827
300.917
301.012
301.111
301.215
301.325
301.44
301.561
301.687
301.82
301.96
302.107
302.26
302.422
302.592
302.77
302.957
303.153
303.36
303.577
303.805
304.045
304.298
304.565
304.845
305.141
305.454
305.784
306.133
306.502
306.892
307.306
307.744
308.209
308.703
309.228
309.785
310.378
311.01
311.683
312.4
313.166
313.983
314.855
315.788
316.785
317.852
318.995
320.219
321.531
322.938
324.449
326.072
327.817
329.695
331.718
333.9
336.257
338.806
341.57
344.574
347.849
351.433
355.377
359.746
364.634
370.185
376.635
384.444
300.025
300.077
300.13
300.186
300.245
300.306
300.37
300.438
300.508
300.582
300.66
300.742
300.827
300.917
301.012
301.111
301.215
301.325
301.44
301.561
301.687
301.82
301.96
302.107
302.261
302.422
302.592
302.77
302.957
303.153
303.36
303.577
303.805
304.046
304.298
304.565
304.846
305.142
305.454
305.784
306.133
306.502
306.892
307.306
307.744
308.209
308.703
309.227
309.785
310.378
311.009
311.682
312.399
313.164
313.98
314.852
315.784
316.781
317.847
318.988
320.211
321.521
322.927
324.435
326.055
327.796
329.669
331.686
333.861
336.208
338.746
341.495
344.48
347.729
351.278
355.17
359.464
364.231
369.569
375.597
382.421
300.025
300.077
300.13
300.186
300.245
300.306
300.37
300.438
300.508
300.582
300.66
300.742
300.827
300.917
301.012
301.111
301.215
301.325
301.44
301.561
301.687
301.821
301.96
302.107
302.261
302.422
302.592
302.77
302.957
303.154
303.36
303.578
303.806
304.046
304.299
304.566
304.846
305.142
305.455
305.785
306.134
306.503
306.893
307.307
307.745
308.21
308.703
309.227
309.784
310.377
311.008
311.68
312.396
313.16
313.976
314.846
315.777
316.771
317.835
318.974
320.193
321.5
322.9
324.403
326.016
327.749
329.611
331.616
333.774
336.102
338.615
341.332
344.275
347.469
350.943
354.732
358.876
363.42
368.406
373.858
379.734
300.025
300.077
300.13
300.186
300.245
300.306
300.37
300.438
300.508
300.582
300.66
300.742
300.827
300.917
301.012
301.111
301.216
301.325
301.44
301.561
301.688
301.821
301.961
302.107
302.261
302.423
302.593
302.771
302.958
303.155
303.361
303.578
303.807
304.047
304.3
304.567
304.847
305.144
305.456
305.786
306.135
306.504
306.894
307.307
307.745
308.21
308.703
309.227
309.783
310.375
311.005
311.676
312.391
313.154
313.968
314.836
315.764
316.755
317.816
318.95
320.164
321.464
322.857
324.35
325.951
327.67
329.516
331.5
333.633
335.929
338.402
341.068
343.946
347.055
350.417
354.055
357.991
362.245
366.82
371.695
376.794
300.025
300.077
300.13
300.186
300.245
300.306
300.37
300.438
300.508
300.582
300.66
300.742
300.827
300.917
301.012
301.111
301.216
301.325
301.44
301.561
301.688
301.821
301.961
302.108
302.262
302.424
302.593
302.772
302.959
303.156
303.362
303.58
303.808
304.049
304.302
304.568
304.849
305.145
305.458
305.788
306.136
306.505
306.895
307.308
307.746
308.21
308.703
309.226
309.782
310.373
311.001
311.671
312.384
313.145
313.956
314.821
315.745
316.732
317.786
318.914
320.12
321.411
322.792
324.272
325.857
327.556
329.378
331.332
333.429
335.679
338.097
340.693
343.483
346.479
349.696
353.147
356.838
360.769
364.927
369.275
373.743
300.025
300.077
300.13
300.186
300.245
300.306
300.37
300.438
300.508
300.582
300.66
300.742
300.827
300.918
301.012
301.112
301.216
301.326
301.441
301.562
301.689
301.822
301.962
302.109
302.263
302.425
302.595
302.773
302.96
303.157
303.364
303.581
303.81
304.05
304.304
304.57
304.851
305.147
305.46
305.79
306.138
306.507
306.897
307.31
307.747
308.21
308.702
309.224
309.779
310.369
310.996
311.663
312.374
313.131
313.939
314.8
315.718
316.699
317.746
318.865
320.06
321.338
322.704
324.165
325.728
327.401
329.19
331.105
333.154
335.347
337.693
340.201
342.881
345.742
348.79
352.028
355.454
359.059
362.819
366.699
370.644
300.025
300.077
300.13
300.186
300.245
300.306
300.37
300.438
300.508
300.582
300.66
300.742
300.828
300.918
301.012
301.112
301.216
301.326
301.441
301.562
301.689
301.823
301.963
302.11
302.264
302.426
302.596
302.775
302.962
303.159
303.366
303.584
303.812
304.053
304.306
304.573
304.854
305.15
305.463
305.793
306.141
306.509
306.899
307.311
307.748
308.21
308.701
309.222
309.775
310.363
310.988
311.652
312.36
313.113
313.916
314.771
315.683
316.655
317.692
318.799
319.981
321.242
322.588
324.026
325.561
327.199
328.948
330.814
332.804
334.926
337.186
339.59
342.144
344.851
347.713
350.726
353.883
357.169
360.562
364.03
367.531
300.025
300.077
300.13
300.186
300.245
300.306
300.37
300.438
300.508
300.582
300.66
300.742
300.828
300.918
301.013
301.112
301.217
301.326
301.442
301.563
301.69
301.824
301.964
302.111
302.265
302.428
302.598
302.777
302.964
303.161
303.369
303.586
303.815
304.056
304.31
304.576
304.857
305.154
305.466
305.796
306.144
306.512
306.901
307.313
307.749
308.21
308.7
309.219
309.77
310.355
310.977
311.638
312.341
313.089
313.886
314.734
315.636
316.598
317.623
318.716
319.88
321.12
322.442
323.85
325.35
326.947
328.647
330.455
332.376
334.415
336.576
338.863
341.277
343.819
346.485
349.27
352.163
355.149
358.207
361.31
364.427
300.025
300.077
300.13
300.186
300.245
300.306
300.37
300.437
300.508
300.582
300.66
300.742
300.828
300.918
301.013
301.112
301.217
301.327
301.443
301.564
301.691
301.825
301.965
302.113
302.267
302.43
302.6
302.779
302.967
303.164
303.372
303.59
303.819
304.06
304.314
304.58
304.862
305.158
305.47
305.8
306.148
306.515
306.904
307.314
307.749
308.21
308.697
309.214
309.763
310.345
310.963
311.62
312.317
313.059
313.847
314.686
315.578
316.527
317.537
318.611
319.754
320.969
322.261
323.634
325.093
326.642
328.285
330.025
331.867
333.813
335.866
338.025
340.292
342.662
345.131
347.691
350.332
353.038
355.791
358.571
361.354
300.025
300.076
300.13
300.186
300.245
300.306
300.37
300.437
300.508
300.582
300.66
300.742
300.828
300.918
301.013
301.113
301.218
301.328
301.443
301.565
301.692
301.826
301.967
302.115
302.269
302.432
302.603
302.782
302.97
303.168
303.376
303.594
303.823
304.065
304.318
304.585
304.866
305.163
305.475
305.804
306.152
306.519
306.906
307.316
307.749
308.208
308.694
309.208
309.754
310.332
310.945
311.596
312.287
313.021
313.8
314.627
315.506
316.439
317.43
318.483
319.6
320.786
322.043
323.376
324.788
326.281
327.859
329.525
331.28
333.125
335.062
337.088
339.202
341.399
343.674
346.017
348.42
350.868
353.346
355.839
358.327
300.025
300.076
300.13
300.186
300.245
300.306
300.37
300.437
300.508
300.582
300.66
300.742
300.828
300.919
301.014
301.113
301.218
301.329
301.444
301.566
301.694
301.828
301.969
302.117
302.272
302.435
302.606
302.786
302.974
303.172
303.38
303.599
303.828
304.07
304.324
304.591
304.872
305.168
305.48
305.809
306.156
306.522
306.909
307.317
307.749
308.206
308.689
309.2
309.741
310.315
310.922
311.566
312.249
312.973
313.741
314.555
315.418
316.333
317.303
318.33
319.418
320.569
321.787
323.074
324.432
325.864
327.372
328.956
330.618
332.357
334.173
336.063
338.024
340.05
342.137
344.276
346.456
348.668
350.899
353.135
355.363
300.025
300.076
300.13
300.186
300.244
300.306
300.37
300.437
300.508
300.582
300.66
300.742
300.828
300.919
301.014
301.114
301.219
301.33
301.446
301.568
301.696
301.83
301.971
302.119
302.275
302.438
302.61
302.79
302.979
303.177
303.386
303.604
303.834
304.076
304.33
304.597
304.879
305.175
305.486
305.815
306.161
306.526
306.912
307.318
307.748
308.202
308.682
309.189
309.725
310.293
310.894
311.53
312.203
312.915
313.67
314.468
315.313
316.207
317.152
318.15
319.205
320.318
321.492
322.728
324.028
325.393
326.825
328.323
329.887
331.517
333.21
334.964
336.775
338.637
340.544
342.49
344.466
346.462
348.469
350.477
352.473
300.025
300.076
300.13
300.186
300.244
300.306
300.37
300.437
300.508
300.582
300.66
300.742
300.828
300.919
301.014
301.115
301.22
301.331
301.447
301.569
301.698
301.832
301.974
302.123
302.279
302.442
302.614
302.795
302.984
303.183
303.392
303.611
303.841
304.083
304.337
304.605
304.886
305.181
305.493
305.821
306.166
306.53
306.914
307.318
307.745
308.196
308.672
309.174
309.705
310.266
310.859
311.485
312.147
312.846
313.585
314.366
315.19
316.059
316.976
317.943
318.961
320.031
321.157
322.338
323.575
324.87
326.222
327.631
329.097
330.616
332.187
333.807
335.472
337.177
338.916
340.683
342.471
344.272
346.078
347.88
349.671
300.025
300.076
300.13
300.186
300.244
300.305
300.37
300.437
300.508
300.582
300.66
300.742
300.829
300.919
301.015
301.115
301.221
301.332
301.449
301.571
301.7
301.835
301.977
302.126
302.282
302.447
302.619
302.8
302.99
303.189
303.398
303.618
303.848
304.091
304.345
304.612
304.893
305.189
305.5
305.827
306.171
306.533
306.915
307.317
307.741
308.188
308.659
309.156
309.68
310.233
310.817
311.432
312.081
312.765
313.487
314.247
315.047
315.89
316.776
317.707
318.685
319.71
320.784
321.907
323.079
324.301
325.571
326.89
328.255
329.665
331.117
332.608
334.134
335.691
337.273
338.875
340.491
342.115
343.74
345.359
346.967
300.025
300.076
300.13
300.185
300.244
300.305
300.369
300.437
300.507
300.582
300.66
300.742
300.829
300.92
301.015
301.116
301.222
301.333
301.45
301.573
301.702
301.838
301.98
302.13
302.287
302.452
302.624
302.806
302.996
303.196
303.406
303.626
303.857
304.099
304.354
304.621
304.902
305.197
305.507
305.833
306.176
306.536
306.916
307.315
307.735
308.178
308.643
309.134
309.65
310.194
310.767
311.369
312.004
312.671
313.373
314.11
314.885
315.698
316.551
317.444
318.379
319.356
320.376
321.438
322.543
323.69
324.879
326.107
327.374
328.678
330.015
331.382
332.777
334.195
335.632
337.082
338.542
340.006
341.469
342.925
344.37
300.025
300.076
300.129
300.185
300.244
300.305
300.369
300.436
300.507
300.582
300.66
300.742
300.829
300.92
301.016
301.117
301.223
301.335
301.452
301.575
301.705
301.841
301.984
302.134
302.292
302.457
302.63
302.812
303.003
303.204
303.414
303.634
303.866
304.108
304.363
304.63
304.911
305.205
305.514
305.839
306.18
306.538
306.915
307.311
307.727
308.164
308.623
309.106
309.614
310.147
310.708
311.296
311.914
312.563
313.244
313.957
314.704
315.485
316.302
317.156
318.046
318.972
319.936
320.937
321.974
323.046
324.153
325.294
326.465
327.666
328.893
330.144
331.417
332.706
334.009
335.322
336.64
337.96
339.277
340.588
341.887
300.025
300.076
300.129
300.185
300.243
300.304
300.369
300.436
300.507
300.581
300.66
300.742
300.829
300.92
301.016
301.118
301.224
301.336
301.454
301.578
301.708
301.844
301.988
302.139
302.297
302.463
302.637
302.819
303.011
303.212
303.423
303.643
303.875
304.118
304.373
304.64
304.92
305.213
305.521
305.844
306.184
306.539
306.912
307.304
307.715
308.146
308.599
309.073
309.571
310.093
310.64
311.213
311.813
312.442
313.099
313.786
314.503
315.252
316.031
316.843
317.687
318.562
319.47
320.408
321.378
322.377
323.404
324.459
325.539
326.642
327.766
328.909
330.067
331.238
332.419
333.607
334.798
335.988
337.175
338.355
339.525
300.025
300.076
300.129
300.185
300.243
300.304
300.368
300.435
300.506
300.581
300.659
300.742
300.829
300.92
301.017
301.118
301.225
301.337
301.456
301.58
301.711
301.848
301.992
302.143
302.302
302.469
302.644
302.827
303.019
303.221
303.432
303.653
303.885
304.128
304.382
304.649
304.928
305.221
305.528
305.849
306.186
306.538
306.908
307.295
307.7
308.124
308.569
309.034
309.521
310.03
310.563
311.119
311.701
312.307
312.94
313.599
314.286
314.999
315.741
316.51
317.307
318.131
318.982
319.859
320.762
321.69
322.641
323.613
324.606
325.618
326.646
327.687
328.741
329.804
330.874
331.949
333.024
334.098
335.169
336.232
337.287
300.025
300.076
300.129
300.184
300.242
300.303
300.367
300.435
300.505
300.58
300.659
300.741
300.828
300.92
301.017
301.119
301.226
301.339
301.457
301.582
301.713
301.851
301.996
302.148
302.308
302.475
302.651
302.835
303.027
303.229
303.441
303.663
303.895
304.138
304.392
304.658
304.937
305.228
305.533
305.852
306.186
306.535
306.9
307.282
307.681
308.098
308.534
308.989
309.464
309.959
310.476
311.015
311.576
312.16
312.767
313.398
314.052
314.731
315.433
316.16
316.91
317.683
318.478
319.296
320.135
320.994
321.872
322.767
323.679
324.605
325.543
326.492
327.45
328.415
329.384
330.356
331.328
332.298
333.264
334.224
335.176
300.025
300.075
300.128
300.184
300.242
300.302
300.366
300.434
300.505
300.579
300.658
300.74
300.828
300.92
301.017
301.119
301.227
301.34
301.459
301.584
301.716
301.855
302
302.153
302.313
302.481
302.657
302.842
303.036
303.238
303.45
303.672
303.904
304.147
304.401
304.667
304.944
305.234
305.537
305.854
306.184
306.53
306.89
307.266
307.658
308.067
308.493
308.937
309.399
309.88
310.38
310.9
311.441
312.001
312.582
313.183
313.806
314.449
315.112
315.796
316.5
317.223
317.966
318.726
319.504
320.298
321.107
321.93
322.765
323.612
324.468
325.333
326.203
327.079
327.958
328.837
329.717
330.594
331.466
332.333
333.193
300.025
300.075
300.128
300.183
300.241
300.302
300.365
300.433
300.503
300.578
300.657
300.739
300.827
300.919
301.016
301.119
301.227
301.341
301.46
301.586
301.719
301.858
302.004
302.157
302.318
302.487
302.664
302.85
303.044
303.247
303.459
303.681
303.913
304.156
304.41
304.674
304.951
305.239
305.54
305.853
306.18
306.521
306.876
307.245
307.63
308.03
308.446
308.878
309.327
309.793
310.276
310.777
311.295
311.831
312.386
312.958
313.548
314.156
314.781
315.424
316.083
316.759
317.449
318.155
318.875
319.608
320.352
321.108
321.874
322.648
323.429
324.216
325.008
325.803
326.6
327.397
328.193
328.987
329.776
330.561
331.339
300.025
300.075
300.127
300.182
300.24
300.3
300.364
300.431
300.502
300.576
300.655
300.738
300.826
300.918
301.015
301.118
301.227
301.341
301.461
301.588
301.721
301.86
302.007
302.161
302.323
302.493
302.67
302.856
303.051
303.254
303.467
303.689
303.921
304.164
304.416
304.68
304.955
305.241
305.539
305.849
306.172
306.508
306.857
307.219
307.596
307.987
308.392
308.812
309.247
309.697
310.163
310.644
311.141
311.653
312.181
312.724
313.283
313.856
314.444
315.047
315.663
316.293
316.935
317.59
318.255
318.931
319.616
320.31
321.011
321.719
322.432
323.15
323.87
324.592
325.316
326.039
326.76
327.479
328.195
328.905
329.61
300.024
300.074
300.127
300.181
300.239
300.299
300.362
300.429
300.5
300.574
300.653
300.736
300.824
300.916
301.014
301.117
301.226
301.34
301.461
301.588
301.722
301.862
302.01
302.164
302.327
302.497
302.675
302.862
303.057
303.26
303.473
303.696
303.927
304.169
304.421
304.683
304.956
305.24
305.535
305.842
306.16
306.49
306.833
307.188
307.556
307.937
308.332
308.739
309.16
309.594
310.042
310.503
310.978
311.467
311.969
312.484
313.011
313.552
314.104
314.669
315.245
315.831
316.428
317.034
317.649
318.273
318.903
319.54
320.183
320.831
321.482
322.136
322.793
323.45
324.107
324.764
325.419
326.071
326.721
327.365
328.005
300.024
300.074
300.126
300.18
300.237
300.297
300.36
300.427
300.497
300.572
300.65
300.733
300.821
300.914
301.012
301.115
301.224
301.339
301.46
301.587
301.722
301.863
302.011
302.166
302.329
302.5
302.678
302.865
303.061
303.265
303.477
303.699
303.931
304.172
304.422
304.683
304.953
305.235
305.526
305.829
306.143
306.467
306.804
307.151
307.51
307.881
308.264
308.659
309.065
309.483
309.914
310.356
310.809
311.274
311.751
312.238
312.737
313.245
313.764
314.293
314.83
315.377
315.931
316.493
317.062
317.637
318.217
318.803
319.393
319.986
320.581
321.179
321.777
322.376
322.975
323.572
324.167
324.76
325.35
325.936
326.517
300.024
300.073
300.125
300.179
300.235
300.295
300.358
300.424
300.494
300.568
300.647
300.73
300.817
300.91
301.008
301.112
301.221
301.336
301.458
301.585
301.72
301.861
302.01
302.166
302.329
302.5
302.679
302.867
303.062
303.266
303.478
303.7
303.93
304.17
304.419
304.678
304.946
305.224
305.513
305.811
306.119
306.438
306.767
307.107
307.457
307.818
308.189
308.57
308.963
309.365
309.778
310.201
310.634
311.076
311.528
311.99
312.46
312.939
313.426
313.921
314.423
314.932
315.447
315.968
316.495
317.026
317.561
318.1
318.641
319.185
319.73
320.277
320.824
321.37
321.916
322.46
323.003
323.543
324.079
324.612
325.141
300.024
300.073
300.123
300.177
300.233
300.292
300.355
300.421
300.491
300.564
300.642
300.725
300.813
300.905
301.003
301.107
301.216
301.332
301.453
301.581
301.716
301.858
302.007
302.163
302.327
302.498
302.677
302.864
303.06
303.263
303.475
303.696
303.925
304.164
304.411
304.667
304.933
305.208
305.492
305.785
306.088
306.401
306.723
307.054
307.395
307.745
308.105
308.474
308.852
309.239
309.634
310.039
310.452
310.873
311.302
311.738
312.182
312.633
313.09
313.554
314.023
314.498
314.977
315.461
315.948
316.44
316.934
317.43
317.928
318.428
318.928
319.429
319.929
320.429
320.928
321.425
321.92
322.412
322.901
323.387
323.869
300.024
300.072
300.122
300.175
300.231
300.289
300.351
300.417
300.486
300.559
300.637
300.719
300.807
300.899
300.997
301.1
301.21
301.325
301.447
301.575
301.71
301.852
302.001
302.157
302.321
302.492
302.671
302.858
303.053
303.256
303.467
303.686
303.914
304.151
304.396
304.65
304.912
305.183
305.463
305.751
306.048
306.354
306.669
306.992
307.323
307.663
308.011
308.367
308.731
309.103
309.482
309.869
310.263
310.663
311.07
311.483
311.902
312.327
312.757
313.191
313.63
314.073
314.52
314.97
315.422
315.877
316.334
316.792
317.251
317.711
318.171
318.631
319.09
319.548
320.004
320.459
320.911
321.361
321.807
322.251
322.69
300.023
300.071
300.12
300.172
300.227
300.285
300.347
300.411
300.48
300.553
300.63
300.712
300.799
300.891
300.989
301.092
301.201
301.316
301.438
301.566
301.7
301.842
301.991
302.147
302.31
302.481
302.659
302.846
303.04
303.242
303.452
303.67
303.896
304.13
304.372
304.623
304.882
305.149
305.423
305.706
305.997
306.296
306.603
306.917
307.239
307.569
307.905
308.249
308.599
308.956
309.32
309.689
310.064
310.445
310.832
311.223
311.619
312.019
312.423
312.831
313.243
313.657
314.073
314.492
314.913
315.335
315.758
316.182
316.606
317.03
317.453
317.876
318.298
318.718
319.137
319.553
319.967
320.379
320.787
321.193
321.594
300.023
300.069
300.118
300.17
300.224
300.281
300.341
300.405
300.473
300.545
300.622
300.703
300.79
300.881
300.978
301.081
301.189
301.304
301.425
301.553
301.687
301.828
301.976
302.132
302.294
302.464
302.642
302.827
303.02
303.22
303.428
303.644
303.868
304.099
304.338
304.585
304.84
305.102
305.372
305.649
305.933
306.225
306.524
306.829
307.141
307.46
307.785
308.116
308.453
308.796
309.144
309.497
309.855
310.217
310.584
310.955
311.329
311.706
312.087
312.47
312.856
313.243
313.632
314.023
314.414
314.807
315.199
315.592
315.984
316.376
316.767
317.157
317.545
317.931
318.316
318.698
319.078
319.455
319.829
320.2
320.568
300.022
300.068
300.116
300.166
300.219
300.276
300.335
300.398
300.465
300.536
300.612
300.693
300.778
300.869
300.965
301.067
301.174
301.288
301.408
301.535
301.669
301.809
301.956
302.11
302.272
302.441
302.617
302.8
302.991
303.189
303.395
303.608
303.829
304.057
304.292
304.535
304.785
305.042
305.305
305.576
305.853
306.137
306.427
306.724
307.026
307.334
307.647
307.966
308.29
308.618
308.951
309.288
309.629
309.974
310.322
310.673
311.027
311.383
311.742
312.102
312.464
312.827
313.19
313.555
313.92
314.285
314.65
315.014
315.377
315.74
316.101
316.46
316.818
317.174
317.528
317.879
318.228
318.574
318.917
319.257
319.593
300.022
300.066
300.113
300.163
300.215
300.27
300.328
300.39
300.456
300.526
300.6
300.68
300.764
300.853
300.948
301.049
301.156
301.268
301.387
301.513
301.645
301.784
301.93
302.082
302.242
302.409
302.583
302.764
302.952
303.148
303.35
303.56
303.777
304.001
304.232
304.469
304.714
304.964
305.222
305.485
305.755
306.03
306.312
306.598
306.89
307.187
307.489
307.795
308.105
308.419
308.737
309.059
309.383
309.711
310.041
310.373
310.707
311.043
311.381
311.719
312.059
312.399
312.739
313.079
313.42
313.759
314.098
314.436
314.773
315.109
315.443
315.775
316.105
316.433
316.758
317.081
317.402
317.719
318.034
318.345
318.654
300.021
300.065
300.11
300.158
300.209
300.263
300.32
300.38
300.445
300.513
300.587
300.664
300.747
300.835
300.929
301.028
301.133
301.244
301.362
301.485
301.616
301.752
301.896
302.046
302.204
302.368
302.539
302.717
302.902
303.094
303.292
303.498
303.71
303.929
304.154
304.386
304.624
304.868
305.118
305.374
305.635
305.901
306.173
306.449
306.73
307.015
307.304
307.597
307.894
308.194
308.497
308.803
309.111
309.421
309.733
310.047
310.363
310.679
310.996
311.314
311.632
311.95
312.268
312.585
312.902
313.218
313.533
313.847
314.159
314.469
314.778
315.084
315.389
315.691
315.99
316.287
316.581
316.872
317.161
317.446
317.728
300.021
300.063
300.107
300.153
300.203
300.255
300.31
300.369
300.432
300.499
300.571
300.647
300.728
300.814
300.906
301.003
301.106
301.215
301.33
301.452
301.58
301.714
301.855
302.002
302.156
302.317
302.484
302.658
302.839
303.027
303.22
303.421
303.627
303.84
304.059
304.284
304.514
304.75
304.992
305.239
305.49
305.747
306.007
306.272
306.541
306.814
307.09
307.37
307.652
307.937
308.225
308.514
308.806
309.099
309.393
309.689
309.985
310.282
310.579
310.877
311.174
311.471
311.767
312.062
312.356
312.65
312.941
313.231
313.52
313.806
314.091
314.373
314.653
314.931
315.206
315.478
315.747
316.014
316.278
316.539
316.796
300.02
300.06
300.103
300.148
300.196
300.246
300.3
300.357
300.418
300.483
300.553
300.627
300.706
300.79
300.88
300.975
301.075
301.182
301.294
301.413
301.537
301.668
301.806
301.949
302.099
302.256
302.419
302.588
302.764
302.946
303.134
303.328
303.528
303.733
303.945
304.161
304.383
304.61
304.842
305.079
305.32
305.565
305.814
306.067
306.323
306.582
306.844
307.109
307.376
307.646
307.917
308.19
308.464
308.739
309.015
309.292
309.569
309.846
310.123
310.4
310.676
310.951
311.226
311.499
311.772
312.042
312.311
312.578
312.844
313.107
313.368
313.627
313.883
314.137
314.389
314.637
314.883
315.126
315.367
315.604
315.838
300.019
300.058
300.099
300.142
300.188
300.237
300.288
300.344
300.403
300.466
300.533
300.605
300.682
300.764
300.85
300.943
301.04
301.144
301.253
301.368
301.489
301.616
301.749
301.888
302.034
302.185
302.343
302.506
302.676
302.851
303.032
303.219
303.411
303.609
303.811
304.019
304.231
304.448
304.669
304.894
305.123
305.356
305.592
305.831
306.073
306.318
306.565
306.814
307.065
307.317
307.571
307.826
308.082
308.339
308.596
308.853
309.11
309.366
309.623
309.879
310.133
310.387
310.64
310.891
311.141
311.389
311.635
311.879
312.122
312.362
312.6
312.835
313.069
313.299
313.527
313.753
313.976
314.196
314.413
314.628
314.839
300.018
300.055
300.095
300.136
300.18
300.227
300.277
300.33
300.387
300.448
300.513
300.582
300.656
300.735
300.819
300.908
301.002
301.102
301.208
301.319
301.436
301.558
301.687
301.821
301.961
302.107
302.258
302.415
302.578
302.746
302.919
303.097
303.281
303.469
303.662
303.859
304.06
304.266
304.475
304.688
304.904
305.123
305.345
305.569
305.796
306.025
306.255
306.488
306.721
306.956
307.191
307.427
307.664
307.9
308.137
308.373
308.609
308.845
309.079
309.313
309.546
309.777
310.007
310.236
310.463
310.688
310.911
311.132
311.351
311.568
311.783
311.996
312.206
312.413
312.618
312.821
313.021
313.218
313.413
313.605
313.794
300.017
300.053
300.09
300.13
300.172
300.217
300.265
300.316
300.37
300.429
300.491
300.558
300.63
300.705
300.786
300.872
300.963
301.059
301.161
301.267
301.38
301.498
301.621
301.75
301.884
302.023
302.168
302.318
302.473
302.633
302.798
302.967
303.141
303.319
303.501
303.688
303.877
304.071
304.267
304.467
304.669
304.873
305.08
305.288
305.499
305.71
305.923
306.138
306.353
306.568
306.784
307
307.217
307.433
307.648
307.863
308.078
308.291
308.504
308.715
308.925
309.134
309.341
309.546
309.75
309.952
310.151
310.349
310.545
310.739
310.93
311.119
311.306
311.491
311.673
311.852
312.03
312.204
312.377
312.546
312.714
300.017
300.051
300.086
300.124
300.164
300.207
300.253
300.302
300.355
300.411
300.471
300.535
300.604
300.677
300.754
300.837
300.924
301.017
301.114
301.217
301.324
301.437
301.555
301.678
301.807
301.94
302.078
302.22
302.368
302.52
302.676
302.836
303.001
303.169
303.34
303.515
303.693
303.873
304.056
304.242
304.429
304.619
304.81
305.002
305.196
305.39
305.586
305.782
305.978
306.175
306.371
306.567
306.763
306.958
307.153
307.347
307.539
307.731
307.921
308.11
308.298
308.484
308.668
308.851
309.031
309.21
309.387
309.562
309.734
309.905
310.073
310.24
310.404
310.565
310.725
310.882
311.036
311.189
311.339
311.487
311.632
300.016
300.048
300.083
300.119
300.158
300.199
300.243
300.29
300.34
300.395
300.453
300.514
300.58
300.651
300.726
300.805
300.889
300.978
301.072
301.171
301.274
301.383
301.496
301.614
301.736
301.864
301.995
302.131
302.272
302.416
302.564
302.716
302.871
303.029
303.191
303.354
303.521
303.689
303.86
304.032
304.206
304.382
304.558
304.735
304.913
305.092
305.271
305.45
305.629
305.807
305.985
306.163
306.34
306.516
306.691
306.865
307.037
307.208
307.378
307.546
307.713
307.878
308.041
308.202
308.361
308.519
308.674
308.827
308.978
309.127
309.274
309.419
309.561
309.702
309.84
309.976
310.11
310.241
310.37
310.497
310.622
300.015
300.047
300.08
300.115
300.152
300.192
300.235
300.281
300.33
300.382
300.438
300.498
300.562
300.631
300.703
300.78
300.862
300.948
301.039
301.135
301.235
301.34
301.449
301.563
301.681
301.804
301.931
302.062
302.196
302.334
302.476
302.62
302.768
302.918
303.071
303.226
303.383
303.542
303.702
303.864
304.027
304.191
304.356
304.521
304.686
304.851
305.017
305.182
305.347
305.511
305.674
305.836
305.998
306.158
306.317
306.475
306.631
306.785
306.938
307.09
307.239
307.387
307.532
307.676
307.818
307.958
308.095
308.231
308.364
308.496
308.625
308.752
308.877
309
309.121
309.239
309.355
309.47
309.582
309.692
309.8
300.015
300.046
300.078
300.113
300.149
300.188
300.23
300.275
300.323
300.375
300.43
300.489
300.552
300.619
300.691
300.766
300.846
300.931
301.02
301.114
301.212
301.315
301.422
301.534
301.65
301.77
301.894
302.022
302.153
302.288
302.425
302.566
302.709
302.855
303.003
303.153
303.304
303.458
303.612
303.768
303.925
304.082
304.239
304.397
304.555
304.713
304.871
305.028
305.184
305.339
305.494
305.648
305.8
305.951
306.101
306.249
306.395
306.54
306.683
306.824
306.963
307.101
307.236
307.37
307.501
307.63
307.757
307.882
308.005
308.126
308.245
308.361
308.476
308.588
308.698
308.806
308.912
309.016
309.118
309.217
309.315
394.779
402.855
409.637
415.535
420.751
425.394
429.525
433.178
436.368
439.093
441.343
443.094
444.312
444.947
444.934
444.184
442.568
439.892
435.831
429.731
419.952
413.191
407.901
403.481
399.64
396.216
393.106
390.241
387.573
385.064
382.688
380.423
378.252
376.162
374.141
372.18
370.272
368.41
366.59
364.806
363.055
361.332
359.636
357.964
356.313
354.682
353.07
351.475
349.899
348.34
346.799
345.278
343.776
342.296
340.838
339.404
337.996
336.615
335.263
333.942
332.653
331.397
330.177
328.992
327.843
326.732
325.659
324.625
323.628
322.67
321.75
320.867
320.021
319.211
318.436
317.696
316.988
316.312
315.667
315.051
314.464
313.902
313.366
312.854
312.365
311.897
311.449
311.02
310.609
310.214
309.835
309.471
309.121
308.783
308.457
308.143
307.84
307.546
307.262
306.987
306.721
306.462
306.211
305.968
305.732
305.502
305.279
305.062
304.852
304.647
304.448
304.255
304.068
303.885
303.709
303.537
303.371
303.209
303.053
302.901
302.755
302.613
302.476
302.344
302.217
302.094
301.976
301.862
301.752
301.648
301.547
301.451
301.358
301.27
301.186
301.106
301.03
300.958
300.889
300.824
300.763
300.705
300.65
300.598
300.55
300.504
300.462
300.422
300.385
300.35
300.318
300.288
300.26
300.235
300.211
300.189
300.17
300.151
300.135
300.12
300.106
390.021
397.061
403.379
409.038
414.116
418.674
422.752
426.372
429.543
432.26
434.511
436.272
437.508
438.173
438.205
437.522
436.013
433.523
429.842
424.705
418.074
412.28
407.366
403.127
399.388
396.027
392.959
390.125
387.478
384.986
382.623
380.368
378.206
376.122
374.106
372.149
370.245
368.387
366.569
364.787
363.038
361.317
359.623
357.951
356.301
354.671
353.059
351.466
349.889
348.331
346.79
345.269
343.767
342.286
340.828
339.394
337.986
336.605
335.253
333.932
332.643
331.388
330.167
328.982
327.834
326.723
325.65
324.616
323.62
322.662
321.742
320.859
320.014
319.204
318.43
317.69
316.982
316.307
315.662
315.047
314.459
313.898
313.363
312.851
312.362
311.894
311.447
311.018
310.607
310.213
309.834
309.47
309.119
308.782
308.456
308.142
307.839
307.545
307.262
306.987
306.72
306.462
306.211
305.968
305.732
305.502
305.279
305.062
304.852
304.647
304.449
304.255
304.068
303.886
303.709
303.537
303.371
303.209
303.053
302.902
302.755
302.613
302.477
302.344
302.217
302.094
301.976
301.862
301.753
301.648
301.547
301.451
301.358
301.27
301.186
301.106
301.03
300.958
300.889
300.824
300.763
300.705
300.65
300.598
300.55
300.504
300.462
300.422
300.385
300.35
300.318
300.288
300.26
300.235
300.211
300.189
300.17
300.151
300.135
300.12
300.106
385.904
391.951
397.644
402.906
407.725
412.11
416.071
419.613
422.734
425.425
427.67
429.444
430.713
431.435
431.554
431.001
429.694
427.53
424.411
420.294
415.405
410.644
406.298
402.384
398.845
395.616
392.639
389.87
387.272
384.817
382.482
380.25
378.105
376.035
374.031
372.085
370.188
368.337
366.524
364.748
363.002
361.285
359.593
357.925
356.277
354.648
353.037
351.444
349.869
348.311
346.77
345.249
343.747
342.266
340.808
339.374
337.966
336.585
335.233
333.912
332.623
331.368
330.147
328.962
327.815
326.704
325.632
324.598
323.603
322.646
321.727
320.845
320
319.191
318.418
317.679
316.972
316.298
315.654
315.039
314.452
313.892