/*--------------------------------*- C++ -*----------------------------------*\
  =========                 |
  \\      /  F ield         | OpenFOAM: The Open Source CFD Toolbox
   \\    /   O peration     | Website:  https://openfoam.org
    \\  /    A nd           | Version:  7
     \\/     M anipulation  |
\*---------------------------------------------------------------------------*/
FoamFile
{
    version     2.0;
    format      ascii;
    class       volVectorField;
    location    "2";
    object      U;
}
// * * * * * * * * * * * * * * * * * * * * * * * * * * * * * * * * * * * * * //

dimensions      [0 1 -1 0 0 0 0];

internalField   nonuniform List<vector> 
12013
(
(0.100277 -7.81834e-05 0)
(0.101432 -0.000146795 0)
(0.10333 -0.000212292 0)
(0.105818 -0.000274242 0)
(0.108857 -0.000333476 0)
(0.112401 -0.000390221 0)
(0.116405 -0.000444444 0)
(0.120824 -0.000496066 0)
(0.125617 -0.000544992 0)
(0.130743 -0.000591161 0)
(0.136163 -0.000634565 0)
(0.141838 -0.000675254 0)
(0.147736 -0.000713341 0)
(0.153823 -0.000748985 0)
(0.160073 -0.000782386 0)
(0.166458 -0.000813767 0)
(0.172958 -0.000843365 0)
(0.179553 -0.00087142 0)
(0.186225 -0.000898162 0)
(0.192962 -0.000923809 0)
(0.199752 -0.000948554 0)
(0.206585 -0.000972569 0)
(0.213452 -0.000995999 0)
(0.220348 -0.00101896 0)
(0.227265 -0.00104154 0)
(0.234199 -0.00106381 0)
(0.241146 -0.0010858 0)
(0.248102 -0.00110754 0)
(0.255064 -0.00112903 0)
(0.262028 -0.00115024 0)
(0.268991 -0.00117116 0)
(0.275949 -0.00119172 0)
(0.282901 -0.00121189 0)
(0.289842 -0.00123159 0)
(0.296769 -0.00125075 0)
(0.30368 -0.00126929 0)
(0.31057 -0.00128713 0)
(0.317437 -0.00130416 0)
(0.324277 -0.00132031 0)
(0.331086 -0.00133546 0)
(0.337862 -0.0013495 0)
(0.344601 -0.00136232 0)
(0.351299 -0.0013738 0)
(0.357953 -0.0013838 0)
(0.364559 -0.00139219 0)
(0.371114 -0.00139882 0)
(0.377616 -0.00140352 0)
(0.384059 -0.00140612 0)
(0.390442 -0.00140643 0)
(0.39676 -0.00140422 0)
(0.403011 -0.00139927 0)
(0.409192 -0.00139132 0)
(0.415298 -0.00138007 0)
(0.421327 -0.00136519 0)
(0.427274 -0.00134632 0)
(0.433137 -0.00132303 0)
(0.438911 -0.00129484 0)
(0.444592 -0.0012612 0)
(0.450175 -0.00122146 0)
(0.455654 -0.00117488 0)
(0.461024 -0.00112058 0)
(0.466276 -0.00105751 0)
(0.471403 -0.000984416 0)
(0.476394 -0.000899788 0)
(0.481236 -0.000801764 0)
(0.485914 -0.000688029 0)
(0.490408 -0.000555664 0)
(0.494695 -0.000400927 0)
(0.498742 -0.00021895 0)
(0.50251 -3.2603e-06 0)
(0.505945 0.000255649 0)
(0.508972 0.000572157 0)
(0.511488 0.000967395 0)
(0.513341 0.00147414 0)
(0.514306 0.00214612 0)
(0.514032 0.00307618 0)
(0.511952 0.00443429 0)
(0.507074 0.00655762 0)
(0.497634 0.0102426 0)
(0.480609 0.0182711 0)
(0.462415 0.0484741 0)
(0.100256 -0.000238693 0)
(0.101406 -0.000449922 0)
(0.103296 -0.000650883 0)
(0.105779 -0.000840758 0)
(0.108811 -0.00102224 0)
(0.11235 -0.00119603 0)
(0.116347 -0.00136202 0)
(0.12076 -0.00151999 0)
(0.125547 -0.00166966 0)
(0.130666 -0.00181084 0)
(0.136078 -0.00194352 0)
(0.141746 -0.00206786 0)
(0.147636 -0.00218422 0)
(0.153715 -0.00229308 0)
(0.159956 -0.00239507 0)
(0.166332 -0.00249086 0)
(0.172822 -0.00258119 0)
(0.179406 -0.00266679 0)
(0.186068 -0.00274837 0)
(0.192794 -0.00282659 0)
(0.199572 -0.00290204 0)
(0.206392 -0.00297525 0)
(0.213247 -0.00304667 0)
(0.220128 -0.00311664 0)
(0.227032 -0.00318544 0)
(0.233951 -0.00325327 0)
(0.240883 -0.00332026 0)
(0.247824 -0.00338646 0)
(0.254769 -0.00345187 0)
(0.261715 -0.00351645 0)
(0.26866 -0.00358009 0)
(0.2756 -0.00364265 0)
(0.282532 -0.00370398 0)
(0.289453 -0.00376388 0)
(0.29636 -0.00382211 0)
(0.303248 -0.00387844 0)
(0.310116 -0.00393261 0)
(0.316959 -0.00398433 0)
(0.323775 -0.00403331 0)
(0.330559 -0.00407923 0)
(0.337308 -0.00412176 0)
(0.344019 -0.00416054 0)
(0.350688 -0.00419521 0)
(0.357311 -0.00422537 0)
(0.363886 -0.00425059 0)
(0.370408 -0.0042704 0)
(0.376874 -0.00428432 0)
(0.383282 -0.0042918 0)
(0.389627 -0.00429225 0)
(0.395905 -0.00428503 0)
(0.402115 -0.00426941 0)
(0.408252 -0.00424459 0)
(0.414314 -0.0042097 0)
(0.420295 -0.00416371 0)
(0.426194 -0.0041055 0)
(0.432006 -0.00403379 0)
(0.437727 -0.0039471 0)
(0.443352 -0.00384374 0)
(0.448878 -0.00372177 0)
(0.454298 -0.0035789 0)
(0.459606 -0.00341245 0)
(0.464796 -0.00321926 0)
(0.469858 -0.00299553 0)
(0.474784 -0.00273666 0)
(0.479561 -0.00243703 0)
(0.484174 -0.00208964 0)
(0.488605 -0.00168571 0)
(0.492833 -0.001214 0)
(0.496827 -0.000659908 0)
(0.500553 -4.1031e-06 0)
(0.503961 0.000781118 0)
(0.506988 0.00173584 0)
(0.50955 0.0029186 0)
(0.511528 0.00441832 0)
(0.512762 0.00637567 0)
(0.513023 0.00902252 0)
(0.511998 0.0127566 0)
(0.509245 0.0182882 0)
(0.504204 0.0269569 0)
(0.496787 0.0413253 0)
(0.494302 0.0658114 0)
(0.100235 -0.000405837 0)
(0.101373 -0.000771923 0)
(0.103247 -0.00111805 0)
(0.105715 -0.00144494 0)
(0.108735 -0.00175731 0)
(0.112261 -0.00205636 0)
(0.116245 -0.00234193 0)
(0.120645 -0.00261365 0)
(0.125418 -0.00287104 0)
(0.130522 -0.0031138 0)
(0.13592 -0.0033419 0)
(0.141572 -0.00355564 0)
(0.147446 -0.0037556 0)
(0.153508 -0.00394266 0)
(0.15973 -0.00411786 0)
(0.166088 -0.00428239 0)
(0.172558 -0.00443751 0)
(0.179121 -0.00458447 0)
(0.185761 -0.0047245 0)
(0.192465 -0.00485873 0)
(0.199219 -0.0049882 0)
(0.206015 -0.00511379 0)
(0.212843 -0.00523627 0)
(0.219698 -0.00535625 0)
(0.226574 -0.0054742 0)
(0.233465 -0.00559046 0)
(0.240367 -0.00570524 0)
(0.247276 -0.00581864 0)
(0.254189 -0.00593066 0)
(0.261102 -0.00604122 0)
(0.268012 -0.00615013 0)
(0.274916 -0.00625716 0)
(0.281811 -0.00636202 0)
(0.288693 -0.00646437 0)
(0.295559 -0.00656383 0)
(0.302406 -0.00665996 0)
(0.30923 -0.00675231 0)
(0.316028 -0.0068404 0)
(0.322797 -0.00692371 0)
(0.329532 -0.0070017 0)
(0.336231 -0.00707378 0)
(0.342889 -0.00713934 0)
(0.349503 -0.00719775 0)
(0.35607 -0.0072483 0)
(0.362586 -0.00729025 0)
(0.369046 -0.00732282 0)
(0.375449 -0.00734514 0)
(0.381789 -0.00735629 0)
(0.388065 -0.00735523 0)
(0.394272 -0.00734086 0)
(0.400406 -0.00731193 0)
(0.406465 -0.00726707 0)
(0.412445 -0.00720476 0)
(0.418343 -0.00712327 0)
(0.424154 -0.00702068 0)
(0.429874 -0.00689477 0)
(0.435501 -0.00674307 0)
(0.441029 -0.00656269 0)
(0.446454 -0.00635033 0)
(0.451771 -0.00610214 0)
(0.456973 -0.00581362 0)
(0.462054 -0.00547946 0)
(0.467007 -0.00509331 0)
(0.471822 -0.00464755 0)
(0.476488 -0.00413288 0)
(0.480993 -0.00353783 0)
(0.485321 -0.00284809 0)
(0.489453 -0.00204546 0)
(0.493365 -0.00110648 0)
(0.497029 -2.97613e-07 0)
(0.500405 0.00131484 0)
(0.503451 0.00289828 0)
(0.506111 0.00483382 0)
(0.508319 0.00724273 0)
(0.509999 0.0103053 0)
(0.511076 0.0142955 0)
(0.511506 0.0196355 0)
(0.511349 0.0269816 0)
(0.510941 0.0373566 0)
(0.511344 0.0522424 0)
(0.516244 0.0726956 0)
(0.100214 -0.00057832 0)
(0.101334 -0.00111218 0)
(0.103185 -0.00161362 0)
(0.105633 -0.00208742 0)
(0.108633 -0.00253996 0)
(0.112139 -0.00297303 0)
(0.116103 -0.00338649 0)
(0.120483 -0.00377979 0)
(0.125235 -0.00415228 0)
(0.130318 -0.00450351 0)
(0.135692 -0.00483346 0)
(0.141321 -0.00514256 0)
(0.147169 -0.00543167 0)
(0.153206 -0.00570204 0)
(0.159401 -0.00595521 0)
(0.165729 -0.00619289 0)
(0.17217 -0.00641689 0)
(0.178702 -0.00662906 0)
(0.185309 -0.00683115 0)
(0.191979 -0.00702481 0)
(0.198698 -0.00721152 0)
(0.205457 -0.0073926 0)
(0.212247 -0.00756912 0)
(0.219063 -0.00774198 0)
(0.225897 -0.00791186 0)
(0.232746 -0.00807925 0)
(0.239604 -0.00824444 0)
(0.246467 -0.00840758 0)
(0.253333 -0.00856866 0)
(0.260197 -0.00872754 0)
(0.267057 -0.00888398 0)
(0.273909 -0.00903762 0)
(0.28075 -0.00918805 0)
(0.287576 -0.00933474 0)
(0.294384 -0.00947714 0)
(0.301171 -0.00961463 0)
(0.307934 -0.00974655 0)
(0.314668 -0.00987218 0)
(0.32137 -0.00999076 0)
(0.328036 -0.0101015 0)
(0.334664 -0.0102036 0)
(0.341248 -0.010296 0)
(0.347786 -0.010378 0)
(0.354273 -0.0104484 0)
(0.360707 -0.0105062 0)
(0.367082 -0.0105502 0)
(0.373397 -0.0105792 0)
(0.379646 -0.0105918 0)
(0.385827 -0.0105866 0)
(0.391935 -0.010562 0)
(0.397968 -0.010516 0)
(0.403922 -0.0104469 0)
(0.409793 -0.0103523 0)
(0.415578 -0.0102298 0)
(0.421272 -0.0100767 0)
(0.426873 -0.00988984 0)
(0.432376 -0.00966562 0)
(0.437778 -0.00940003 0)
(0.443072 -0.00908839 0)
(0.448256 -0.00872532 0)
(0.453323 -0.00830453 0)
(0.458267 -0.00781865 0)
(0.463083 -0.00725895 0)
(0.467761 -0.00661498 0)
(0.472294 -0.00587414 0)
(0.47667 -0.00502102 0)
(0.480879 -0.00403661 0)
(0.484905 -0.00289709 0)
(0.488733 -0.00157218 0)
(0.492344 -2.28672e-05 0)
(0.495713 0.0018009 0)
(0.498821 0.00396757 0)
(0.501647 0.00656946 0)
(0.504176 0.00973206 0)
(0.506411 0.0136271 0)
(0.50839 0.0184892 0)
(0.510233 0.0246328 0)
(0.512203 0.0324615 0)
(0.514817 0.0424423 0)
(0.518989 0.0549511 0)
(0.526291 0.0696299 0)
(0.100194 -0.000756365 0)
(0.101293 -0.00147035 0)
(0.103116 -0.00213772 0)
(0.105537 -0.00276885 0)
(0.10851 -0.0033714 0)
(0.111989 -0.00394778 0)
(0.115927 -0.00449789 0)
(0.120279 -0.00502101 0)
(0.125003 -0.0055163 0)
(0.130057 -0.00598318 0)
(0.135401 -0.00642163 0)
(0.140998 -0.00683224 0)
(0.146813 -0.00721617 0)
(0.152814 -0.00757509 0)
(0.158972 -0.00791103 0)
(0.165263 -0.0082263 0)
(0.171663 -0.00852331 0)
(0.178154 -0.00880451 0)
(0.184719 -0.00907223 0)
(0.191343 -0.00932868 0)
(0.198016 -0.00957582 0)
(0.204726 -0.00981539 0)
(0.211467 -0.0100488 0)
(0.218231 -0.0102773 0)
(0.225012 -0.0105018 0)
(0.231805 -0.0107229 0)
(0.238606 -0.0109409 0)
(0.24541 -0.0111561 0)
(0.252215 -0.0113685 0)
(0.259016 -0.0115779 0)
(0.265811 -0.0117839 0)
(0.272596 -0.011986 0)
(0.279367 -0.0121838 0)
(0.286122 -0.0123764 0)
(0.292856 -0.0125632 0)
(0.299568 -0.0127433 0)
(0.306251 -0.0129158 0)
(0.312905 -0.0130797 0)
(0.319523 -0.0132341 0)
(0.326104 -0.0133778 0)
(0.332642 -0.0135098 0)
(0.339135 -0.0136288 0)
(0.345577 -0.0137335 0)
(0.351967 -0.0138227 0)
(0.358299 -0.0138948 0)
(0.36457 -0.0139483 0)
(0.370776 -0.0139816 0)
(0.376914 -0.0139929 0)
(0.38298 -0.0139802 0)
(0.38897 -0.0139413 0)
(0.39488 -0.0138739 0)
(0.400708 -0.0137754 0)
(0.406449 -0.0136429 0)
(0.4121 -0.0134733 0)
(0.417657 -0.0132628 0)
(0.423117 -0.0130074 0)
(0.428476 -0.0127027 0)
(0.43373 -0.0123432 0)
(0.438875 -0.0119232 0)
(0.443907 -0.0114357 0)
(0.448821 -0.0108728 0)
(0.453612 -0.0102254 0)
(0.458276 -0.00948245 0)
(0.462805 -0.00863132 0)
(0.467195 -0.00765667 0)
(0.471438 -0.0065401 0)
(0.475526 -0.00525927 0)
(0.479452 -0.00378674 0)
(0.483208 -0.00208851 0)
(0.486786 -0.000122176 0)
(0.49018 0.00216445 0)
(0.493389 0.00483781 0)
(0.496424 0.00798312 0)
(0.499309 0.011708 0)
(0.502097 0.0161455 0)
(0.504885 0.0214556 0)
(0.50784 0.0278177 0)
(0.511232 0.0354074 0)
(0.515469 0.044337 0)
(0.521103 0.0545286 0)
(0.528781 0.0654604 0)
(0.100173 -0.000940237 0)
(0.101251 -0.00184624 0)
(0.103042 -0.00269052 0)
(0.10543 -0.00348988 0)
(0.108371 -0.00425286 0)
(0.111817 -0.00498236 0)
(0.115722 -0.00567837 0)
(0.12004 -0.00633998 0)
(0.124728 -0.00696615 0)
(0.129745 -0.00755618 0)
(0.135051 -0.00811008 0)
(0.140608 -0.00862858 0)
(0.146382 -0.00911319 0)
(0.152339 -0.00956602 0)
(0.158453 -0.00998968 0)
(0.164696 -0.0103871 0)
(0.171047 -0.0107612 0)
(0.177486 -0.0111153 0)
(0.183997 -0.0114523 0)
(0.190566 -0.0117748 0)
(0.197181 -0.0120855 0)
(0.203833 -0.0123866 0)
(0.210512 -0.0126798 0)
(0.217212 -0.0129666 0)
(0.223928 -0.0132482 0)
(0.230653 -0.0135253 0)
(0.237384 -0.0137986 0)
(0.244117 -0.0140681 0)
(0.250848 -0.014334 0)
(0.257573 -0.0145958 0)
(0.26429 -0.0148532 0)
(0.270994 -0.0151056 0)
(0.277682 -0.0153522 0)
(0.284352 -0.0155921 0)
(0.290998 -0.0158244 0)
(0.297619 -0.016048 0)
(0.30421 -0.0162618 0)
(0.310767 -0.0164645 0)
(0.317288 -0.0166548 0)
(0.323767 -0.0168314 0)
(0.330201 -0.0169928 0)
(0.336586 -0.0171375 0)
(0.342918 -0.0172638 0)
(0.349194 -0.0173701 0)
(0.355409 -0.0174545 0)
(0.361559 -0.017515 0)
(0.367641 -0.0175496 0)
(0.373651 -0.017556 0)
(0.379586 -0.0175318 0)
(0.385441 -0.0174741 0)
(0.391213 -0.0173802 0)
(0.396898 -0.0172467 0)
(0.402494 -0.0170701 0)
(0.407995 -0.0168465 0)
(0.4134 -0.0165713 0)
(0.418704 -0.0162397 0)
(0.423905 -0.0158461 0)
(0.428998 -0.0153843 0)
(0.433981 -0.014847 0)
(0.43885 -0.0142262 0)
(0.443601 -0.0135126 0)
(0.448232 -0.0126954 0)
(0.452738 -0.0117621 0)
(0.457116 -0.0106984 0)
(0.461362 -0.00948699 0)
(0.465474 -0.0081079 0)
(0.46945 -0.00653714 0)
(0.473287 -0.00474611 0)
(0.476987 -0.00270045 0)
(0.480552 -0.000358992 0)
(0.483991 0.00232569 0)
(0.48732 0.00541011 0)
(0.490569 0.00896228 0)
(0.493785 0.0130605 0)
(0.497041 0.0177904 0)
(0.500446 0.0232386 0)
(0.504152 0.0294787 0)
(0.508367 0.0365467 0)
(0.513346 0.0443995 0)
(0.519374 0.052855 0)
(0.526682 0.0615178 0)
(0.100152 -0.00113024 0)
(0.101211 -0.00223983 0)
(0.102966 -0.00327234 0)
(0.105318 -0.0042512 0)
(0.10822 -0.00518551 0)
(0.111628 -0.0060785 0)
(0.115493 -0.00693015 0)
(0.11977 -0.00773937 0)
(0.124417 -0.00850491 0)
(0.12939 -0.00922595 0)
(0.13465 -0.00990251 0)
(0.14016 -0.0105355 0)
(0.145884 -0.0111269 0)
(0.151789 -0.0116792 0)
(0.157848 -0.0121955 0)
(0.164035 -0.0126796 0)
(0.170327 -0.0131352 0)
(0.176705 -0.013566 0)
(0.183153 -0.0139758 0)
(0.189657 -0.0143678 0)
(0.196204 -0.0147452 0)
(0.202785 -0.0151105 0)
(0.209392 -0.0154662 0)
(0.216017 -0.0158139 0)
(0.222656 -0.0161551 0)
(0.229302 -0.0164908 0)
(0.235952 -0.0168214 0)
(0.242601 -0.0171474 0)
(0.249246 -0.0174686 0)
(0.255883 -0.0177847 0)
(0.262509 -0.0180952 0)
(0.26912 -0.0183993 0)
(0.275713 -0.018696 0)
(0.282284 -0.0189844 0)
(0.28883 -0.0192632 0)
(0.295347 -0.019531 0)
(0.301832 -0.0197864 0)
(0.308281 -0.020028 0)
(0.314689 -0.0202541 0)
(0.321054 -0.020463 0)
(0.32737 -0.0206529 0)
(0.333634 -0.020822 0)
(0.339843 -0.0209682 0)
(0.345991 -0.0210895 0)
(0.352075 -0.0211836 0)
(0.358092 -0.0212481 0)
(0.364037 -0.0212805 0)
(0.369906 -0.021278 0)
(0.375696 -0.0212377 0)
(0.381403 -0.0211562 0)
(0.387024 -0.0210301 0)
(0.392555 -0.0208556 0)
(0.397993 -0.0206283 0)
(0.403334 -0.0203436 0)
(0.408575 -0.0199963 0)
(0.413714 -0.0195807 0)
(0.418747 -0.0190902 0)
(0.423672 -0.0185178 0)
(0.428486 -0.0178553 0)
(0.433186 -0.0170935 0)
(0.437771 -0.0162222 0)
(0.442238 -0.0152295 0)
(0.446586 -0.014102 0)
(0.450814 -0.0128243 0)
(0.454923 -0.0113787 0)
(0.458912 -0.0097446 0)
(0.462784 -0.00789851 0)
(0.466544 -0.00581304 0)
(0.4702 -0.00345662 0)
(0.473763 -0.000793226 0)
(0.477253 0.00221559 0)
(0.480694 0.00561167 0)
(0.484127 0.00944182 0)
(0.487605 0.0137537 0)
(0.4912 0.018591 0)
(0.495006 0.0239853 0)
(0.499139 0.0299448 0)
(0.503731 0.0364381 0)
(0.508924 0.0433736 0)
(0.514839 0.0505794 0)
(0.521527 0.0577942 0)
(0.100131 -0.00132682 0)
(0.101171 -0.00265133 0)
(0.10289 -0.00388368 0)
(0.105201 -0.00505361 0)
(0.108062 -0.00617062 0)
(0.111426 -0.00723792 0)
(0.115246 -0.00825542 0)
(0.119476 -0.00922182 0)
(0.124074 -0.0101356 0)
(0.128997 -0.0109958 0)
(0.134205 -0.0118026 0)
(0.139659 -0.0125569 0)
(0.145325 -0.0132612 0)
(0.15117 -0.0139186 0)
(0.157166 -0.0145329 0)
(0.163287 -0.0151083 0)
(0.169511 -0.0156495 0)
(0.175819 -0.0161609 0)
(0.182193 -0.016647 0)
(0.188621 -0.0171117 0)
(0.19509 -0.0175588 0)
(0.20159 -0.0179914 0)
(0.208114 -0.0184122 0)
(0.214654 -0.0188233 0)
(0.221205 -0.0192265 0)
(0.227761 -0.0196228 0)
(0.234318 -0.0200129 0)
(0.240872 -0.0203972 0)
(0.247419 -0.0207756 0)
(0.253956 -0.0211476 0)
(0.26048 -0.0215127 0)
(0.266986 -0.0218698 0)
(0.273472 -0.0222178 0)
(0.279933 -0.0225555 0)
(0.286367 -0.0228814 0)
(0.292769 -0.0231938 0)
(0.299136 -0.023491 0)
(0.305464 -0.0237712 0)
(0.311749 -0.0240325 0)
(0.317987 -0.0242728 0)
(0.324173 -0.02449 0)
(0.330305 -0.0246818 0)
(0.336378 -0.0248458 0)
(0.342387 -0.0249796 0)
(0.348329 -0.0250804 0)
(0.354201 -0.0251454 0)
(0.359997 -0.0251716 0)
(0.365715 -0.0251557 0)
(0.37135 -0.0250943 0)
(0.376899 -0.0249836 0)
(0.382359 -0.0248194 0)
(0.387726 -0.0245974 0)
(0.392997 -0.0243126 0)
(0.398169 -0.0239598 0)
(0.40324 -0.023533 0)
(0.408206 -0.0230258 0)
(0.413066 -0.022431 0)
(0.417818 -0.0217408 0)
(0.422459 -0.0209462 0)
(0.426989 -0.0200376 0)
(0.431407 -0.0190039 0)
(0.435713 -0.0178329 0)
(0.439907 -0.0165109 0)
(0.443991 -0.0150224 0)
(0.447967 -0.0133501 0)
(0.451841 -0.0114748 0)
(0.455618 -0.00937477 0)
(0.459309 -0.00702602 0)
(0.462926 -0.00440212 0)
(0.466486 -0.00147462 0)
(0.470017 0.00178457 0)
(0.473541 0.00540137 0)
(0.477102 0.00940222 0)
(0.480751 0.0138092 0)
(0.484545 0.0186351 0)
(0.488556 0.0238778 0)
(0.492857 0.0295127 0)
(0.497527 0.0354849 0)
(0.502628 0.041702 0)
(0.5082 0.0480315 0)
(0.514224 0.0543105 0)
(0.100109 -0.0015305 0)
(0.101132 -0.00308115 0)
(0.102815 -0.00452522 0)
(0.105084 -0.00589807 0)
(0.107899 -0.0072095 0)
(0.111215 -0.00846237 0)
(0.114984 -0.00965637 0)
(0.119163 -0.0107899 0)
(0.123706 -0.0118611 0)
(0.128571 -0.012869 0)
(0.133719 -0.0138137 0)
(0.13911 -0.0146964 0)
(0.14471 -0.0155201 0)
(0.150487 -0.0162882 0)
(0.156411 -0.0170055 0)
(0.162457 -0.017677 0)
(0.168604 -0.0183081 0)
(0.174831 -0.0189039 0)
(0.181122 -0.0194698 0)
(0.187464 -0.0200104 0)
(0.193844 -0.0205301 0)
(0.200253 -0.0210327 0)
(0.206683 -0.0215211 0)
(0.213127 -0.0219981 0)
(0.219578 -0.0224654 0)
(0.226033 -0.0229244 0)
(0.232486 -0.023376 0)
(0.238934 -0.0238204 0)
(0.245373 -0.0242576 0)
(0.251799 -0.0246871 0)
(0.258209 -0.025108 0)
(0.264599 -0.0255192 0)
(0.270966 -0.0259194 0)
(0.277307 -0.0263071 0)
(0.283617 -0.0266804 0)
(0.289893 -0.0270375 0)
(0.296131 -0.0273763 0)
(0.302327 -0.0276946 0)
(0.308477 -0.0279902 0)
(0.314577 -0.0282607 0)
(0.320624 -0.0285035 0)
(0.326612 -0.0287159 0)
(0.332539 -0.0288952 0)
(0.338399 -0.0290385 0)
(0.344189 -0.0291426 0)
(0.349905 -0.0292042 0)
(0.355543 -0.0292198 0)
(0.3611 -0.0291858 0)
(0.366571 -0.029098 0)
(0.371954 -0.0289523 0)
(0.377245 -0.0287439 0)
(0.38244 -0.028468 0)
(0.387539 -0.028119 0)
(0.392536 -0.027691 0)
(0.397431 -0.0271778 0)
(0.402222 -0.0265721 0)
(0.406906 -0.0258665 0)
(0.411483 -0.0250524 0)
(0.415951 -0.0241207 0)
(0.420312 -0.0230613 0)
(0.424565 -0.0218632 0)
(0.428713 -0.0205141 0)
(0.432757 -0.0190009 0)
(0.436702 -0.0173089 0)
(0.440553 -0.0154224 0)
(0.444317 -0.0133244 0)
(0.448004 -0.0109964 0)
(0.451627 -0.00841934 0)
(0.455201 -0.00557314 0)
(0.458746 -0.00243784 0)
(0.462292 0.00100558 0)
(0.465857 0.00476867 0)
(0.469481 0.00886061 0)
(0.473204 0.0132851 0)
(0.47707 0.0180362 0)
(0.481125 0.0230944 0)
(0.485413 0.0284235 0)
(0.48997 0.0339674 0)
(0.494819 0.0396496 0)
(0.499958 0.0453763 0)
(0.505349 0.0510489 0)
(0.100087 -0.00174191 0)
(0.101094 -0.00352986 0)
(0.102742 -0.00519779 0)
(0.104966 -0.00678568 0)
(0.107733 -0.00830357 0)
(0.110997 -0.00975364 0)
(0.114712 -0.0111351 0)
(0.118832 -0.0124461 0)
(0.123315 -0.0136843 0)
(0.128116 -0.0148486 0)
(0.133196 -0.015939 0)
(0.138517 -0.0169574 0)
(0.144043 -0.0179068 0)
(0.149742 -0.0187916 0)
(0.155586 -0.0196171 0)
(0.161548 -0.0203892 0)
(0.167607 -0.0211143 0)
(0.173744 -0.0217983 0)
(0.179942 -0.0224474 0)
(0.186187 -0.023067 0)
(0.192468 -0.0236622 0)
(0.198774 -0.0242373 0)
(0.205099 -0.0247958 0)
(0.211436 -0.0253408 0)
(0.217777 -0.0258744 0)
(0.224119 -0.0263981 0)
(0.230458 -0.0269128 0)
(0.236788 -0.027419 0)
(0.243107 -0.0279165 0)
(0.249411 -0.0284047 0)
(0.255696 -0.0288825 0)
(0.261959 -0.0293488 0)
(0.268196 -0.0298018 0)
(0.274405 -0.0302398 0)
(0.28058 -0.0306607 0)
(0.286719 -0.0310623 0)
(0.292817 -0.0314422 0)
(0.298871 -0.0317978 0)
(0.304876 -0.0321265 0)
(0.310828 -0.0324255 0)
(0.316724 -0.0326919 0)
(0.322559 -0.0329226 0)
(0.32833 -0.0331143 0)
(0.334031 -0.0332637 0)
(0.33966 -0.0333673 0)
(0.345212 -0.0334213 0)
(0.350684 -0.0334217 0)
(0.356071 -0.0333644 0)
(0.361371 -0.0332448 0)
(0.366581 -0.0330582 0)
(0.371696 -0.0327995 0)
(0.376715 -0.0324633 0)
(0.381635 -0.0320436 0)
(0.386454 -0.0315341 0)
(0.391171 -0.030928 0)
(0.395783 -0.030218 0)
(0.40029 -0.0293961 0)
(0.404692 -0.0284537 0)
(0.408989 -0.0273816 0)
(0.413183 -0.0261699 0)
(0.417275 -0.0248078 0)
(0.421269 -0.0232841 0)
(0.425168 -0.0215863 0)
(0.428979 -0.0197017 0)
(0.432708 -0.0176168 0)
(0.436366 -0.0153175 0)
(0.439962 -0.0127897 0)
(0.443512 -0.0100193 0)
(0.447032 -0.0069932 0)
(0.45054 -0.00369932 0)
(0.454062 -0.000126803 0)
(0.457622 0.00372691 0)
(0.461242 0.00785723 0)
(0.464954 0.0122564 0)
(0.468788 0.016909 0)
(0.47277 0.0217892 0)
(0.476922 0.0268602 0)
(0.481257 0.0320737 0)
(0.485775 0.0373718 0)
(0.490461 0.0426902 0)
(0.495273 0.04797 0)
(0.100063 -0.00196168 0)
(0.101057 -0.00399816 0)
(0.10267 -0.00590236 0)
(0.104849 -0.00771766 0)
(0.107565 -0.00945432 0)
(0.110774 -0.0111135 0)
(0.11443 -0.0126938 0)
(0.118488 -0.0141927 0)
(0.122903 -0.0156076 0)
(0.127634 -0.0169372 0)
(0.132639 -0.0181815 0)
(0.137882 -0.0193427 0)
(0.143325 -0.0204243 0)
(0.148938 -0.0214315 0)
(0.154691 -0.0223703 0)
(0.16056 -0.0232477 0)
(0.166521 -0.0240708 0)
(0.172557 -0.0248466 0)
(0.17865 -0.0255822 0)
(0.184787 -0.0262838 0)
(0.190958 -0.0269571 0)
(0.197151 -0.0276071 0)
(0.203359 -0.028238 0)
(0.209577 -0.028853 0)
(0.215797 -0.0294548 0)
(0.222014 -0.0300449 0)
(0.228226 -0.0306245 0)
(0.234427 -0.0311939 0)
(0.240615 -0.0317529 0)
(0.246785 -0.0323008 0)
(0.252934 -0.0328365 0)
(0.259058 -0.0333584 0)
(0.265155 -0.0338646 0)
(0.27122 -0.0343531 0)
(0.277249 -0.0348215 0)
(0.28324 -0.0352671 0)
(0.289187 -0.0356873 0)
(0.295088 -0.0360791 0)
(0.300938 -0.0364394 0)
(0.306732 -0.036765 0)
(0.312468 -0.0370526 0)
(0.31814 -0.0372987 0)
(0.323745 -0.0374997 0)
(0.329279 -0.0376517 0)
(0.334738 -0.0377507 0)
(0.340117 -0.0377926 0)
(0.345415 -0.0377729 0)
(0.350626 -0.0376871 0)
(0.355748 -0.0375302 0)
(0.360778 -0.037297 0)
(0.365714 -0.036982 0)
(0.370552 -0.0365794 0)
(0.37529 -0.0360831 0)
(0.379928 -0.0354862 0)
(0.384464 -0.034782 0)
(0.388897 -0.0339627 0)
(0.393228 -0.0330206 0)
(0.397457 -0.0319471 0)
(0.401585 -0.0307334 0)
(0.405614 -0.0293701 0)
(0.409549 -0.0278473 0)
(0.413392 -0.0261548 0)
(0.41715 -0.0242819 0)
(0.42083 -0.0222181 0)
(0.424439 -0.0199524 0)
(0.427989 -0.0174744 0)
(0.43149 -0.0147742 0)
(0.434957 -0.0118428 0)
(0.438404 -0.00867292 0)
(0.44185 -0.00525936 0)
(0.445312 -0.00159901 0)
(0.448819 0.00230696 0)
(0.452375 0.00644537 0)
(0.456006 0.0108021 0)
(0.459729 0.0153577 0)
(0.463558 0.0200866 0)
(0.467499 0.0249562 0)
(0.471554 0.029928 0)
(0.475714 0.0349596 0)
(0.479958 0.0400078 0)
(0.48425 0.0450377 0)
(0.100038 -0.00219046 0)
(0.101021 -0.00448686 0)
(0.102601 -0.00663997 0)
(0.104733 -0.00869531 0)
(0.107396 -0.0106632 0)
(0.110547 -0.0125437 0)
(0.11414 -0.0143343 0)
(0.11813 -0.0160319 0)
(0.122472 -0.0176334 0)
(0.127125 -0.0191372 0)
(0.132048 -0.0205435 0)
(0.137204 -0.0218546 0)
(0.142556 -0.0230749 0)
(0.148072 -0.0242101 0)
(0.153725 -0.0252672 0)
(0.159489 -0.0262542 0)
(0.165342 -0.0271792 0)
(0.171265 -0.0280503 0)
(0.177242 -0.0288753 0)
(0.18326 -0.0296616 0)
(0.189307 -0.0304155 0)
(0.195375 -0.0311427 0)
(0.201455 -0.031848 0)
(0.20754 -0.0325349 0)
(0.213626 -0.0332065 0)
(0.219708 -0.0338646 0)
(0.22578 -0.0345103 0)
(0.23184 -0.0351441 0)
(0.237884 -0.0357657 0)
(0.243908 -0.0363743 0)
(0.249909 -0.0369684 0)
(0.255883 -0.0375464 0)
(0.261827 -0.0381061 0)
(0.267737 -0.0386449 0)
(0.273609 -0.0391603 0)
(0.279441 -0.0396493 0)
(0.285227 -0.0401086 0)
(0.290964 -0.0405351 0)
(0.296647 -0.0409251 0)
(0.302274 -0.0412752 0)
(0.307839 -0.0415814 0)
(0.313339 -0.0418399 0)
(0.31877 -0.0420467 0)
(0.324127 -0.0421973 0)
(0.329408 -0.0422876 0)
(0.334608 -0.0423128 0)
(0.339724 -0.0422681 0)
(0.344753 -0.0421486 0)
(0.349691 -0.0419489 0)
(0.354537 -0.0416636 0)
(0.359288 -0.0412868 0)
(0.363941 -0.0408124 0)
(0.368496 -0.0402341 0)
(0.372951 -0.0395451 0)
(0.377306 -0.0387383 0)
(0.38156 -0.0378065 0)
(0.385715 -0.0367418 0)
(0.389772 -0.0355364 0)
(0.393734 -0.0341818 0)
(0.397602 -0.0326698 0)
(0.401382 -0.0309915 0)
(0.405078 -0.0291383 0)
(0.408697 -0.0271016 0)
(0.412246 -0.024873 0)
(0.415735 -0.0224448 0)
(0.419172 -0.0198099 0)
(0.422569 -0.0169623 0)
(0.425939 -0.0138975 0)
(0.429296 -0.0106132 0)
(0.432653 -0.0071093 0)
(0.436024 -0.0033883 0)
(0.439432 0.000547247 0)
(0.442878 0.00468193 0)
(0.446374 0.00899686 0)
(0.449932 0.0134722 0)
(0.453556 0.0180849 0)
(0.457247 0.0228084 0)
(0.460998 0.0276131 0)
(0.464799 0.0324683 0)
(0.468629 0.0373449 0)
(0.472458 0.0422226 0)
(0.100011 -0.0024289 0)
(0.100985 -0.00499684 0)
(0.102533 -0.00741171 0)
(0.104618 -0.00971992 0)
(0.107227 -0.0119318 0)
(0.110317 -0.0140458 0)
(0.113842 -0.0160583 0)
(0.117758 -0.0179653 0)
(0.122021 -0.0197632 0)
(0.126589 -0.0214502 0)
(0.131422 -0.0230264 0)
(0.136481 -0.0244946 0)
(0.141732 -0.0258597 0)
(0.147142 -0.0271283 0)
(0.152683 -0.0283086 0)
(0.158331 -0.0294093 0)
(0.164063 -0.0304397 0)
(0.169861 -0.0314092 0)
(0.17571 -0.0323265 0)
(0.181595 -0.0331998 0)
(0.187507 -0.0340365 0)
(0.193435 -0.0348429 0)
(0.199373 -0.0356242 0)
(0.205314 -0.0363847 0)
(0.211253 -0.0371276 0)
(0.217185 -0.0378549 0)
(0.223105 -0.038568 0)
(0.229011 -0.0392672 0)
(0.234898 -0.0399521 0)
(0.240763 -0.0406219 0)
(0.246603 -0.0412749 0)
(0.252414 -0.0419091 0)
(0.258193 -0.0425221 0)
(0.263937 -0.0431109 0)
(0.26964 -0.0436727 0)
(0.275301 -0.0442039 0)
(0.280914 -0.0447011 0)
(0.286476 -0.0451605 0)
(0.291984 -0.0455782 0)
(0.297432 -0.0459501 0)
(0.302817 -0.0462721 0)
(0.308135 -0.0465398 0)
(0.313383 -0.0467487 0)
(0.318555 -0.0468941 0)
(0.32365 -0.0469713 0)
(0.328663 -0.0469752 0)
(0.333591 -0.0469007 0)
(0.338431 -0.0467425 0)
(0.343181 -0.046495 0)
(0.347838 -0.0461524 0)
(0.352401 -0.0457087 0)
(0.356867 -0.0451578 0)
(0.361236 -0.0444932 0)
(0.365508 -0.0437083 0)
(0.369681 -0.0427962 0)
(0.373758 -0.0417498 0)
(0.377739 -0.040562 0)
(0.381626 -0.0392254 0)
(0.385422 -0.0377327 0)
(0.389132 -0.0360765 0)
(0.392759 -0.0342497 0)
(0.39631 -0.0322453 0)
(0.39979 -0.0300568 0)
(0.403208 -0.0276784 0)
(0.406571 -0.025105 0)
(0.409889 -0.0223326 0)
(0.413173 -0.0193586 0)
(0.416431 -0.0161823 0)
(0.419677 -0.0128047 0)
(0.422919 -0.00922939 0)
(0.42617 -0.0054622 0)
(0.429436 -0.00150952 0)
(0.432739 0.00262017 0)
(0.436066 0.00690368 0)
(0.439426 0.0113218 0)
(0.44282 0.0158548 0)
(0.446244 0.0204815 0)
(0.44969 0.0251796 0)
(0.453146 0.0299269 0)
(0.456597 0.0347032 0)
(0.460017 0.0394974 0)
(0.0999821 -0.0026776 0)
(0.100948 -0.00552898 0)
(0.102466 -0.00821862 0)
(0.104504 -0.0107927 0)
(0.107055 -0.0132613 0)
(0.110081 -0.015621 0)
(0.113535 -0.017867 0)
(0.117372 -0.0199942 0)
(0.121549 -0.0219982 0)
(0.126024 -0.023877 0)
(0.130757 -0.0256309 0)
(0.135711 -0.0272629 0)
(0.140849 -0.0287787 0)
(0.146141 -0.0301858 0)
(0.151559 -0.0314935 0)
(0.157078 -0.0327116 0)
(0.162676 -0.0338508 0)
(0.168336 -0.0349213 0)
(0.174042 -0.0359333 0)
(0.179781 -0.0368958 0)
(0.185543 -0.037817 0)
(0.191318 -0.0387042 0)
(0.1971 -0.039563 0)
(0.202882 -0.0403984 0)
(0.208659 -0.0412137 0)
(0.214427 -0.0420112 0)
(0.220181 -0.0427925 0)
(0.225919 -0.0435577 0)
(0.231635 -0.0443066 0)
(0.237328 -0.045038 0)
(0.242994 -0.04575 0)
(0.24863 -0.0464403 0)
(0.254231 -0.0471061 0)
(0.259795 -0.0477443 0)
(0.265317 -0.0483514 0)
(0.270795 -0.0489237 0)
(0.276224 -0.0494571 0)
(0.281601 -0.0499474 0)
(0.28692 -0.0503905 0)
(0.29218 -0.0507817 0)
(0.297375 -0.0511164 0)
(0.302502 -0.0513898 0)
(0.307557 -0.0515972 0)
(0.312537 -0.0517334 0)
(0.317438 -0.0517932 0)
(0.322257 -0.0517714 0)
(0.326991 -0.0516626 0)
(0.331637 -0.0514611 0)
(0.336194 -0.0511611 0)
(0.340659 -0.0507568 0)
(0.34503 -0.0502422 0)
(0.349307 -0.049611 0)
(0.353489 -0.048857 0)
(0.357576 -0.0479737 0)
(0.361569 -0.0469546 0)
(0.365468 -0.0457933 0)
(0.369276 -0.0444833 0)
(0.372996 -0.043018 0)
(0.37663 -0.0413913 0)
(0.380182 -0.0395972 0)
(0.383658 -0.0376299 0)
(0.387064 -0.0354845 0)
(0.390404 -0.0331564 0)
(0.393688 -0.030642 0)
(0.396921 -0.0279388 0)
(0.400113 -0.0250453 0)
(0.403271 -0.0219617 0)
(0.406404 -0.0186897 0)
(0.409522 -0.0152328 0)
(0.412631 -0.0115966 0)
(0.415739 -0.00778858 0)
(0.41885 -0.00381754 0)
(0.421978 0.000310094 0)
(0.425115 0.00457684 0)
(0.42826 0.00896218 0)
(0.431412 0.013449 0)
(0.434569 0.0180205 0)
(0.43772 0.0226599 0)
(0.440855 0.0273507 0)
(0.443962 0.0320787 0)
(0.447022 0.0368383 0)
(0.0999515 -0.00293713 0)
(0.100911 -0.00608419 0)
(0.1024 -0.0090617 0)
(0.104389 -0.0119147 0)
(0.106882 -0.0146526 0)
(0.10984 -0.0172704 0)
(0.113217 -0.0197612 0)
(0.116969 -0.0221188 0)
(0.121053 -0.0243384 0)
(0.125427 -0.0264173 0)
(0.13005 -0.0283561 0)
(0.134887 -0.0301582 0)
(0.139901 -0.0318301 0)
(0.145063 -0.0333803 0)
(0.150344 -0.0348191 0)
(0.15572 -0.0361579 0)
(0.16117 -0.0374084 0)
(0.166677 -0.0385823 0)
(0.172226 -0.0396908 0)
(0.177804 -0.040744 0)
(0.1834 -0.0417513 0)
(0.189007 -0.0427203 0)
(0.194617 -0.0436578 0)
(0.200225 -0.0445689 0)
(0.205825 -0.0454574 0)
(0.211414 -0.0463259 0)
(0.216987 -0.0471759 0)
(0.222541 -0.0480077 0)
(0.228073 -0.0488207 0)
(0.233579 -0.0496137 0)
(0.239057 -0.0503845 0)
(0.244502 -0.0511306 0)
(0.249913 -0.0518487 0)
(0.255284 -0.0525354 0)
(0.260613 -0.0531866 0)
(0.265895 -0.0537984 0)
(0.271128 -0.0543662 0)
(0.276307 -0.0548854 0)
(0.281428 -0.0553513 0)
(0.286489 -0.0557589 0)
(0.291484 -0.0561032 0)
(0.29641 -0.0563791 0)
(0.301264 -0.0565813 0)
(0.306043 -0.0567044 0)
(0.310743 -0.0567429 0)
(0.315361 -0.0566914 0)
(0.319896 -0.056544 0)
(0.324343 -0.0562952 0)
(0.328702 -0.0559389 0)
(0.332971 -0.0554694 0)
(0.337149 -0.0548805 0)
(0.341235 -0.0541665 0)
(0.345229 -0.0533211 0)
(0.349132 -0.0523383 0)
(0.352944 -0.0512124 0)
(0.356667 -0.0499373 0)
(0.360303 -0.0485074 0)
(0.363856 -0.0469174 0)
(0.367329 -0.0451622 0)
(0.370725 -0.0432371 0)
(0.37405 -0.0411381 0)
(0.377309 -0.0388618 0)
(0.380509 -0.0364055 0)
(0.383654 -0.0337676 0)
(0.386752 -0.0309476 0)
(0.389809 -0.0279462 0)
(0.392833 -0.0247652 0)
(0.39583 -0.0214083 0)
(0.398806 -0.0178805 0)
(0.401766 -0.0141883 0)
(0.404716 -0.0103401 0)
(0.407657 -0.00634501 0)
(0.41059 -0.00221134 0)
(0.413532 0.00205483 0)
(0.416458 0.00643121 0)
(0.419371 0.0109018 0)
(0.422269 0.0154526 0)
(0.425144 0.0200707 0)
(0.427987 0.0247439 0)
(0.430788 0.0294616 0)
(0.433531 0.0342219 0)
(0.0999188 -0.00320804 0)
(0.100873 -0.00666329 0)