/*--------------------------------*- C++ -*----------------------------------*\
  =========                 |
  \\      /  F ield         | OpenFOAM: The Open Source CFD Toolbox
   \\    /   O peration     | Website:  https://openfoam.org
    \\  /    A nd           | Version:  7
     \\/     M anipulation  |
\*---------------------------------------------------------------------------*/
FoamFile
{
    version     2.0;
    format      ascii;
    class       surfaceScalarField;
    location    "1.27";
    object      phi;
}
// * * * * * * * * * * * * * * * * * * * * * * * * * * * * * * * * * * * * * //

dimensions      [1 0 -1 0 0 0 0];

internalField   nonuniform List<scalar> 
23692
(
1.17212e-05
-8.61854e-08
1.18784e-05
-1.56949e-07
1.20961e-05
-2.17212e-07
1.23632e-05
-2.66394e-07
1.26705e-05
-3.06334e-07
1.301e-05
-3.38465e-07
1.33754e-05
-3.64074e-07
1.37613e-05
-3.84471e-07
1.41638e-05
-4.00916e-07
1.45801e-05
-4.14572e-07
1.50084e-05
-4.26452e-07
1.54478e-05
-4.37383e-07
1.58979e-05
-4.47993e-07
1.63588e-05
-4.58723e-07
1.68309e-05
-4.69844e-07
1.73147e-05
-4.81495e-07
1.78107e-05
-4.93709e-07
1.83195e-05
-5.06452e-07
1.88415e-05
-5.19644e-07
1.93771e-05
-5.33179e-07
1.99263e-05
-5.46942e-07
2.04893e-05
-5.60812e-07
2.10661e-05
-5.74673e-07
2.16566e-05
-5.88414e-07
2.22604e-05
-6.0193e-07
2.28773e-05
-6.15125e-07
2.35068e-05
-6.27908e-07
2.41484e-05
-6.40195e-07
2.48016e-05
-6.51907e-07
2.54655e-05
-6.62973e-07
2.61396e-05
-6.73323e-07
2.6823e-05
-6.82894e-07
2.75148e-05
-6.91626e-07
2.82142e-05
-6.99465e-07
2.89202e-05
-7.06357e-07
2.96318e-05
-7.12254e-07
3.03479e-05
-7.17109e-07
3.10674e-05
-7.2088e-07
3.17893e-05
-7.23527e-07
3.25123e-05
-7.25009e-07
3.32352e-05
-7.25292e-07
3.39568e-05
-7.24339e-07
3.46758e-05
-7.22117e-07
3.53909e-05
-7.18595e-07
3.61009e-05
-7.1374e-07
3.68042e-05
-7.07522e-07
3.74996e-05
-6.99909e-07
3.81855e-05
-6.90869e-07
3.88606e-05
-6.80372e-07
3.95234e-05
-6.68382e-07
4.01724e-05
-6.54866e-07
4.08059e-05
-6.39786e-07
4.14225e-05
-6.23101e-07
4.20204e-05
-6.04765e-07
4.25979e-05
-5.84729e-07
4.31535e-05
-5.62935e-07
4.36851e-05
-5.39319e-07
4.4191e-05
-5.13805e-07
4.46692e-05
-4.86304e-07
4.51176e-05
-4.5671e-07
4.5534e-05
-4.24897e-07
4.5916e-05
-3.90713e-07
4.62612e-05
-3.53967e-07
4.65667e-05
-3.14429e-07
4.68296e-05
-2.71803e-07
4.70463e-05
-2.2572e-07
4.72129e-05
-1.75704e-07
4.7325e-05
-1.21138e-07
4.73772e-05
-6.12201e-08
4.73631e-05
5.1113e-09
4.72746e-05
7.95881e-08
4.71011e-05
1.64743e-07
4.68282e-05
2.6428e-07
4.64358e-05
3.83884e-07
4.58949e-05
5.32715e-07
4.51607e-05
7.26178e-07
4.41616e-05
9.91373e-07
4.27755e-05
1.37862e-06
4.07774e-05
1.991e-06
3.76923e-05
3.07838e-06
5.6134e-06
3.20726e-05
1.25402e-05
-1.76613e-07
1.27079e-05
-3.24299e-07
1.29405e-05
-4.4927e-07
1.32259e-05
-5.51037e-07
1.35543e-05
-6.33699e-07
1.39171e-05
-7.00179e-07
1.43075e-05
-7.53142e-07
1.47199e-05
-7.95304e-07
1.515e-05
-8.29277e-07
1.55947e-05
-8.57469e-07
1.60523e-05
-8.81977e-07
1.65215e-05
-9.04515e-07
1.70022e-05
-9.26387e-07
1.74943e-05
-9.48502e-07
1.79983e-05
-9.71424e-07
1.85147e-05
-9.95438e-07
1.90441e-05
-1.02062e-06
1.95871e-05
-1.04689e-06
2.0144e-05
-1.07409e-06
2.07153e-05
-1.10199e-06
2.13012e-05
-1.13037e-06
2.19017e-05
-1.15896e-06
2.25169e-05
-1.18753e-06
2.31465e-05
-1.21585e-06
2.37903e-05
-1.2437e-06
2.4448e-05
-1.27088e-06
2.5119e-05
-1.29721e-06
2.58028e-05
-1.32251e-06
2.64988e-05
-1.34661e-06
2.72063e-05
-1.36938e-06
2.79244e-05
-1.39066e-06
2.86524e-05
-1.41033e-06
2.93893e-05
-1.42825e-06
3.0134e-05
-1.44433e-06
3.08857e-05
-1.45845e-06
3.16433e-05
-1.4705e-06
3.24055e-05
-1.48039e-06
3.31712e-05
-1.48804e-06
3.39393e-05
-1.49336e-06
3.47084e-05
-1.49627e-06
3.54772e-05
-1.4967e-06
3.62445e-05
-1.49456e-06
3.70089e-05
-1.4898e-06
3.77689e-05
-1.48235e-06
3.85233e-05
-1.47214e-06
3.92704e-05
-1.45911e-06
4.00088e-05
-1.44319e-06
4.0737e-05
-1.42432e-06
4.14535e-05
-1.40244e-06
4.21566e-05
-1.37747e-06
4.28447e-05
-1.34935e-06
4.35162e-05
-1.31799e-06
4.41694e-05
-1.28332e-06
4.48026e-05
-1.24524e-06
4.54139e-05
-1.20366e-06
4.60014e-05
-1.15845e-06
4.65634e-05
-1.10949e-06
4.70978e-05
-1.05662e-06
4.76025e-05
-9.99674e-07
4.80753e-05
-9.38429e-07
4.85139e-05
-8.72638e-07
4.89159e-05
-8.01994e-07
4.92787e-05
-7.26124e-07
4.95993e-05
-6.44566e-07
4.98747e-05
-5.56744e-07
5.01012e-05
-4.61929e-07
5.0275e-05
-3.59188e-07
5.03915e-05
-2.4732e-07
5.04454e-05
-1.24751e-07
5.04303e-05
1.06056e-08
5.03385e-05
1.61905e-07
5.01602e-05
3.33643e-07
4.98829e-05
5.32314e-07
4.94902e-05
7.67514e-07
4.89602e-05
1.05389e-06
4.82634e-05
1.4144e-06
4.73607e-05
1.88583e-06
4.62031e-05
2.5282e-06
4.47435e-05
3.44299e-06
4.30142e-05
4.80051e-06
6.78134e-06
4.18394e-05
1.34162e-05
-2.71093e-07
1.35945e-05
-5.02312e-07
1.38423e-05
-6.96421e-07
1.41466e-05
-8.54574e-07
1.44969e-05
-9.82949e-07
1.48841e-05
-1.08613e-06
1.53007e-05
-1.16829e-06
1.57407e-05
-1.23364e-06
1.61995e-05
-1.28625e-06
1.66738e-05
-1.32986e-06
1.71617e-05
-1.36773e-06
1.7662e-05
-1.40253e-06
1.81743e-05
-1.43627e-06
1.86987e-05
-1.47038e-06
1.92356e-05
-1.50573e-06
1.97855e-05
-1.54276e-06
2.03492e-05
-1.5816e-06
2.09271e-05
-1.62212e-06
2.15198e-05
-1.66408e-06
2.21276e-05
-1.70712e-06
2.27508e-05
-1.75089e-06
2.33894e-05
-1.79499e-06
2.40433e-05
-1.83904e-06
2.47125e-05
-1.8827e-06
2.53967e-05
-1.92563e-06
2.60953e-05
-1.96751e-06
2.6808e-05
-2.00805e-06
2.75341e-05
-2.04699e-06
2.8273e-05
-2.08408e-06
2.90238e-05
-2.11907e-06
2.97857e-05
-2.15176e-06
3.05579e-05
-2.18193e-06
3.13393e-05
-2.2094e-06
3.21289e-05
-2.23399e-06
3.29256e-05
-2.25553e-06
3.37282e-05
-2.27386e-06
3.45355e-05
-2.28884e-06
3.53462e-05
-2.30033e-06
3.61592e-05
-2.3082e-06
3.69729e-05
-2.31233e-06
3.77861e-05
-2.3126e-06
3.85973e-05
-2.3089e-06
3.94051e-05
-2.30111e-06
4.0208e-05
-2.28915e-06
4.10044e-05
-2.27291e-06
4.17928e-05
-2.2523e-06
4.25716e-05
-2.2272e-06
4.33392e-05
-2.19754e-06
4.4094e-05
-2.1632e-06
4.48342e-05
-2.12408e-06
4.55581e-05
-2.08008e-06
4.62641e-05
-2.03107e-06
4.69502e-05
-1.97695e-06
4.76147e-05
-1.91756e-06
4.82556e-05
-1.85275e-06
4.88711e-05
-1.78237e-06
4.9459e-05
-1.70621e-06
5.00174e-05
-1.62404e-06
5.0544e-05
-1.53561e-06
5.10367e-05
-1.44061e-06
5.1493e-05
-1.33866e-06
5.19104e-05
-1.22933e-06
5.22863e-05
-1.11207e-06
5.26178e-05
-9.86227e-07
5.29018e-05
-8.50965e-07
5.31348e-05
-7.05254e-07
5.3313e-05
-5.47779e-07
5.34322e-05
-3.76858e-07
5.34875e-05
-1.90306e-07
5.34731e-05
1.47075e-08
5.33826e-05
2.42236e-07
5.32085e-05
4.9774e-07
5.2942e-05
7.88926e-07
5.25733e-05
1.12653e-06
5.2092e-05
1.5257e-06
5.14894e-05
2.00789e-06
5.07631e-05
2.60327e-06
4.99298e-05
3.35296e-06
4.90553e-05
4.30923e-06
4.8328e-05
5.52008e-06
6.94391e-06
4.81581e-05
1.43532e-05
-3.6975e-07
1.45423e-05
-6.91009e-07
1.48055e-05
-9.59019e-07
1.51294e-05
-1.17761e-06
1.55025e-05
-1.35491e-06
1.5915e-05
-1.4973e-06
1.63588e-05
-1.61059e-06
1.68276e-05
-1.70062e-06
1.73163e-05
-1.77301e-06
1.78215e-05
-1.83292e-06
1.83409e-05
-1.88487e-06
1.88733e-05
-1.93253e-06
1.94183e-05
-1.9787e-06
1.9976e-05
-2.02535e-06
2.05467e-05
-2.07369e-06
2.11311e-05
-2.12434e-06
2.17299e-05
-2.17745e-06
2.23435e-05
-2.23288e-06
2.29726e-05
-2.29027e-06
2.36175e-05
-2.34915e-06
2.42784e-05
-2.40901e-06
2.49555e-05
-2.46932e-06
2.56487e-05
-2.52956e-06
2.63577e-05
-2.58924e-06
2.70823e-05
-2.64789e-06
2.78221e-05
-2.70508e-06
2.85764e-05
-2.76042e-06
2.93447e-05
-2.81354e-06
3.01262e-05
-2.86408e-06
3.09201e-05
-2.91172e-06
3.17254e-05
-2.95617e-06
3.25413e-05
-2.99714e-06
3.33665e-05
-3.03438e-06
3.42001e-05
-3.06763e-06
3.50408e-05
-3.09667e-06
3.58874e-05
-3.12127e-06
3.67386e-05
-3.14125e-06
3.75931e-05
-3.15641e-06
3.84494e-05
-3.16657e-06
3.93062e-05
-3.17157e-06
4.01619e-05
-3.17123e-06
4.10151e-05
-3.16542e-06
4.18642e-05
-3.15399e-06
4.27077e-05
-3.13679e-06
4.35438e-05
-3.1137e-06
4.4371e-05
-3.08457e-06
4.51875e-05
-3.04928e-06
4.59917e-05
-3.0077e-06
4.67818e-05
-2.95969e-06
4.7556e-05
-2.90511e-06
4.83125e-05
-2.84382e-06
4.90495e-05
-2.77567e-06
4.9765e-05
-2.7005e-06
5.04572e-05
-2.61812e-06
5.11241e-05
-2.52834e-06
5.17636e-05
-2.43094e-06
5.23737e-05
-2.32567e-06
5.29522e-05
-2.21224e-06
5.3497e-05
-2.09032e-06
5.40058e-05
-1.95952e-06
5.44761e-05
-1.81938e-06
5.49055e-05
-1.66933e-06
5.52914e-05
-1.50872e-06
5.56311e-05
-1.33672e-06
5.59215e-05
-1.15233e-06
5.61595e-05
-9.54303e-07
5.63418e-05
-7.41086e-07
5.64645e-05
-5.10706e-07
5.65239e-05
-2.6065e-07
5.65154e-05
1.21955e-08
5.64347e-05
3.12129e-07
5.62773e-05
6.44365e-07
5.60395e-05
1.01619e-06
5.57188e-05
1.43693e-06
5.53159e-05
1.91852e-06
5.48382e-05
2.47576e-06
5.43058e-05
3.12611e-06
5.37618e-05
3.8878e-06
5.32878e-05
4.7745e-06
5.30187e-05
5.78085e-06
6.84442e-06
5.31102e-05
1.53558e-05
-4.72767e-07
1.55557e-05
-8.90508e-07
1.58348e-05
-1.23742e-06
1.61788e-05
-1.52073e-06
1.65754e-05
-1.75036e-06
1.70142e-05
-1.93462e-06
1.74863e-05
-2.0811e-06
1.7985e-05
-2.19736e-06
1.85047e-05
-2.29069e-06
1.90419e-05
-2.3678e-06
1.9594e-05
-2.43451e-06
2.01597e-05
-2.49561e-06
2.07384e-05
-2.55472e-06
2.13303e-05
-2.61439e-06
2.19358e-05
-2.67621e-06
2.25555e-05
-2.74099e-06
2.31901e-05
-2.80892e-06
2.38401e-05
-2.87982e-06
2.45062e-05
-2.95324e-06
2.51887e-05
-3.02857e-06
2.58878e-05
-3.10515e-06
2.66037e-05
-3.18228e-06
2.73363e-05
-3.2593e-06
2.80853e-05
-3.33558e-06
2.88505e-05
-3.41051e-06
2.96313e-05
-3.48354e-06
3.04271e-05
-3.55415e-06
3.12373e-05
-3.62186e-06
3.20611e-05
-3.68623e-06
3.28975e-05
-3.74683e-06
3.37456e-05
-3.80329e-06
3.46044e-05
-3.85524e-06
3.54727e-05
-3.90234e-06
3.63493e-05
-3.94428e-06
3.72329e-05
-3.98076e-06
3.81223e-05
-4.01151e-06
3.90161e-05
-4.03627e-06
3.99127e-05
-4.05479e-06
4.08108e-05
-4.06684e-06
4.17089e-05
-4.07221e-06
4.26053e-05
-4.0707e-06
4.34984e-05
-4.06211e-06
4.43867e-05
-4.04625e-06
4.52684e-05
-4.02296e-06
4.61418e-05
-3.99205e-06
4.70051e-05
-3.95337e-06
4.78567e-05
-3.90674e-06
4.86946e-05
-3.852e-06
4.95171e-05
-3.78899e-06
5.03222e-05
-3.71753e-06
5.11081e-05
-3.63745e-06
5.18729e-05
-3.54857e-06
5.26145e-05
-3.45069e-06
5.33311e-05
-3.34359e-06
5.40205e-05
-3.22704e-06
5.46807e-05
-3.10079e-06
5.53095e-05
-2.96454e-06
5.59049e-05
-2.81795e-06
5.64647e-05
-2.66065e-06
5.69865e-05
-2.49218e-06
5.74681e-05
-2.31203e-06
5.7907e-05
-2.11957e-06
5.83009e-05
-1.91405e-06
5.86472e-05
-1.6946e-06
5.89433e-05
-1.46012e-06
5.91865e-05
-1.20929e-06
5.93741e-05
-9.40495e-07
5.95034e-05
-6.51734e-07
5.95715e-05
-3.4053e-07
5.95759e-05
-3.93952e-09
5.95146e-05
3.61809e-07
5.93868e-05
7.60773e-07
5.91931e-05
1.19858e-06
5.89373e-05
1.68169e-06
5.86278e-05
2.2173e-06
5.82803e-05
2.81277e-06
5.79219e-05
3.47438e-06
5.7595e-05
4.20486e-06
5.7361e-05
4.9991e-06
5.72962e-05
5.83663e-06
6.66809e-06
5.7464e-05
1.64284e-05
-5.8037e-07
1.66393e-05
-1.10099e-06
1.69347e-05
-1.53203e-06
1.72994e-05
-1.88449e-06
1.77204e-05
-2.17005e-06
1.81863e-05
-2.399e-06
1.86878e-05
-2.58081e-06
1.92173e-05
-2.72493e-06
1.97693e-05
-2.84041e-06
2.03395e-05
-2.93559e-06
2.09254e-05
-3.01774e-06
2.15254e-05
-3.0928e-06
2.21389e-05
-3.1653e-06
2.2766e-05
-3.23841e-06
2.34071e-05
-3.31412e-06
2.40628e-05
-3.39344e-06
2.47338e-05
-3.47665e-06
2.54208e-05
-3.56351e-06
2.61244e-05
-3.65345e-06
2.68448e-05
-3.74575e-06
2.75825e-05
-3.83956e-06
2.83374e-05
-3.93404e-06
2.91095e-05
-4.02835e-06
2.98985e-05
-4.12171e-06
3.07041e-05
-4.21337e-06
3.15257e-05
-4.30264e-06
3.23627e-05
-4.38889e-06
3.32144e-05
-4.47151e-06
3.40799e-05
-4.54996e-06
3.49582e-05
-4.62372e-06
3.58483e-05
-4.69231e-06
3.67491e-05
-4.75529e-06
3.76594e-05
-4.81224e-06
3.85779e-05
-4.86278e-06
3.95032e-05
-4.90653e-06
4.04339e-05
-4.94316e-06
4.13687e-05
-4.97234e-06
4.23059e-05
-4.99378e-06
4.3244e-05
-5.00721e-06
4.41813e-05
-5.01235e-06
4.51163e-05
-5.00895e-06
4.60472e-05
-4.99678e-06
4.69723e-05
-4.97562e-06
4.78899e-05
-4.94524e-06
4.8798e-05
-4.90545e-06
4.96949e-05
-4.85604e-06
5.05787e-05
-4.79682e-06
5.14475e-05
-4.72759e-06
5.22994e-05
-4.64816e-06
5.31324e-05
-4.55833e-06
5.39447e-05
-4.45789e-06
5.47341e-05
-4.34665e-06
5.54987e-05
-4.22437e-06
5.62364e-05
-4.09082e-06
5.69452e-05
-3.94574e-06
5.76229e-05
-3.78885e-06
5.82676e-05
-3.61983e-06
5.8877e-05
-3.43834e-06
5.9449e-05
-3.24395e-06
5.99814e-05
-3.03621e-06
6.04722e-05
-2.81458e-06
6.0919e-05
-2.57843e-06
6.13198e-05
-2.32703e-06
6.16724e-05
-2.05949e-06
6.19745e-05
-1.77477e-06
6.22244e-05
-1.47165e-06
6.24199e-05
-1.14864e-06
6.25596e-05
-8.03974e-07
6.26421e-05
-4.35569e-07
6.26667e-05
-4.10292e-08
6.2634e-05
3.82145e-07
6.2546e-05
8.36604e-07
6.2407e-05
1.32562e-06
6.22244e-05
1.85246e-06
6.20104e-05
2.41985e-06
6.17826e-05
3.0293e-06
6.15663e-05
3.67986e-06
6.13942e-05
4.36649e-06
6.13055e-05
5.07774e-06
6.13395e-05
5.79298e-06
6.47942e-06
6.15189e-05
1.75761e-05
-6.92811e-07
1.77982e-05
-1.32268e-06
1.81102e-05
-1.84323e-06
1.84962e-05
-2.26945e-06
1.89422e-05
-2.6147e-06
1.94361e-05
-2.89127e-06
1.99679e-05
-3.11068e-06
2.05294e-05
-3.28433e-06
2.11146e-05
-3.42319e-06
2.1719e-05
-3.53734e-06
2.23396e-05
-3.63557e-06
2.29748e-05
-3.72507e-06
2.3624e-05
-3.81133e-06
2.42871e-05
-3.89822e-06
2.49645e-05
-3.98814e-06
2.56569e-05
-4.08234e-06
2.6365e-05
-4.18117e-06
2.70894e-05
-4.28436e-06
2.78308e-05
-4.39123e-06
2.85895e-05
-4.5009e-06
2.93657e-05
-4.61237e-06
3.01597e-05
-4.7246e-06
3.09712e-05
-4.8366e-06
3.18e-05
-4.94742e-06
3.26457e-05
-5.05615e-06
3.35078e-05
-5.16196e-06
3.43854e-05
-5.26409e-06
3.52779e-05
-5.36182e-06
3.61844e-05
-5.45449e-06
3.71037e-05
-5.54148e-06
3.80348e-05
-5.62221e-06
3.89765e-05
-5.69615e-06
3.99275e-05
-5.76281e-06
4.08864e-05
-5.82171e-06
4.18518e-05
-5.87242e-06
4.28223e-05
-5.91454e-06
4.37963e-05
-5.94768e-06
4.47721e-05
-5.97149e-06
4.57481e-05
-5.98564e-06
4.67227e-05
-5.98981e-06
4.7694e-05
-5.9837e-06
4.86603e-05
-5.96704e-06
4.96197e-05
-5.93956e-06
5.05704e-05
-5.90102e-06
5.15106e-05
-5.85117e-06
5.24382e-05
-5.78979e-06
5.33513e-05
-5.71664e-06
5.4248e-05
-5.63151e-06
5.51263e-05
-5.53418e-06
5.59842e-05
-5.42443e-06
5.68196e-05
-5.30205e-06
5.76306e-05
-5.1668e-06
5.8415e-05
-5.01846e-06
5.91708e-05
-4.85677e-06
5.9896e-05
-4.68147e-06
6.05884e-05
-4.49228e-06
6.12461e-05
-4.28888e-06
6.1867e-05
-4.07093e-06
6.24491e-05
-3.83803e-06
6.29904e-05
-3.58976e-06
6.34888e-05
-3.32562e-06
6.39426e-05
-3.04504e-06
6.435e-05
-2.74736e-06
6.47092e-05
-2.43183e-06
6.50187e-05
-2.09759e-06
6.52774e-05
-1.74364e-06
6.54842e-05
-1.36885e-06
6.56388e-05
-9.71902e-07
6.57412e-05
-5.51371e-07
6.57927e-05
-1.05745e-07
6.57955e-05
3.66129e-07
6.5754e-05
8.65194e-07
6.56743e-05
1.39249e-06
6.55657e-05
1.94851e-06
6.54406e-05
2.53269e-06
6.53152e-05
3.14284e-06
6.5209e-05
3.77442e-06
6.51446e-05
4.41973e-06
6.51445e-05
5.06707e-06
6.52268e-05
5.70032e-06
6.2996e-06
6.53967e-05
1.88039e-05
-8.1035e-07
1.90376e-05
-1.55582e-06
1.93666e-05
-2.17143e-06
1.97744e-05
-2.67612e-06
2.02461e-05
-3.08493e-06
2.07687e-05
-3.41219e-06
2.13316e-05
-3.67153e-06
2.19261e-05
-3.87645e-06
2.25454e-05
-4.03994e-06
2.31848e-05
-4.17395e-06
2.38411e-05
-4.28886e-06
2.45125e-05
-4.39322e-06
2.51981e-05
-4.49356e-06
2.58978e-05
-4.59446e-06
2.66122e-05
-4.69882e-06
2.73417e-05
-4.80814e-06
2.80872e-05
-4.92284e-06
2.88493e-05
-5.04262e-06
2.96286e-05
-5.16671e-06
3.04255e-05
-5.29405e-06
3.12403e-05
-5.42347e-06
3.20731e-05
-5.55375e-06
3.29238e-05
-5.68372e-06
3.37919e-05
-5.81224e-06
3.46772e-05
-5.93825e-06
3.5579e-05
-6.06079e-06
3.64965e-05
-6.17893e-06
3.74288e-05
-6.29183e-06
3.83751e-05
-6.39872e-06
3.93343e-05
-6.49888e-06
4.0305e-05
-6.59162e-06
4.12861e-05
-6.67632e-06
4.22762e-05
-6.75241e-06
4.32739e-05
-6.81932e-06
4.42776e-05
-6.87656e-06
4.52858e-05
-6.92366e-06
4.62968e-05
-6.96015e-06
4.7309e-05
-6.98564e-06
4.83206e-05
-6.99974e-06
4.93298e-05
-7.00208e-06
5.03348e-05
-6.99232e-06
5.13337e-05
-6.97015e-06
5.23247e-05
-6.93526e-06
5.33057e-05
-6.88736e-06
5.42748e-05
-6.8262e-06
5.523e-05
-6.75151e-06
5.61693e-05
-6.66303e-06
5.70908e-05
-6.56055e-06
5.79922e-05
-6.44381e-06
5.88716e-05
-6.3126e-06
5.9727e-05
-6.16668e-06
6.05562e-05
-6.00583e-06
6.13573e-05
-5.82982e-06
6.21282e-05
-5.6384e-06
6.28669e-05
-5.43134e-06
6.35713e-05
-5.20836e-06
6.42396e-05
-4.96919e-06
6.48697e-05
-4.71353e-06
6.546e-05
-4.44106e-06
6.60086e-05
-4.15142e-06
6.65138e-05
-3.84421e-06
6.69742e-05
-3.519e-06
6.73884e-05
-3.17532e-06
6.77552e-05
-2.81264e-06
6.80739e-05
-2.43038e-06
6.8344e-05
-2.02792e-06
6.85655e-05
-1.6046e-06
6.87392e-05
-1.15975e-06
6.88663e-05
-6.92718e-07
6.89495e-05
-2.02999e-07
6.89923e-05
3.09352e-07
6.9e-05
8.43669e-07
6.89798e-05
1.39919e-06
6.89405e-05
1.97443e-06
6.88933e-05
2.56683e-06
6.88511e-05
3.17239e-06
6.88277e-05
3.78544e-06
6.88372e-05
4.39829e-06
6.88915e-05
5.00127e-06
6.89977e-05
5.58306e-06
6.13215e-06
6.91546e-05
2.01176e-05
-9.33236e-07
2.0363e-05
-1.80064e-06
2.07094e-05
-2.51699e-06
2.11395e-05
-3.10494e-06
2.16374e-05
-3.5813e-06
2.21894e-05
-3.96238e-06
2.27841e-05
-4.26405e-06
2.34122e-05
-4.50203e-06
2.40664e-05
-4.69142e-06
2.47416e-05
-4.84613e-06
2.54342e-05
-4.9783e-06
2.61423e-05
-5.09789e-06
2.68649e-05
-5.21252e-06
2.76018e-05
-5.32759e-06
2.83534e-05
-5.44651e-06
2.91203e-05
-5.57104e-06
2.99033e-05
-5.70174e-06
3.07031e-05
-5.83826e-06
3.15202e-05
-5.97972e-06
3.23551e-05
-6.1249e-06
3.32081e-05
-6.27244e-06
3.40793e-05
-6.42094e-06
3.49683e-05
-6.56901e-06
3.58751e-05
-6.71535e-06
3.6799e-05
-6.85874e-06
3.77394e-05
-6.99802e-06
3.86955e-05
-7.13215e-06
3.96664e-05
-7.26016e-06
4.06511e-05
-7.38114e-06
4.16484e-05
-7.49426e-06
4.2657e-05
-7.59875e-06
4.36756e-05
-7.69387e-06
4.47027e-05
-7.77896e-06
4.57369e-05
-7.85339e-06
4.67765e-05
-7.91659e-06
4.782e-05
-7.968e-06
4.88655e-05
-8.00712e-06
4.99113e-05
-8.03347e-06
5.09556e-05
-8.04663e-06
5.19965e-05
-8.04616e-06
5.30321e-05
-8.03171e-06
5.40604e-05
-8.00289e-06
5.50795e-05
-7.95939e-06
5.60874e-05
-7.90088e-06
5.7082e-05
-7.82706e-06
5.80614e-05
-7.73767e-06
5.90233e-05
-7.63244e-06
5.99658e-05
-7.51112e-06
6.08868e-05
-7.37347e-06
6.17843e-05
-7.21927e-06
6.26561e-05
-7.04829e-06
6.35002e-05
-6.86032e-06
6.43146e-05
-6.65515e-06
6.50974e-05
-6.43258e-06
6.58466e-05
-6.19239e-06
6.65603e-05
-5.9344e-06
6.72367e-05
-5.65837e-06
6.78741e-05
-5.36412e-06
6.84709e-05
-5.0514e-06
6.90257e-05
-4.72002e-06
6.9537e-05
-4.36973e-06
7.00039e-05
-4.00032e-06
7.04255e-05
-3.61155e-06
7.08013e-05
-3.2032e-06
7.11311e-05
-2.77509e-06
7.14152e-05
-2.32705e-06
7.16545e-05
-1.85899e-06
7.18506e-05
-1.37092e-06
7.20059e-05
-8.63021e-07
7.21236e-05
-3.35697e-07
7.22081e-05
2.10093e-07
7.22647e-05
7.72427e-07
7.23003e-05
1.34924e-06
7.23228e-05
1.93783e-06
7.2341e-05
2.53472e-06
7.23645e-05
3.13544e-06
7.24024e-05
3.73445e-06
7.24628e-05
4.32522e-06
7.25513e-05
4.90047e-06
7.267e-05
5.45262e-06
5.97528e-06
7.28155e-05
2.15231e-05
-1.06169e-06
2.17804e-05
-2.05734e-06
2.21445e-05
-2.88019e-06
2.25971e-05
-3.55625e-06
2.31217e-05
-4.10418e-06
2.37036e-05
-4.54228e-06
2.43306e-05
-4.88872e-06
2.49927e-05
-5.16154e-06
2.56823e-05
-5.37808e-06
2.63937e-05
-5.55434e-06
2.71232e-05
-5.70428e-06
2.78684e-05
-5.83937e-06
2.86282e-05
-5.96844e-06
2.94023e-05
-6.09772e-06
3.01912e-05
-6.23119e-06
3.09954e-05
-6.37094e-06
3.18157e-05
-6.51762e-06
3.26527e-05
-6.67088e-06
3.35072e-05
-6.82973e-06
3.43795e-05
-6.99278e-06
3.52698e-05
-7.15847e-06
3.61783e-05
-7.32519e-06
3.71048e-05
-7.49136e-06
3.80488e-05
-7.65549e-06
3.90099e-05
-7.81616e-06
3.99874e-05
-7.97207e-06
4.09804e-05
-8.12202e-06
4.1988e-05
-8.2649e-06
4.3009e-05
-8.39967e-06
4.40422e-05
-8.5254e-06
4.50863e-05
-8.64119e-06
4.61399e-05
-8.74623e-06
4.72014e-05
-8.83976e-06
4.82693e-05
-8.92106e-06
4.93418e-05
-8.98948e-06
5.04174e-05
-9.04441e-06
5.14941e-05
-9.08528e-06
5.25701e-05
-9.11155e-06
5.36435e-05
-9.12274e-06
5.47124e-05
-9.11839e-06
5.57749e-05
-9.09807e-06
5.68288e-05
-9.06139e-06
5.78722e-05
-9.00799e-06
5.89029e-05
-8.93753e-06
5.9919e-05
-8.84969e-06
6.09183e-05
-8.74419e-06
6.18988e-05
-8.62075e-06
6.28583e-05
-8.47913e-06
6.37948e-05
-8.31909e-06
6.47062e-05
-8.14044e-06
6.55906e-05
-7.94296e-06
6.64458e-05
-7.72649e-06
6.727e-05
-7.49086e-06
6.80613e-05
-7.23592e-06
6.88179e-05
-6.96154e-06
6.95381e-05
-6.6676e-06
7.02202e-05
-6.354e-06
7.08629e-05
-6.02066e-06
7.14647e-05
-5.66751e-06
7.20245e-05
-5.29452e-06
7.25415e-05
-4.90169e-06
7.3015e-05
-4.48904e-06
7.34447e-05
-4.05667e-06
7.38305e-05
-3.60471e-06
7.41731e-05
-3.13341e-06
7.44732e-05
-2.64311e-06
7.47326e-05
-2.13428e-06
7.49534e-05
-1.60762e-06
7.51385e-05
-1.06404e-06
7.52918e-05
-5.04732e-07
7.54172e-05
6.89827e-08
7.55198e-05
6.54396e-07
7.56056e-05
1.24824e-06
7.56811e-05
1.84741e-06
7.57529e-05
2.44827e-06
7.58275e-05
3.04655e-06
7.59106e-05
3.63746e-06
7.60066e-05
4.21583e-06
7.61176e-05
4.7764e-06
7.62435e-05
5.31423e-06
5.82593e-06
7.63808e-05
2.30267e-05
-1.19588e-06
2.3296e-05
-2.32607e-06
2.36781e-05
-3.2612e-06
2.41534e-05
-4.03023e-06
2.47048e-05
-4.65376e-06
2.53167e-05
-5.15208e-06
2.59762e-05
-5.54573e-06
2.66727e-05
-5.85516e-06
2.73978e-05
-6.10008e-06
2.81456e-05
-6.29866e-06
2.89118e-05
-6.46681e-06
2.9694e-05
-6.6176e-06
3.04908e-05
-6.76113e-06
3.1302e-05
-6.90455e-06
3.21278e-05
-7.05245e-06
3.29687e-05
-7.20725e-06
3.38256e-05
-7.36976e-06
3.46991e-05
-7.53961e-06
3.55898e-05
-7.71571e-06
3.64983e-05
-7.89648e-06
3.74247e-05
-8.08017e-06
3.8369e-05
-8.26496e-06
3.93311e-05
-8.44905e-06
4.03106e-05
-8.63074e-06
4.13069e-05
-8.80844e-06
4.23193e-05
-8.98068e-06
4.33468e-05
-9.14609e-06
4.43884e-05
-9.30342e-06
4.5443e-05
-9.45152e-06
4.65092e-05
-9.58931e-06
4.75857e-05
-9.7158e-06
4.8671e-05
-9.83008e-06
4.97634e-05
-9.9313e-06
5.08613e-05
-1.00187e-05
5.1963e-05
-1.00914e-05
5.30667e-05
-1.01489e-05
5.41705e-05
-1.01905e-05
5.52725e-05
-1.02156e-05
5.63707e-05
-1.02237e-05
5.74632e-05
-1.02142e-05
5.85479e-05
-1.01868e-05
5.96227e-05
-1.0141e-05
6.06856e-05
-1.00763e-05
6.17344e-05
-9.99251e-06
6.27671e-05
-9.88923e-06
6.37816e-05
-9.76619e-06
6.47758e-05
-9.62312e-06
6.57475e-05
-9.45978e-06
6.66948e-05
-9.27598e-06
6.76157e-05
-9.07153e-06
6.85082e-05
-8.84629e-06
6.93703e-05
-8.60013e-06
7.02003e-05
-8.33296e-06
7.09964e-05
-8.04472e-06
7.17571e-05
-7.73538e-06
7.24807e-05
-7.40494e-06
7.31659e-05
-7.05345e-06
7.38116e-05
-6.68099e-06
7.44167e-05
-6.2877e-06
7.49805e-05
-5.87376e-06
7.55025e-05
-5.43944e-06
7.59825e-05
-4.98506e-06
7.64206e-05
-4.51106e-06
7.68174e-05
-4.01796e-06
7.71737e-05
-3.50644e-06
7.74912e-05
-2.97731e-06
7.77718e-05
-2.43159e-06
7.80179e-05
-1.8705e-06
7.82326e-05
-1.29554e-06
7.84197e-05
-7.08447e-07
7.85833e-05
-1.1107e-07
7.87276e-05
4.938e-07
7.88574e-05
1.1024e-06
7.89776e-05
1.71151e-06
7.90928e-05
2.31764e-06
7.92073e-05
2.91704e-06
7.93243e-05
3.50577e-06
7.94461e-05
4.07988e-06
7.95731e-05
4.63563e-06
7.97043e-05
5.16982e-06
5.68079e-06
7.98367e-05
2.46352e-05
-1.33595e-06
2.49167e-05
-2.60686e-06
2.53166e-05
-3.66003e-06
2.58147e-05
-4.52685e-06
2.63928e-05
-5.22996e-06
2.70347e-05
-5.79165e-06
2.77265e-05
-6.23489e-06
2.8457e-05
-6.58263e-06
2.92174e-05
-6.85708e-06
3.00011e-05
-7.07868e-06
3.08036e-05
-7.26538e-06
3.16223e-05
-7.43197e-06
3.24555e-05
-7.58986e-06
3.33028e-05
-7.74722e-06
3.41645e-05
-7.90927e-06
3.5041e-05
-8.07882e-06
3.59332e-05
-8.25684e-06
3.68417e-05
-8.44297e-06
3.77671e-05
-8.63598e-06
3.87099e-05
-8.83415e-06
3.96703e-05
-9.03551e-06
4.06483e-05
-9.238e-06
4.16437e-05
-9.43962e-06
4.2656e-05
-9.63846e-06
4.36847e-05
-9.83273e-06
4.47289e-05
-1.00208e-05
4.57877e-05
-1.02011e-05
4.68599e-05
-1.03723e-05
4.79444e-05
-1.0533e-05
4.90398e-05
-1.06821e-05
5.01447e-05
-1.08185e-05
5.12573e-05
-1.09412e-05
5.23762e-05
-1.10491e-05
5.34996e-05
-1.11415e-05
5.46257e-05
-1.12176e-05
5.57526e-05
-1.12765e-05
5.68784e-05
-1.13177e-05
5.80012e-05
-1.13404e-05
5.91188e-05
-1.13441e-05
6.02294e-05
-1.13282e-05
6.13307e-05
-1.12923e-05
6.24208e-05
-1.12359e-05
6.34975e-05
-1.11586e-05
6.45587e-05
-1.10601e-05
6.56023e-05
-1.09399e-05
6.66262e-05
-1.0798e-05
6.76284e-05
-1.06339e-05
6.86069e-05
-1.04475e-05
6.95596e-05
-1.02387e-05
7.04846e-05
-1.00073e-05
7.13801e-05
-9.75318e-06
7.22444e-05
-9.47639e-06
7.30756e-05
-9.1769e-06
7.38724e-05
-8.85476e-06
7.46333e-05
-8.51008e-06
7.53569e-05
-8.143e-06
7.60423e-05
-7.75375e-06
7.66886e-05
-7.34262e-06
7.7295e-05
-6.90996e-06
7.78613e-05
-6.45622e-06
7.83873e-05
-5.98195e-06
7.88731e-05
-5.48778e-06
7.93195e-05
-4.97449e-06
7.97272e-05
-4.443e-06
8.00977e-05
-3.89436e-06
8.04327e-05
-3.32981e-06
8.07343e-05
-2.7508e-06
8.10052e-05
-2.15897e-06
8.12483e-05
-1.5562e-06
8.1467e-05
-9.44597e-07
8.16651e-05
-3.26449e-07
8.18461e-05
2.95731e-07
8.20135e-05
9.18257e-07
8.21706e-05
1.53789e-06
8.23207e-05
2.15138e-06
8.24664e-05
2.75556e-06
8.26095e-05
3.34728e-06
8.27509e-05
3.92356e-06
8.28903e-05
4.4817e-06
8.30266e-05
5.01959e-06
5.53661e-06
8.31574e-05
2.6356e-05
-1.48192e-06
2.66494e-05
-2.89965e-06
2.70671e-05
-4.07648e-06
2.75876e-05
-5.04581e-06
2.8192e-05
-5.83234e-06
2.88633e-05
-6.46045e-06
2.95868e-05
-6.95554e-06
3.03506e-05
-7.3432e-06
3.11454e-05
-7.64821e-06
3.1964e-05
-7.89342e-06
3.28018e-05
-8.09889e-06
3.36556e-05
-8.28123e-06
3.45238e-05
-8.45326e-06
3.54059e-05
-8.6242e-06
3.63018e-05
-8.79996e-06
3.72121e-05
-8.98379e-06
3.81375e-05
-9.17681e-06
3.90788e-05
-9.37869e-06
4.00364e-05
-9.5881e-06
4.1011e-05
-9.80313e-06
4.20025e-05
-1.00216e-05
4.30111e-05
-1.02412e-05
4.40364e-05
-1.04597e-05
4.50781e-05
-1.06751e-05
4.61354e-05
-1.08852e-05
4.72074e-05
-1.10883e-05
4.82932e-05
-1.12828e-05
4.93917e-05
-1.14669e-05
5.05014e-05
-1.16394e-05
5.16211e-05
-1.17988e-05
5.27491e-05
-1.19441e-05
5.38839e-05
-1.2074e-05
5.50237e-05
-1.21876e-05
5.61668e-05
-1.22839e-05
5.73113e-05
-1.2362e-05
5.84553e-05
-1.24211e-05
5.95968e-05
-1.24605e-05
6.07339e-05
-1.24794e-05
6.18645e-05
-1.24773e-05
6.29864e-05
-1.24536e-05
6.40977e-05
-1.24078e-05
6.51963e-05
-1.23394e-05
6.628e-05
-1.2248e-05
6.73467e-05
-1.21333e-05
6.83944e-05
-1.19949e-05
6.94211e-05
-1.18327e-05
7.04247e-05
-1.16464e-05
7.14034e-05
-1.14358e-05
7.23552e-05
-1.12008e-05
7.32783e-05
-1.09415e-05
7.4171e-05
-1.06577e-05
7.50318e-05
-1.03497e-05
7.58592e-05
-1.00174e-05
7.66518e-05
-9.66118e-06
7.74085e-05
-9.28118e-06
7.81282e-05
-8.87777e-06
7.88103e-05
-8.45136e-06
7.94541e-05
-8.00248e-06
8.00594e-05
-7.53171e-06
8.0626e-05
-7.03978e-06
8.11543e-05
-6.5275e-06
8.16448e-05
-5.99584e-06
8.20984e-05
-5.44589e-06
8.25162e-05
-4.87889e-06
8.28999e-05
-4.29625e-06
8.32513e-05
-3.69955e-06
8.35727e-05
-3.09054e-06
8.38666e-05
-2.47118e-06
8.41357e-05
-1.8436e-06
8.43831e-05
-1.21013e-06
8.46117e-05
-5.73159e-07
8.48243e-05
6.54039e-08
8.50228e-05
7.02167e-07
8.52101e-05
1.33338e-06
8.53883e-05
1.95634e-06
8.55589e-05
2.56849e-06
8.57228e-05
3.16731e-06
8.58802e-05
3.75051e-06
8.60308e-05
4.3161e-06
8.61731e-05
4.86264e-06
5.39013e-06
8.63056e-05
2.81966e-05
-1.63377e-06
2.85019e-05
-3.20421e-06
2.89368e-05
-4.5101e-06
2.94791e-05
-5.58646e-06
3.0109e-05
-6.46006e-06
3.08086e-05
-7.15741e-06
3.15626e-05
-7.70644e-06
3.23583e-05
-8.13546e-06
3.31859e-05
-8.4719e-06
3.40379e-05
-8.74114e-06
3.4909e-05
-8.96546e-06
3.5796e-05
-9.16334e-06
3.6697e-05
-9.34912e-06
3.76114e-05
-9.5331e-06
3.8539e-05
-9.72196e-06
3.94803e-05
-9.91938e-06
4.04361e-05
-1.01267e-05
4.1407e-05
-1.03436e-05
4.23936e-05
-1.05686e-05
4.33962e-05
-1.07998e-05
4.44151e-05
-1.10345e-05
4.54502e-05
-1.12704e-05
4.65011e-05
-1.1505e-05
4.75675e-05
-1.17359e-05
4.86485e-05
-1.1961e-05
4.97432e-05
-1.21782e-05
5.08507e-05
-1.23856e-05
5.19696e-05
-1.25816e-05
5.30987e-05
-1.27646e-05
5.42364e-05
-1.29332e-05
5.53812e-05
-1.30861e-05
5.65314e-05
-1.3222e-05
5.76853e-05
-1.33398e-05
5.8841e-05
-1.34386e-05
5.99967e-05
-1.35173e-05
6.11503e-05
-1.35751e-05
6.23e-05
-1.36112e-05
6.34436e-05
-1.36248e-05
6.45792e-05
-1.36154e-05
6.57046e-05
-1.35824e-05
6.68178e-05
-1.35251e-05
6.79168e-05
-1.34433e-05
6.89994e-05
-1.33364e-05
7.00636e-05
-1.32041e-05
7.11075e-05
-1.30462e-05
7.2129e-05
-1.28625e-05
7.31263e-05
-1.26527e-05
7.40976e-05
-1.24169e-05
7.50412e-05
-1.2155e-05
7.59553e-05
-1.18671e-05
7.68386e-05
-1.15532e-05
7.76895e-05
-1.12136e-05
7.85069e-05
-1.08485e-05
7.92898e-05
-1.04583e-05
8.00371e-05
-1.00434e-05
8.07483e-05
-9.60446e-06
8.14228e-05
-9.14197e-06
8.20604e-05
-8.65671e-06
8.26611e-05
-8.14954e-06
8.32252e-05
-7.62142e-06
8.37533e-05
-7.07345e-06
8.42461e-05
-6.50688e-06
8.47047e-05
-5.92306e-06
8.51307e-05
-5.32352e-06
8.55255e-05
-4.70993e-06
8.5891e-05
-4.08412e-06
8.62295e-05
-3.44805e-06
8.65432e-05
-2.80383e-06
8.68343e-05
-2.1537e-06
8.71054e-05
-1.50002e-06
8.73587e-05
-8.4515e-07
8.75969e-05
-1.91214e-07
8.78215e-05
4.59336e-07
8.8034e-05
1.10299e-06
8.82356e-05
1.73726e-06
8.84272e-05
2.35987e-06
8.8609e-05
2.9688e-06
8.87811e-05
3.56223e-06
8.89429e-05
4.13865e-06
8.90934e-05
4.69703e-06
5.23772e-06
8.92313e-05
3.01655e-05
-1.79134e-06
3.04822e-05
-3.52009e-06
3.09335e-05
-4.96013e-06
3.14966e-05
-6.14771e-06
3.21506e-05
-7.11172e-06
3.28769e-05
-7.88087e-06
3.36594e-05
-8.48568e-06
3.44849e-05
-8.95725e-06
3.53429e-05
-9.32578e-06
3.62256e-05
-9.61925e-06
3.71274e-05
-9.86228e-06
3.80446e-05
-1.00753e-05
3.89753e-05
-1.02742e-05
3.99185e-05
-1.04705e-05
4.08743e-05
-1.06717e-05
4.1843e-05
-1.08818e-05
4.28251e-05
-1.11025e-05
4.38214e-05
-1.13334e-05
4.48324e-05
-1.15731e-05
4.58584e-05
-1.18192e-05
4.68996e-05
-1.20692e-05
4.79558e-05
-1.23203e-05
4.90268e-05
-1.25698e-05
5.0112e-05
-1.2815e-05
5.12105e-05
-1.30538e-05
5.23215e-05
-1.32837e-05
5.34438e-05
-1.35028e-05
5.45762e-05
-1.37093e-05
5.57172e-05
-1.39014e-05
5.68654e-05
-1.40776e-05
5.80191e-05
-1.42366e-05
5.91766e-05
-1.43769e-05
6.03362e-05
-1.44973e-05
6.14959e-05
-1.45969e-05
6.26539e-05
-1.46746e-05
6.38082e-05
-1.47294e-05
6.49569e-05
-1.47606e-05
6.60978e-05
-1.47673e-05
6.7229e-05
-1.4749e-05
6.83485e-05
-1.4705e-05
6.94541e-05
-1.46348e-05
7.05439e-05
-1.4538e-05
7.1616e-05
-1.44141e-05
7.26683e-05
-1.4263e-05
7.3699e-05
-1.40843e-05
7.47062e-05
-1.3878e-05
7.56882e-05
-1.36439e-05
7.66434e-05
-1.33821e-05
7.75702e-05
-1.30926e-05
7.84672e-05
-1.27757e-05
7.93331e-05
-1.24315e-05
8.01668e-05
-1.20604e-05
8.09672e-05
-1.16629e-05
8.17337e-05
-1.12394e-05
8.24655e-05