/*--------------------------------*- C++ -*----------------------------------*\
  =========                 |
  \\      /  F ield         | OpenFOAM: The Open Source CFD Toolbox
   \\    /   O peration     | Website:  https://openfoam.org
    \\  /    A nd           | Version:  7
     \\/     M anipulation  |
\*---------------------------------------------------------------------------*/
FoamFile
{
    version     2.0;
    format      ascii;
    class       volScalarField;
    location    "9.78";
    object      T;
}
// * * * * * * * * * * * * * * * * * * * * * * * * * * * * * * * * * * * * * //

dimensions      [0 0 0 1 0 0 0];

internalField   nonuniform List<scalar> 
12013
(
300.145
300.439
300.741
301.046
301.353
301.659
301.963
302.263
302.557
302.845
303.126
303.398
303.662
303.917
304.162
304.399
304.626
304.844
305.054
305.256
305.449
305.634
305.813
305.984
306.149
306.308
306.46
306.608
306.75
306.888
307.022
307.152
307.279
307.403
307.525
307.645
307.765
307.884
308.004
308.126
308.25
308.377
308.51
308.649
308.796
308.952
309.12
309.301
309.498
309.713
309.95
310.211
310.501
310.822
311.179
311.577
312.021
312.516
313.069
313.685
314.373
315.141
315.996
316.949
318.01
319.19
320.503
321.962
323.584
325.387
327.391
329.621
332.105
334.876
337.976
341.458
345.393
349.877
355.058
361.18
368.707
300.145
300.44
300.741
301.046
301.353
301.66
301.964
302.264
302.559
302.847
303.128
303.4
303.664
303.919
304.165
304.401
304.628
304.847
305.057
305.258
305.452
305.637
305.816
305.987
306.152
306.31
306.463
306.611
306.753
306.891
307.025
307.155
307.282
307.406
307.528
307.648
307.767
307.887
308.007
308.128
308.252
308.38
308.513
308.651
308.798
308.954
309.122
309.302
309.499
309.714
309.951
310.212
310.501
310.822
311.178
311.576
312.019
312.513
313.065
313.68
314.367
315.133
315.986
316.936
317.994
319.171
320.479
321.933
323.548
325.342
327.336
329.551
332.016
334.762
337.828
341.262
345.122
349.488
354.46
360.163
366.71
300.145
300.44
300.742
301.047
301.355
301.662
301.966
302.267
302.562
302.85
303.131
303.404
303.668
303.923
304.169
304.406
304.634
304.852
305.062
305.264
305.458
305.643
305.822
305.993
306.158
306.317
306.47
306.617
306.76
306.898
307.031
307.161
307.288
307.412
307.534
307.654
307.774
307.893
308.013
308.134
308.258
308.386
308.518
308.657
308.803
308.959
309.126
309.306
309.503
309.717
309.953
310.214
310.502
310.822
311.177
311.573
312.015
312.507
313.056
313.669
314.353
315.115
315.963
316.908
317.959
319.128
320.427
321.868
323.469
325.244
327.214
329.399
331.824
334.518
337.512
340.845
344.56
348.706
353.331
358.464
364.068
300.146
300.441
300.743
301.049
301.357
301.665
301.97
302.271
302.567
302.856
303.137
303.411
303.675
303.931
304.177
304.414
304.642
304.861
305.072
305.274
305.467
305.654
305.832
306.004
306.169
306.328
306.481
306.628
306.771
306.909
307.043
307.173
307.299
307.423
307.545
307.665
307.785
307.904
308.023
308.145
308.268
308.395
308.527
308.666
308.812
308.967
309.133
309.313
309.509
309.723
309.957
310.217
310.503
310.821
311.175
311.569
312.008
312.497
313.043
313.651
314.329
315.085
315.926
316.862
317.903
319.058
320.341
321.763
323.339
325.085
327.016
329.153
331.516
334.128
337.015
340.201
343.714
347.577
351.797
356.359
361.191
300.146
300.442
300.745
301.052
301.361
301.669
301.975
302.277
302.574
302.864
303.146
303.42
303.686
303.942
304.189
304.427
304.655
304.875
305.086
305.288
305.482
305.669
305.848
306.02
306.185
306.344
306.497
306.645
306.787
306.925
307.059
307.189
307.316
307.44
307.561
307.681
307.8
307.919
308.039
308.16
308.283
308.41
308.541
308.679
308.824
308.979
309.144
309.323
309.518
309.73
309.964
310.221
310.506
310.821
311.172
311.563
311.998
312.483
313.023
313.625
314.296
315.042
315.873
316.796
317.821
318.958
320.217
321.612
323.154
324.857
326.736
328.806
331.085
333.59
336.337
339.341
342.616
346.163
349.974
354.014
358.218
300.146
300.444
300.748
301.056
301.366
301.676
301.983
302.286
302.584
302.875
303.158
303.433
303.7
303.957
304.205
304.444
304.673
304.893
305.105
305.308
305.502
305.689
305.869
306.041
306.207
306.366
306.519
306.667
306.81
306.948
307.082
307.212
307.338
307.462
307.584
307.703
307.822
307.941
308.06
308.18
308.303
308.429
308.56
308.697
308.842
308.995
309.16
309.337
309.53
309.741
309.972
310.227
310.509
310.822
311.169
311.555
311.985
312.463
312.996
313.59
314.25
314.985
315.801
316.706
317.711
318.822
320.052
321.41
322.907
324.555
326.367
328.354
330.529
332.904
335.487
338.287
341.304
344.532
347.951
351.528
355.212
300.147
300.446
300.752
301.061
301.373
301.684
301.993
302.298
302.597
302.889
303.174
303.451
303.719
303.977
304.226
304.466
304.697
304.918
305.13
305.334
305.529
305.717
305.897
306.07
306.236
306.396
306.549
306.697
306.84
306.978
307.112
307.242
307.369
307.492
307.613
307.733
307.852
307.97
308.088
308.208
308.33
308.456
308.586
308.722
308.865
309.017
309.18
309.356
309.547
309.755
309.984
310.236
310.514
310.823
311.165
311.545
311.968
312.439
312.962
313.544
314.192
314.911
315.708
316.592
317.57
318.65
319.842
321.154
322.596
324.178
325.908
327.797
329.852
332.079
334.484
337.067
339.822
342.739
345.796
348.965
352.207
300.148
300.449
300.756
301.068
301.382
301.695
302.006
302.313
302.614
302.909
303.195
303.474
303.743
304.003
304.254
304.495
304.727
304.949
305.163
305.368
305.564
305.753
305.933
306.107
306.274
306.434
306.588
306.736
306.879
307.018
307.151
307.281
307.408
307.531
307.652
307.771
307.889
308.007
308.125
308.244
308.365
308.49
308.619
308.754
308.895
309.046
309.207
309.381
309.569
309.775
310
310.248
310.522
310.825
311.161
311.534
311.948
312.409
312.921
313.489
314.12
314.82
315.594
316.451
317.397
318.439
319.585
320.843
322.221
323.725
325.363
327.141
329.063
331.133
333.35
335.712
338.211
340.834
343.561
346.37
349.229
300.149
300.452
300.762
301.077
301.393
301.709
302.022
302.332
302.635
302.933
303.222
303.503
303.774
304.036
304.289
304.532
304.765
304.99
305.205
305.411
305.608
305.798
305.98
306.154
306.321
306.482
306.637
306.786
306.929
307.067
307.201
307.331
307.457
307.581
307.701
307.82
307.938
308.055
308.172
308.29
308.41
308.534
308.661
308.794
308.934
309.083
309.242
309.413
309.598
309.8
310.021
310.264
310.532
310.829
311.157
311.521
311.925
312.374
312.872
313.423
314.035
314.711
315.459
316.283
317.191
318.189
319.283
320.479
321.783
323.201
324.737
326.395
328.177
330.083
332.111
334.256
336.509
338.858
341.287
343.775
346.3
300.151
300.457
300.77
301.087
301.407
301.726
302.042
302.355
302.662
302.962
303.255
303.538
303.813
304.077
304.333
304.578
304.813
305.04
305.256
305.464
305.663
305.854
306.037
306.213
306.381
306.543
306.698
306.847
306.991
307.13
307.264
307.393
307.52
307.642
307.763
307.881
307.998
308.114
308.23
308.348
308.467
308.588
308.714
308.846
308.984
309.13
309.286
309.453
309.635
309.833
310.049
310.286
310.548
310.836
311.156
311.509
311.901
312.335
312.816
313.348
313.937
314.586
315.302
316.09
316.955
317.902
318.937
320.064
321.288
322.612
324.04
325.573
327.211
328.952
330.794
332.73
334.752
336.849
339.006
341.209
343.44
300.152
300.462
300.779
301.1
301.424
301.747
302.067
302.384
302.695
302.999
303.295
303.582
303.86
304.128
304.386
304.634
304.872
305.101
305.32
305.53
305.731
305.924
306.109
306.286
306.455
306.618
306.774
306.924
307.068
307.207
307.341
307.471
307.596
307.719
307.839
307.956
308.073
308.188
308.303
308.419
308.536
308.657
308.781
308.91
309.045
309.188
309.341
309.505
309.682
309.875
310.085
310.315
310.569
310.849
311.158
311.499
311.876
312.294
312.756
313.265
313.828
314.447
315.128
315.874
316.691
317.583
318.554
319.607
320.745
321.971
323.286
324.691
326.185
327.765
329.427
331.165
332.972
334.837
336.75
338.698
340.668
300.155
300.468
300.79
301.116
301.444
301.772
302.098
302.419
302.735
303.044
303.344
303.636
303.917
304.189
304.451
304.703
304.944
305.176
305.398
305.611
305.814
306.009
306.196
306.374
306.545
306.709
306.866
307.017
307.161
307.301
307.435
307.565
307.691
307.813
307.932
308.049
308.164
308.278
308.392
308.506
308.622
308.74
308.862
308.989
309.121
309.261
309.409
309.569
309.741
309.928
310.131
310.354
310.599
310.868
311.165
311.492
311.854
312.253
312.693
313.177
313.71
314.296
314.938
315.64
316.405
317.237
318.14
319.115
320.164
321.29
322.492
323.77
325.122
326.546
328.037
329.589
331.197
332.851
334.544
336.264
338.002
300.157
300.476
300.803
301.135
301.469
301.803
302.134
302.462
302.783
303.098
303.403
303.7
303.987
304.264
304.53
304.786
305.032
305.267
305.493
305.708
305.915
306.112
306.301
306.482
306.655
306.82
306.978
307.13
307.275
307.415
307.549
307.679
307.805
307.927
308.045
308.161
308.275
308.388
308.5
308.613
308.727
308.843
308.962
309.085
309.214
309.35
309.494
309.649
309.815
309.995
310.191
310.405
310.64
310.898
311.181
311.493
311.836
312.215
312.631
313.088
313.589
314.139
314.739
315.393
316.103
316.873
317.705
318.6
319.56
320.585
321.675
322.829
324.044
325.319
326.649
328.03
329.455
330.918
332.412
333.928
335.459
300.16
300.486
300.819
301.158
301.499
301.84
302.178
302.513
302.841
303.162
303.474
303.777
304.07
304.353
304.625
304.886
305.136
305.376
305.606
305.826
306.036
306.237
306.428
306.611
306.786
306.953
307.113
307.266
307.412
307.553
307.687
307.817
307.942
308.064
308.182
308.297
308.41
308.521
308.631
308.742
308.854
308.967
309.083
309.203
309.328
309.46
309.599
309.748
309.907
310.08
310.268
310.472
310.695
310.94
311.209
311.504
311.828
312.184
312.574
313.002
313.47
313.98
314.537
315.141
315.795
316.501
317.261
318.076
318.947
319.873
320.854
321.888
322.974
324.11
325.29
326.512
327.771
329.06
330.375
331.709
333.056
300.164
300.497
300.839
301.185
301.535
301.884
302.231
302.573
302.91
303.239
303.559
303.87
304.17
304.459
304.738
305.005
305.262
305.507
305.742
305.967
306.181
306.385
306.581
306.767
306.944
307.113
307.275
307.429
307.576
307.717
307.852
307.982
308.107
308.228
308.345
308.459
308.57
308.68
308.789
308.897
309.006
309.116
309.229
309.345
309.466
309.593
309.726
309.869
310.022
310.186
310.364
310.558
310.769
311
311.253
311.53
311.833
312.165
312.529
312.925
313.358
313.829
314.34
314.893
315.491
316.133
316.822
317.558
318.341
319.171
320.048
320.97
321.934
322.94
323.982
325.059
326.167
327.3
328.454
329.625
330.807
300.169
300.511
300.861
301.218
301.577
301.936
302.293
302.645
302.992
303.33
303.66
303.979
304.288
304.586
304.872
305.147
305.411
305.663
305.904
306.134
306.353
306.562
306.761
306.951
307.131
307.303
307.467
307.623
307.771
307.913
308.049
308.178
308.303
308.423
308.539
308.652
308.762
308.87
308.976
309.082
309.188
309.295
309.404
309.516
309.632
309.753
309.881
310.017
310.162
310.317
310.486
310.668
310.866
311.083
311.319
311.576
311.858
312.165
312.501
312.866
313.262
313.693
314.158
314.661
315.201
315.781
316.4
317.06
317.759
318.499
319.277
320.093
320.945
321.83
322.747
323.693
324.663
325.656
326.666
327.691
328.725
300.174
300.527
300.888
301.256
301.627
301.998
302.366
302.731
303.088
303.438
303.778
304.109
304.428
304.735
305.031
305.315
305.587
305.847
306.095
306.332
306.557
306.772
306.976
307.169
307.353
307.528
307.694
307.852
308.002
308.144
308.28
308.41
308.535
308.654
308.769
308.881
308.989
309.095
309.198
309.301
309.404
309.507
309.612
309.72
309.831
309.946
310.067
310.196
310.332
310.479
310.636
310.807
310.992
311.193
311.411
311.649
311.908
312.191
312.497
312.83
313.191
313.581
314.002
314.454
314.94
315.458
316.011
316.597
317.218
317.872
318.559
319.277
320.025
320.801
321.604
322.43
323.278
324.144
325.026
325.92
326.824
300.18
300.545
300.92
301.301
301.686
302.07
302.453
302.831
303.202
303.565
303.919
304.261
304.593
304.912
305.219
305.514
305.795
306.065
306.321
306.566
306.798
307.018
307.228
307.426
307.614
307.792
307.961
308.121
308.272
308.416
308.553
308.683
308.807
308.926
309.04
309.149
309.256
309.359
309.46
309.56
309.659
309.759
309.859
309.961
310.067
310.176
310.29
310.411
310.539
310.675
310.822
310.98
311.151
311.336
311.537
311.755
311.991
312.248
312.526
312.828
313.153
313.504
313.881
314.285
314.717
315.178
315.667
316.186
316.732
317.307
317.909
318.538
319.192
319.869
320.569
321.288
322.026
322.779
323.546
324.325
325.112
300.187
300.567
300.958
301.354
301.755
302.156
302.554
302.948
303.336
303.714
304.083
304.441
304.787
305.12
305.44
305.747
306.04
306.32
306.586
306.839
307.079
307.307
307.523
307.726
307.919
308.101
308.273
308.435
308.589
308.734
308.871
309.001
309.125
309.243
309.355
309.463
309.567
309.668
309.766
309.863
309.958
310.053
310.149
310.246
310.345
310.448
310.555
310.667
310.786
310.912
311.048
311.193
311.35
311.519
311.702
311.9
312.114
312.346
312.596
312.867
313.158
313.47
313.806
314.164
314.546
314.953
315.383
315.838
316.317
316.819
317.345
317.892
318.46
319.049
319.656
320.28
320.919
321.573
322.238
322.913
323.597
300.196
300.593
301.001
301.417
301.836
302.256
302.673
303.086
303.492
303.889
304.276
304.651
305.014
305.363
305.698
306.019
306.326
306.618
306.895
307.158
307.408
307.643
307.866
308.076
308.274
308.46
308.635
308.8
308.955
309.102
309.24
309.37
309.493
309.61
309.721
309.827
309.929
310.027
310.122
310.215
310.306
310.396
310.487
310.578
310.671
310.767
310.867
310.97
311.08
311.196
311.32
311.452
311.595
311.748
311.913
312.092
312.284
312.492
312.715
312.956
313.214
313.491
313.787
314.102
314.438
314.794
315.17
315.567
315.984
316.421
316.877
317.351
317.843
318.352
318.877
319.416
319.968
320.533
321.108
321.692
322.283
300.206
300.624
301.053
301.489
301.93
302.372
302.812
303.247
303.675
304.094
304.502
304.897
305.279
305.647
305.999
306.337
306.658
306.964
307.254
307.529
307.788
308.033
308.263
308.48
308.683
308.874
309.053
309.221
309.379
309.526
309.665
309.795
309.918
310.034
310.143
310.247
310.346
310.441
310.532
310.621
310.708
310.793
310.879
310.964
311.051
311.139
311.231
311.326
311.426
311.532
311.644
311.764
311.892
312.03
312.178
312.337
312.508
312.692
312.89
313.103
313.33
313.574
313.833
314.109
314.402
314.712
315.039
315.383
315.744
316.122
316.516
316.925
317.349
317.788
318.24
318.704
319.18
319.666
320.161
320.665
321.175
300.217
300.659
301.112
301.574
302.041
302.509
302.975
303.435
303.889
304.332
304.764
305.183
305.587
305.976
306.349
306.705
307.043
307.365
307.669
307.956
308.227
308.481
308.72
308.944
309.154
309.35
309.533
309.704
309.863
310.013
310.152
310.282
310.404
310.518
310.626
310.727
310.823
310.915
311.002
311.087
311.169
311.249
311.329
311.408
311.488
311.569
311.653
311.739
311.83
311.925
312.026
312.133
312.247
312.37
312.501
312.642
312.794
312.956
313.13
313.316
313.515
313.727
313.953
314.193
314.447
314.716
314.998
315.295
315.607
315.932
316.27
316.622
316.986
317.363
317.751
318.149
318.557
318.975
319.4
319.833
320.272
300.231
300.7
301.182
301.673
302.17
302.668
303.164
303.654
304.137
304.609
305.069
305.515
305.945
306.358
306.753
307.129
307.487
307.826
308.146
308.447
308.73
308.995
309.243
309.475
309.691
309.892
310.079
310.253
310.415
310.565
310.705
310.835
310.956
311.068
311.174
311.272
311.365
311.453
311.537
311.616
311.693
311.768
311.842
311.915
311.988
312.061
312.137
312.215
312.296
312.381
312.47
312.565
312.666
312.774
312.89
313.014
313.146
313.288
313.439
313.601
313.774
313.958
314.154
314.361
314.58
314.811
315.055
315.31
315.577
315.856
316.146
316.447
316.759
317.081
317.413
317.754
318.103
318.46
318.825
319.196
319.573
300.247
300.748
301.263
301.789
302.32
302.852
303.383
303.908
304.425
304.931
305.422
305.899
306.357
306.797
307.217
307.617
307.996
308.354
308.69
309.007
309.303
309.579
309.837
310.077
310.3
310.506
310.697
310.874
311.038
311.189
311.329
311.458
311.578
311.689
311.791
311.887
311.976
312.06
312.139
312.214
312.285
312.354
312.422
312.488
312.554
312.62
312.688
312.757
312.828
312.903
312.982
313.065
313.154
313.248
313.348
313.456
313.571
313.694
313.825
313.965
314.114
314.272
314.441
314.619
314.807
315.005
315.213
315.432
315.66
315.898
316.146
316.403
316.669
316.944
317.227
317.518
317.816
318.121
318.433
318.75
319.073
300.265
300.804
301.358
301.923
302.494
303.067
303.638
304.203
304.759
305.302
305.83
306.341
306.832
307.302
307.75
308.175
308.576
308.954
309.309
309.642
309.951
310.24
310.507
310.755
310.985
311.197
311.392
311.571
311.736
311.888
312.028
312.156
312.274
312.382
312.481
312.573
312.659
312.738
312.812
312.882
312.948
313.011
313.072
313.131
313.19
313.249
313.308
313.368
313.431
313.496
313.564
313.636
313.713
313.794
313.881
313.973
314.072
314.178
314.29
314.41
314.538
314.674
314.818
314.97
315.131
315.3
315.478
315.664
315.858
316.061
316.272
316.491
316.718
316.952
317.193
317.441
317.695
317.955
318.22
318.491
318.767
300.287
300.869
301.468
302.078
302.696
303.316
303.933
304.544
305.144
305.73
306.299
306.848
307.375
307.878
308.356
308.809
309.235
309.635
310.009
310.357
310.681
310.982
311.259
311.515
311.751
311.967
312.166
312.347
312.513
312.665
312.803
312.93
313.045
313.15
313.246
313.334
313.415
313.489
313.558
313.622
313.682
313.739
313.793
313.846
313.897
313.948
314
314.052
314.106
314.161
314.22
314.281
314.346
314.416
314.489
314.568
314.653
314.742
314.838
314.941
315.05
315.165
315.288
315.417
315.554
315.698
315.849
316.007
316.173
316.345
316.525
316.711
316.903
317.102
317.307
317.518
317.734
317.955
318.182
318.412
318.647
300.311
300.944
301.595
302.259
302.93
303.604
304.274
304.937
305.588
306.222
306.837
307.428
307.995
308.534
309.045
309.526
309.978
310.4
310.794
311.159
311.497
311.809
312.096
312.359
312.6
312.82
313.021
313.204
313.37
313.521
313.657
313.781
313.893
313.994
314.086
314.169
314.245
314.314
314.377
314.435
314.489
314.539
314.587
314.633
314.677
314.721
314.764
314.808
314.854
314.9
314.949
315.001
315.056
315.114
315.176
315.243
315.314
315.39
315.471
315.558
315.65
315.748
315.852
315.962
316.078
316.2
316.328
316.463
316.603
316.749
316.902
317.06
317.223
317.392
317.566
317.746
317.929
318.118
318.31
318.507
318.707
300.34
301.032
301.743
302.468
303.202
303.937
304.668
305.39
306.098
306.786
307.451
308.089
308.698
309.276
309.821
310.333
310.811
311.257
311.67
312.051
312.402
312.725
313.02
313.289
313.534
313.757
313.959
314.142
314.307
314.455
314.589
314.709
314.817
314.913
315
315.078
315.148
315.211
315.268
315.32
315.367
315.411
315.452
315.491
315.528
315.565
315.601
315.637
315.675
315.713
315.754
315.796
315.842
315.89
315.942
315.998
316.057
316.121
316.189
316.262
316.34
316.423
316.511
316.604
316.702
316.805
316.914
317.028
317.147
317.272
317.401
317.535
317.674
317.818
317.966
318.119
318.275
318.435
318.6
318.767
318.938
300.374
301.134
301.915
302.711
303.515
304.321
305.121
305.91
306.681
307.429
308.149
308.838
309.493
310.111
310.692
311.235
311.74
312.208
312.639
313.035
313.398
313.73
314.031
314.305
314.552
314.776
314.977
315.158
315.32
315.465
315.595
315.71
315.812
315.904
315.984
316.056
316.12
316.177
316.227
316.273
316.314
316.351
316.386
316.418
316.449
316.478
316.508
316.537
316.567
316.598
316.631
316.666
316.703
316.743
316.786
316.832
316.881
316.934
316.992
317.053
317.119
317.189
317.263
317.342
317.425
317.513
317.605
317.702
317.804
317.91
318.02
318.134
318.253
318.375
318.502
318.632
318.765
318.902
319.042
319.185
319.331
300.413
301.252
302.113
302.991
303.877
304.763
305.642
306.506
307.347
308.161
308.941
309.683
310.386
311.046
311.663
312.236
312.767
313.255
313.703
314.112
314.484
314.822
315.127
315.403
315.65
315.872
316.071
316.248
316.406
316.546
316.669
316.779
316.875
316.96
317.034
317.099
317.156
317.207
317.251
317.29
317.324
317.356
317.384
317.41
317.435
317.458
317.481
317.505
317.528
317.553
317.58
317.608
317.638
317.67
317.706
317.744
317.785
317.83
317.878
317.93
317.985
318.045
318.108
318.175
318.246
318.321
318.4
318.483
318.57
318.66
318.755
318.853
318.954
319.059
319.167
319.279
319.393
319.511
319.631
319.753
319.878
300.458
301.388
302.343
303.314
304.294
305.272
306.238
307.185
308.104
308.989
309.832
310.632
311.383
312.085
312.737
313.339
313.892
314.398
314.859
315.277
315.656
315.996
316.302
316.576
316.821
317.039
317.232
317.404
317.555
317.688
317.805
317.907
317.996
318.074
318.141
318.199
318.25
318.294
318.332
318.364
318.393
318.419
318.442
318.462
318.482
318.5
318.518
318.537
318.556
318.575
318.596
318.619
318.644
318.671
318.7
318.732
318.767
318.805
318.846
318.891
318.938
318.989
319.044
319.102
319.163
319.228
319.296
319.368
319.443
319.521
319.603
319.687
319.775
319.866
319.959
320.056
320.154
320.256
320.359
320.465
320.573
300.51
301.546
302.608
303.687
304.773
305.854
306.919
307.958
308.961
309.921
310.831
311.687
312.487
313.229
313.913
314.54
315.112
315.632
316.101
316.524
316.903
317.243
317.546
317.815
318.053
318.264
318.45
318.613
318.756
318.881
318.989
319.083
319.165
319.235
319.295
319.347
319.391
319.429
319.461
319.489
319.513
319.534
319.552
319.569
319.585
319.599
319.614
319.629
319.644
319.661
319.678
319.698
319.719
319.742
319.767
319.795
319.826
319.859
319.895
319.934
319.976
320.021
320.069
320.12
320.174
320.231
320.291
320.354
320.42
320.489
320.561
320.635
320.712
320.791
320.873
320.956
321.043
321.131
321.221
321.313
321.407
300.57
301.728
302.913
304.116
305.323
306.52
307.693
308.832
309.925
310.963
311.941
312.853
313.699
314.476
315.187
315.833
316.418
316.944
317.416
317.838
318.213
318.546
318.841
319.102
319.331
319.532
319.707
319.861
319.994
320.109
320.209
320.295
320.369
320.432
320.486
320.532
320.57
320.603
320.631
320.655
320.676
320.694
320.71
320.724
320.737
320.75
320.763
320.777
320.791
320.806
320.822
320.84
320.859
320.881
320.904
320.93
320.958
320.989
321.022
321.058
321.096
321.138
321.181
321.228
321.277
321.328
321.383
321.439
321.499
321.56
321.624
321.69
321.759
321.829
321.902
321.976
322.052
322.13
322.209
322.29
322.372
300.64
301.937
303.265
304.608
305.951
307.276
308.569
309.814
311
312.118
313.161
314.126
315.01
315.816
316.546
317.203
317.792
318.317
318.785
319.199
319.564
319.886
320.169
320.417
320.633
320.822
320.986
321.128
321.251
321.357
321.448
321.526
321.593
321.651
321.699
321.741
321.776
321.806
321.832
321.854
321.873
321.89
321.906
321.92
321.934
321.947
321.961
321.975
321.99
322.006
322.023
322.041
322.062
322.084
322.108
322.134
322.162
322.192
322.224
322.259
322.296
322.336
322.377
322.421
322.467
322.515
322.566
322.618
322.673
322.73
322.788
322.848
322.91
322.974
323.04
323.106
323.175
323.244
323.315
323.387
323.46
300.719
302.178
303.667
305.17
306.665
308.132
309.552
310.909
312.19
313.384
314.486
315.494
316.409
317.233
317.97
318.627
319.21
319.726
320.18
320.58
320.93
321.235
321.502
321.734
321.936
322.111
322.262
322.393
322.506
322.604
322.688
322.76
322.822
322.875
322.921
322.961
322.995
323.025
323.051
323.074
323.095
323.114
323.132
323.149
323.166
323.183
323.2
323.217
323.236
323.255
323.275
323.297
323.32
323.345
323.371
323.4
323.43
323.461
323.495
323.531
323.568
323.608
323.649
323.692
323.737
323.784
323.832
323.882
323.934
323.987
324.042
324.098
324.155
324.214
324.274
324.335
324.397
324.46
324.523
324.588
324.653
300.811
302.454
304.127
305.809
307.472
309.093
310.648
312.118
313.488
314.75
315.9
316.938
317.87
318.697
319.428
320.072
320.637
321.133
321.565
321.943
322.272
322.558
322.806
323.022
323.209
323.371
323.511
323.633
323.738
323.829
323.909
323.978
324.038
324.09
324.137
324.178
324.214
324.247
324.277
324.304
324.33
324.354
324.378
324.401
324.423
324.446
324.469
324.492
324.517
324.541
324.567
324.594
324.623
324.652
324.683
324.715
324.748
324.783
324.82
324.858
324.897
324.938
324.981
325.024
325.069
325.115
325.163
325.212
325.262
325.313
325.365
325.418
325.472
325.526
325.582
325.638
325.695
325.753
325.811
325.869
325.928
300.915
302.768
304.65
306.532
308.38
310.163
311.854
313.432
314.885
316.197
317.372
318.416
319.339
320.15
320.861
321.482
322.022
322.491
322.899
323.252
323.558
323.824
324.054
324.254
324.427
324.578
324.709
324.824
324.924
325.013
325.091
325.16
325.221
325.277
325.327
325.373
325.415
325.454
325.491
325.526
325.559
325.591
325.623
325.654
325.685
325.716
325.747
325.778
325.81
325.843
325.876
325.91
325.944
325.98
326.016
326.053
326.091
326.13
326.171
326.212
326.254
326.297
326.341
326.386
326.432
326.478
326.525
326.573
326.622
326.671
326.721
326.772
326.823
326.874
326.926
326.978
327.031
327.083
327.136
327.19
327.243
301.034
303.125
305.242
307.345
309.392
311.345
313.164
314.822
316.315
317.646
318.823
319.857
320.76
321.545
322.226
322.815
323.324
323.763
324.142
324.469
324.752
324.998
325.211
325.396
325.558
325.7
325.826
325.937
326.036
326.124
326.205
326.277
326.344
326.405
326.462
326.516
326.566
326.615
326.661
326.705
326.748
326.791
326.832
326.873
326.914
326.954
326.995
327.035
327.076
327.116
327.157
327.198
327.24
327.281
327.324
327.366
327.409
327.453
327.497
327.541
327.586
327.631
327.677
327.723
327.769
327.816
327.863
327.91
327.958
328.005
328.053
328.101
328.149
328.198
328.246
328.294
328.342
328.39
328.438
328.486
328.534
301.167
303.528
305.908
308.253
310.501
312.586
314.485
316.191
317.706
319.037
320.198
321.205
322.075
322.823
323.465
324.016
324.489
324.895
325.244
325.546
325.806
326.033
326.231
326.405
326.559
326.695
326.817
326.928
327.028
327.12
327.204
327.283
327.357
327.426
327.492
327.555
327.615
327.673
327.73
327.784
327.838
327.891
327.943
327.994
328.044
328.094
328.143
328.192
328.241
328.289
328.337
328.385
328.433
328.48
328.528
328.575
328.622
328.669
328.716
328.763
328.81
328.857
328.904
328.95
328.997
329.043
329.09
329.136
329.182
329.227
329.273
329.318
329.363
329.408
329.452
329.496
329.54
329.584
329.627
329.669
329.712
301.313
303.969
306.638
309.207
311.598
313.778
315.732
317.458
318.968
320.276
321.403
322.368
323.192
323.895
324.494
325.004
325.439
325.812
326.133
326.411
326.651
326.862
327.048
327.213
327.36
327.493
327.614
327.725
327.828
327.924
328.013
328.098
328.179
328.256
328.33
328.401
328.47
328.537
328.603
328.666
328.729
328.79
328.85
328.909
328.968
329.025
329.082
329.137
329.193
329.247
329.301
329.353
329.406
329.458
329.509
329.559
329.609
329.659
329.708
329.757
329.805
329.853
329.9
329.946
329.993
330.038
330.083
330.128
330.172
330.216
330.259
330.301
330.343
330.385
330.426
330.466
330.506
330.545
330.584
330.622
330.659
301.451
304.402
307.301
310.019
312.505
314.733
316.699
318.414
319.895
321.164
322.246
323.166
323.945
324.605
325.165
325.64
326.045
326.392
326.691
326.95
327.176
327.375
327.551
327.71
327.853
327.983
328.103
328.215
328.319
328.417
328.51
328.598
328.683
328.765
328.843
328.92
328.994
329.066
329.137
329.205
329.273
329.339
329.404
329.468
329.53
329.592
329.653
329.712
329.771
329.828
329.885
329.941
329.996
330.05
330.103
330.156
330.208
330.259
330.309
330.358
330.407
330.455
330.502
330.549
330.594
330.639
330.684
330.727
330.77
330.812
330.854
330.895
330.935
330.974
331.012
331.05
331.088
331.124
331.16
331.195
331.23
378.815
386.737
393.418
399.258
404.456
409.12
413.309
417.056
420.376
423.269
425.723
427.715
429.209
430.157
430.491
430.119
428.912
426.673
423.069
417.443
408.149
401.873
397.075
393.156
389.825
386.923
384.348
382.032
379.926
377.994
376.209
374.548
372.995
371.535
370.157
368.85
367.607
366.421
365.284
364.193
363.142
362.128
361.146
360.193
359.268
358.367
357.488
356.629
355.789
354.965
354.157
353.362
352.58
351.81
351.051
350.302
349.562
348.83
348.107
347.39
346.682
345.979
345.284
344.594
343.911
343.234
342.563
341.898
341.238
340.585
339.937
339.296
338.66
338.031
337.408
336.791
336.181
335.577
334.98
334.39
333.807
333.231
332.662
332.101
331.547
331.001
330.464
329.934
329.413
328.901
328.398
327.903
327.418
326.942
326.476
326.019
325.573
325.136
324.709
324.293
323.886
323.49
323.104
322.729
322.364
322.009
321.664
321.33
321.005
320.69
320.385
320.09
319.804
319.528
319.26
319.001
318.751
318.509
318.275
318.049
317.83
317.619
317.414
317.216
317.025
316.839
316.66
316.485
316.316
316.152
315.992
315.837
315.686
315.538
315.394
315.254
315.116
314.982
314.85
314.721
314.594
314.469
314.346
314.224
314.105
313.987
313.87
313.754
313.64
313.527
313.414
313.303
313.192
313.082
312.973
312.864
312.756
312.649
312.543
312.438
312.334
374.086
380.963
387.171
392.764
397.818
402.393
406.525
410.237
413.536
416.42
418.874
420.875
422.389
423.366
423.746
423.443
422.344
420.292
417.07
412.409
406.264
400.957
396.535
392.796
389.567
386.728
384.196
381.91
379.826
377.911
376.139
374.489
372.944
371.491
370.119
368.817
367.578
366.395
365.262
364.173
363.124
362.111
361.131
360.18
359.256
358.356
357.479
356.621
355.781
354.958
354.15
353.356
352.575
351.805
351.046
350.297
349.558
348.826
348.103
347.387
346.678
345.976
345.281
344.592
343.908
343.231
342.56
341.895
341.236
340.582
339.935
339.294
338.658
338.029
337.406
336.789
336.179
335.575
334.978
334.388
333.805
333.229
332.66
332.099
331.545
331
330.462
329.933
329.412
328.9
328.396
327.902
327.417
326.941
326.475
326.018
325.571
325.135
324.708
324.291
323.885
323.489
323.103
322.728
322.363
322.008
321.663
321.329
321.004
320.69
320.385
320.089
319.804
319.527
319.26
319.001
318.751
318.509
318.275
318.049
317.83
317.619
317.414
317.216
317.025
316.839
316.659
316.485
316.316
316.152
315.992
315.837
315.686
315.538
315.394
315.254
315.117
314.982
314.85
314.721
314.594
314.469
314.346
314.225
314.105
313.987
313.87
313.755
313.64
313.527
313.415
313.303
313.192
313.082
312.973
312.864
312.757
312.649
312.543
312.438
312.335
370.017
375.894
381.465
386.651
391.438
395.83
399.838
403.466
406.711
409.564
412.009
414.02
415.564
416.597
417.062
416.89
415.993
414.268
411.61
407.971
403.569
399.297
395.445
392.033
389.005
386.299
383.858
381.638
379.603
377.726
375.984
374.358
372.832
371.395
370.036
368.745
367.515
366.339
365.213
364.129
363.086
362.077
361.101
360.153
359.232
358.334
357.458
356.602
355.764
354.943
354.136
353.344
352.563
351.795
351.037
350.288
349.549
348.819
348.096
347.38
346.672
345.97
345.275
344.586
343.903
343.226
342.556
341.891
341.231
340.578
339.931
339.29
338.654