    1C
    1UUSER                                                              
    1UDATE              07.july.2020                                    
    1UTIME              15:51:36                                        
    1UHOST                                                              
    1UPGM               CalculiX                                        
    1UVERSION           Version 2.15                             
    1UCOMPILETIME       Sa 15. Dez 15:34:34 CET 2018                    
    1UDIR                                                               
    1UDBN                                                               
    1UMAT    1EL                                                        
    2C                           126                                     1
 -1         1-5.00000E-02 0.00000E+00 0.00000E+00
 -1         2-5.00000E-02 0.00000E+00 3.00000E-01
 -1         3-5.00000E-02 1.00000E+00 0.00000E+00
 -1         4-5.00000E-02 1.00000E+00 3.00000E-01
 -1         5 5.00000E-02 1.00000E+00 0.00000E+00
 -1         6 5.00000E-02 1.00000E+00 3.00000E-01
 -1         7 5.00000E-02 0.00000E+00 0.00000E+00
 -1         8 5.00000E-02 0.00000E+00 3.00000E-01
 -1         9 0.00000E+00 1.00000E+00 0.00000E+00
 -1        10 0.00000E+00 1.00000E+00 3.00000E-01
 -1        11 0.00000E+00 0.00000E+00 0.00000E+00
 -1        12 0.00000E+00 0.00000E+00 3.00000E-01
 -1        13-5.00000E-02 5.00000E-02 0.00000E+00
 -1        14-5.00000E-02 1.00000E-01 0.00000E+00
 -1        15-5.00000E-02 1.50000E-01 0.00000E+00
 -1        16-5.00000E-02 2.00000E-01 0.00000E+00
 -1        17-5.00000E-02 2.50000E-01 0.00000E+00
 -1        18-5.00000E-02 3.00000E-01 0.00000E+00
 -1        19-5.00000E-02 3.50000E-01 0.00000E+00
 -1        20-5.00000E-02 4.00000E-01 0.00000E+00
 -1        21-5.00000E-02 4.50000E-01 0.00000E+00
 -1        22-5.00000E-02 5.00000E-01 0.00000E+00
 -1        23-5.00000E-02 5.50000E-01 0.00000E+00
 -1        24-5.00000E-02 6.00000E-01 0.00000E+00
 -1        25-5.00000E-02 6.50000E-01 0.00000E+00
 -1        26-5.00000E-02 7.00000E-01 0.00000E+00
 -1        27-5.00000E-02 7.50000E-01 0.00000E+00
 -1        28-5.00000E-02 8.00000E-01 0.00000E+00
 -1        29-5.00000E-02 8.50000E-01 0.00000E+00
 -1        30-5.00000E-02 9.00000E-01 0.00000E+00
 -1        31-5.00000E-02 9.50000E-01 0.00000E+00
 -1        32-5.00000E-02 5.00000E-02 3.00000E-01
 -1        33-5.00000E-02 1.00000E-01 3.00000E-01
 -1        34-5.00000E-02 1.50000E-01 3.00000E-01
 -1        35-5.00000E-02 2.00000E-01 3.00000E-01
 -1        36-5.00000E-02 2.50000E-01 3.00000E-01
 -1        37-5.00000E-02 3.00000E-01 3.00000E-01
 -1        38-5.00000E-02 3.50000E-01 3.00000E-01
 -1        39-5.00000E-02 4.00000E-01 3.00000E-01
 -1        40-5.00000E-02 4.50000E-01 3.00000E-01
 -1        41-5.00000E-02 5.00000E-01 3.00000E-01
 -1        42-5.00000E-02 5.50000E-01 3.00000E-01
 -1        43-5.00000E-02 6.00000E-01 3.00000E-01
 -1        44-5.00000E-02 6.50000E-01 3.00000E-01
 -1        45-5.00000E-02 7.00000E-01 3.00000E-01
 -1        46-5.00000E-02 7.50000E-01 3.00000E-01
 -1        47-5.00000E-02 8.00000E-01 3.00000E-01
 -1        48-5.00000E-02 8.50000E-01 3.00000E-01
 -1        49-5.00000E-02 9.00000E-01 3.00000E-01
 -1        50-5.00000E-02 9.50000E-01 3.00000E-01
 -1        51 5.00000E-02 9.50000E-01 0.00000E+00
 -1        52 5.00000E-02 9.00000E-01 0.00000E+00
 -1        53 5.00000E-02 8.50000E-01 0.00000E+00
 -1        54 5.00000E-02 8.00000E-01 0.00000E+00
 -1        55 5.00000E-02 7.50000E-01 0.00000E+00
 -1        56 5.00000E-02 7.00000E-01 0.00000E+00
 -1        57 5.00000E-02 6.50000E-01 0.00000E+00
 -1        58 5.00000E-02 6.00000E-01 0.00000E+00
 -1        59 5.00000E-02 5.50000E-01 0.00000E+00
 -1        60 5.00000E-02 5.00000E-01 0.00000E+00
 -1        61 5.00000E-02 4.50000E-01 0.00000E+00
 -1        62 5.00000E-02 4.00000E-01 0.00000E+00
 -1        63 5.00000E-02 3.50000E-01 0.00000E+00
 -1        64 5.00000E-02 3.00000E-01 0.00000E+00
 -1        65 5.00000E-02 2.50000E-01 0.00000E+00
 -1        66 5.00000E-02 2.00000E-01 0.00000E+00
 -1        67 5.00000E-02 1.50000E-01 0.00000E+00
 -1        68 5.00000E-02 1.00000E-01 0.00000E+00
 -1        69 5.00000E-02 5.00000E-02 0.00000E+00
 -1        70 5.00000E-02 9.50000E-01 3.00000E-01
 -1        71 5.00000E-02 9.00000E-01 3.00000E-01
 -1        72 5.00000E-02 8.50000E-01 3.00000E-01
 -1        73 5.00000E-02 8.00000E-01 3.00000E-01
 -1        74 5.00000E-02 7.50000E-01 3.00000E-01
 -1        75 5.00000E-02 7.00000E-01 3.00000E-01
 -1        76 5.00000E-02 6.50000E-01 3.00000E-01
 -1        77 5.00000E-02 6.00000E-01 3.00000E-01
 -1        78 5.00000E-02 5.50000E-01 3.00000E-01
 -1        79 5.00000E-02 5.00000E-01 3.00000E-01
 -1        80 5.00000E-02 4.50000E-01 3.00000E-01
 -1        81 5.00000E-02 4.00000E-01 3.00000E-01
 -1        82 5.00000E-02 3.50000E-01 3.00000E-01
 -1        83 5.00000E-02 3.00000E-01 3.00000E-01
 -1        84 5.00000E-02 2.50000E-01 3.00000E-01
 -1        85 5.00000E-02 2.00000E-01 3.00000E-01
 -1        86 5.00000E-02 1.50000E-01 3.00000E-01
 -1        87 5.00000E-02 1.00000E-01 3.00000E-01
 -1        88 5.00000E-02 5.00000E-02 3.00000E-01
 -1        89 0.00000E+00 5.00000E-02 0.00000E+00
 -1        90 0.00000E+00 1.00000E-01 0.00000E+00
 -1        91 0.00000E+00 1.50000E-01 0.00000E+00
 -1        92 0.00000E+00 2.00000E-01 0.00000E+00
 -1        93 0.00000E+00 2.50000E-01 0.00000E+00
 -1        94 0.00000E+00 3.00000E-01 0.00000E+00
 -1        95 0.00000E+00 3.50000E-01 0.00000E+00
 -1        96 0.00000E+00 4.00000E-01 0.00000E+00
 -1        97-1.73472E-18 4.50000E-01 0.00000E+00
 -1        98 0.00000E+00 5.00000E-01 0.00000E+00
 -1        99 0.00000E+00 5.50000E-01 0.00000E+00
 -1       100 0.00000E+00 6.00000E-01 0.00000E+00
 -1       101 1.73472E-18 6.50000E-01 0.00000E+00
 -1       102 1.73472E-18 7.00000E-01 0.00000E+00
 -1       103-1.73472E-18 7.50000E-01 0.00000E+00
 -1       104-1.73472E-18 8.00000E-01 0.00000E+00
 -1       105-1.73472E-18 8.50000E-01 0.00000E+00
 -1       106-1.73472E-18 9.00000E-01 0.00000E+00
 -1       107-1.51788E-18 9.50000E-01 0.00000E+00
 -1       108 0.00000E+00 9.50000E-01 3.00000E-01
 -1       109 0.00000E+00 9.00000E-01 3.00000E-01
 -1       110 0.00000E+00 8.50000E-01 3.00000E-01
 -1       111 0.00000E+00 8.00000E-01 3.00000E-01
 -1       112 0.00000E+00 7.50000E-01 3.00000E-01
 -1       113 0.00000E+00 7.00000E-01 3.00000E-01
 -1       114 0.00000E+00 6.50000E-01 3.00000E-01
 -1       115 0.00000E+00 6.00000E-01 3.00000E-01
 -1       116-1.73472E-18 5.50000E-01 3.00000E-01
 -1       117 0.00000E+00 5.00000E-01 3.00000E-01
 -1       118 0.00000E+00 4.50000E-01 3.00000E-01
 -1       119 0.00000E+00 4.00000E-01 3.00000E-01
 -1       120 1.73472E-18 3.50000E-01 3.00000E-01
 -1       121 1.73472E-18 3.00000E-01 3.00000E-01
 -1       122-1.73472E-18 2.50000E-01 3.00000E-01
 -1       123-1.73472E-18 2.00000E-01 3.00000E-01
 -1       124-1.73472E-18 1.50000E-01 3.00000E-01
 -1       125-1.73472E-18 1.00000E-01 3.00000E-01
 -1       126-1.51788E-18 5.00000E-02 3.00000E-01
 -3
    3C                            40                                     1
 -1       217    1    0    1
 -2         2         1        13        32        12        11        89       126
 -1       218    1    0    1
 -2        12        11        89       126         8         7        69        88
 -1       219    1    0    1
 -2        32        13        14        33       126        89        90       125
 -1       220    1    0    1
 -2       126        89        90       125        88        69        68        87
 -1       221    1    0    1
 -2        33        14        15        34       125        90        91       124
 -1       222    1    0    1
 -2       125        90        91       124        87        68        67        86
 -1       223    1    0    1
 -2        34        15        16        35       124        91        92       123
 -1       224    1    0    1
 -2       124        91        92       123        86        67        66        85
 -1       225    1    0    1
 -2        35        16        17        36       123        92        93       122
 -1       226    1    0    1
 -2       123        92        93       122        85        66        65        84
 -1       227    1    0    1
 -2        36        17        18        37       122        93        94       121
 -1       228    1    0    1
 -2       122        93        94       121        84        65        64        83
 -1       229    1    0    1
 -2        37        18        19        38       121        94        95       120
 -1       230    1    0    1
 -2       121        94        95       120        83        64        63        82
 -1       231    1    0    1
 -2        38        19        20        39       120        95        96       119
 -1       232    1    0    1
 -2       120        95        96       119        82        63        62        81
 -1       233    1    0    1
 -2        39        20        21        40       119        96        97       118
 -1       234    1    0    1
 -2       119        96        97       118        81        62        61        80
 -1       235    1    0    1
 -2        40        21        22        41       118        97        98       117
 -1       236    1    0    1
 -2       118        97        98       117        80        61        60        79
 -1       237    1    0    1
 -2        41        22        23        42       117        98        99       116
 -1       238    1    0    1
 -2       117        98        99       116        79        60        59        78
 -1       239    1    0    1
 -2        42        23        24        43       116        99       100       115
 -1       240    1    0    1
 -2       116        99       100       115        78        59        58        77
 -1       241    1    0    1
 -2        43        24        25        44       115       100       101       114
 -1       242    1    0    1
 -2       115       100       101       114        77        58        57        76
 -1       243    1    0    1
 -2        44        25        26        45       114       101       102       113
 -1       244    1    0    1
 -2       114       101       102       113        76        57        56        75
 -1       245    1    0    1
 -2        45        26        27        46       113       102       103       112
 -1       246    1    0    1
 -2       113       102       103       112        75        56        55        74
 -1       247    1    0    1
 -2        46        27        28        47       112       103       104       111
 -1       248    1    0    1
 -2       112       103       104       111        74        55        54        73
 -1       249    1    0    1
 -2        47        28        29        48       111       104       105       110
 -1       250    1    0    1
 -2       111       104       105       110        73        54        53        72
 -1       251    1    0    1
 -2        48        29        30        49       110       105       106       109
 -1       252    1    0    1
 -2       110       105       106       109        72        53        52        71
 -1       253    1    0    1
 -2        49        30        31        50       109       106       107       108
 -1       254    1    0    1
 -2       109       106       107       108        71        52        51        70
 -1       255    1    0    1
 -2        50        31         3         4       108       107         9        10
 -1       256    1    0    1
 -2       108       107         9        10        70        51         5         6
 -3
    1PSTEP                         1           1           1          
  100CL  101 1.00000E-02         126                     1    1           1
 -4  DISP        4    1
 -5  D1          1    2    1    0
 -5  D2          1    2    2    0
 -5  D3          1    2    3    0
 -5  ALL         1    2    0    0    1ALL
 -1         1 0.00000E+00 0.00000E+00 0.00000E+00
 -1         2 0.00000E+00 0.00000E+00 0.00000E+00
 -1         3 1.01191E-04-2.96688E-06 0.00000E+00
 -1         4 1.01191E-04-2.96688E-06 0.00000E+00
 -1         5 9.09880E-05 1.23734E-05 0.00000E+00
 -1         6 9.09880E-05 1.23734E-05 0.00000E+00
 -1         7 0.00000E+00 0.00000E+00 0.00000E+00
 -1         8 0.00000E+00 0.00000E+00 0.00000E+00
 -1         9 7.82094E-05 7.09198E-06 0.00000E+00
 -1        10 7.82094E-05 7.09198E-06 0.00000E+00
 -1        11 0.00000E+00 0.00000E+00 0.00000E+00
 -1        12 0.00000E+00 0.00000E+00 0.00000E+00
 -1        13 2.24523E-04 2.59059E-05 0.00000E+00
 -1        14 2.54745E-04 1.28251E-05 0.00000E+00
 -1        15 2.36613E-04 3.90000E-06 0.00000E+00
 -1        16 2.32232E-04-2.08798E-08 0.00000E+00
 -1        17 2.31905E-04-1.59275E-06 0.00000E+00
 -1        18 2.55890E-04-1.14346E-06 0.00000E+00
 -1        19 2.25403E-04-6.25696E-07 0.00000E+00
 -1        20 2.20570E-04-1.45669E-06 0.00000E+00
 -1        21 2.18651E-04-2.27242E-06 0.00000E+00
 -1        22 2.38685E-04-1.84388E-06 0.00000E+00
 -1        23 2.07314E-04-1.43725E-06 0.00000E+00
 -1        24 2.00360E-04-2.25377E-06 0.00000E+00
 -1        25 1.95941E-04-2.99255E-06 0.00000E+00
 -1        26 2.09507E-04-2.55798E-06 0.00000E+00
 -1        27 1.77352E-04-2.03044E-06 0.00000E+00
 -1        28 1.67396E-04-2.40344E-06 0.00000E+00
 -1        29 1.60090E-04-2.82119E-06 0.00000E+00
 -1        30 1.61195E-04-2.45848E-06 0.00000E+00
 -1        31 1.33187E-04-3.43432E-06 0.00000E+00
 -1        32 2.24523E-04 2.59059E-05 0.00000E+00
 -1        33 2.54745E-04 1.28251E-05 0.00000E+00
 -1        34 2.36613E-04 3.90000E-06 0.00000E+00
 -1        35 2.32232E-04-2.08798E-08 0.00000E+00
 -1        36 2.31905E-04-1.59275E-06 0.00000E+00
 -1        37 2.55890E-04-1.14346E-06 0.00000E+00
 -1        38 2.25403E-04-6.25696E-07 0.00000E+00
 -1        39 2.20570E-04-1.45669E-06 0.00000E+00
 -1        40 2.18651E-04-2.27242E-06 0.00000E+00
 -1        41 2.38685E-04-1.84388E-06 0.00000E+00
 -1        42 2.07314E-04-1.43725E-06 0.00000E+00
 -1        43 2.00360E-04-2.25377E-06 0.00000E+00
 -1        44 1.95941E-04-2.99255E-06 0.00000E+00
 -1        45 2.09507E-04-2.55798E-06 0.00000E+00
 -1        46 1.77352E-04-2.03044E-06 0.00000E+00
 -1        47 1.67396E-04-2.40344E-06 0.00000E+00
 -1        48 1.60090E-04-2.82119E-06 0.00000E+00
 -1        49 1.61195E-04-2.45848E-06 0.00000E+00
 -1        50 1.33187E-04-3.43432E-06 0.00000E+00
 -1        51 1.18662E-04 1.00958E-05 0.00000E+00
 -1        52 1.36175E-04 7.14597E-06 0.00000E+00
 -1        53 1.31239E-04 6.38551E-06 0.00000E+00
 -1        54 1.36583E-04 5.21703E-06 0.00000E+00
 -1        55 1.43494E-04 4.00742E-06 0.00000E+00
 -1        56 1.63888E-04 4.01956E-06 0.00000E+00
 -1        57 1.57695E-04 4.11207E-06 0.00000E+00
 -1        58 1.61760E-04 3.12782E-06 0.00000E+00
 -1        59 1.67486E-04 2.08389E-06 0.00000E+00
 -1        60 1.87260E-04 2.37097E-06 0.00000E+00
 -1        61 1.76870E-04 2.71607E-06 0.00000E+00
 -1        62 1.78872E-04 1.80605E-06 0.00000E+00
 -1        63 1.82907E-04 8.64268E-07 0.00000E+00
 -1        64 2.01857E-04 1.31356E-06 0.00000E+00
 -1        65 1.88507E-04 1.67079E-06 0.00000E+00
 -1        66 1.89146E-04-1.06353E-07 0.00000E+00
 -1        67 1.92714E-04-4.39819E-06 0.00000E+00
 -1        68 2.00027E-04-1.44698E-05 0.00000E+00
 -1        69 1.71031E-04-2.65431E-05 0.00000E+00
 -1        70 1.18662E-04 1.00958E-05 0.00000E+00
 -1        71 1.36175E-04 7.14597E-06 0.00000E+00
 -1        72 1.31239E-04 6.38551E-06 0.00000E+00
 -1        73 1.36583E-04 5.21703E-06 0.00000E+00
 -1        74 1.43494E-04 4.00742E-06 0.00000E+00
 -1        75 1.63888E-04 4.01956E-06 0.00000E+00
 -1        76 1.57695E-04 4.11207E-06 0.00000E+00
 -1        77 1.61760E-04 3.12782E-06 0.00000E+00
 -1        78 1.67486E-04 2.08389E-06 0.00000E+00
 -1        79 1.87260E-04 2.37097E-06 0.00000E+00
 -1        80 1.76870E-04 2.71607E-06 0.00000E+00
 -1        81 1.78872E-04 1.80605E-06 0.00000E+00
 -1        82 1.82907E-04 8.64268E-07 0.00000E+00
 -1        83 2.01857E-04 1.31356E-06 0.00000E+00
 -1        84 1.88507E-04 1.67079E-06 0.00000E+00
 -1        85 1.89146E-04-1.06353E-07 0.00000E+00
 -1        86 1.92714E-04-4.39819E-06 0.00000E+00
 -1        87 2.00027E-04-1.44698E-05 0.00000E+00
 -1        88 1.71031E-04-2.65431E-05 0.00000E+00
 -1        89 1.37281E-04-5.29256E-06 0.00000E+00
 -1        90 1.69262E-04-2.53870E-07 0.00000E+00
 -1        91 1.71573E-04 8.55937E-07 0.00000E+00
 -1        92 1.68904E-04-1.17131E-08 0.00000E+00
 -1        93 1.67258E-04-9.56777E-07 0.00000E+00
 -1        94 1.65274E-04 1.80142E-07 0.00000E+00
 -1        95 1.62687E-04 1.26936E-06 0.00000E+00
 -1        96 1.59423E-04 2.62387E-07 0.00000E+00
 -1        97 1.57077E-04-6.49859E-07 0.00000E+00
 -1        98 1.53734E-04 4.69382E-07 0.00000E+00
 -1        99 1.49505E-04 1.53531E-06 0.00000E+00
 -1       100 1.44533E-04 6.29763E-07 0.00000E+00
 -1       101 1.40213E-04-3.56444E-08 0.00000E+00
 -1       102 1.34721E-04 1.19755E-06 0.00000E+00
 -1       103 1.28254E-04 2.43074E-06 0.00000E+00
 -1       104 1.21344E-04 2.02189E-06 0.00000E+00
 -1       105 1.15259E-04 2.46841E-06 0.00000E+00
 -1       106 1.07707E-04 3.82959E-06 0.00000E+00
 -1       107 1.00767E-04 4.97784E-06 0.00000E+00
 -1       108 1.00767E-04 4.97784E-06 0.00000E+00
 -1       109 1.07707E-04 3.82959E-06 0.00000E+00
 -1       110 1.15259E-04 2.46841E-06 0.00000E+00
 -1       111 1.21344E-04 2.02189E-06 0.00000E+00
 -1       112 1.28254E-04 2.43074E-06 0.00000E+00
 -1       113 1.34721E-04 1.19755E-06 0.00000E+00
 -1       114 1.40213E-04-3.56444E-08 0.00000E+00
 -1       115 1.44533E-04 6.29763E-07 0.00000E+00
 -1       116 1.49505E-04 1.53531E-06 0.00000E+00
 -1       117 1.53734E-04 4.69382E-07 0.00000E+00
 -1       118 1.57077E-04-6.49859E-07 0.00000E+00
 -1       119 1.59423E-04 2.62387E-07 0.00000E+00
 -1       120 1.62687E-04 1.26936E-06 0.00000E+00
 -1       121 1.65274E-04 1.80142E-07 0.00000E+00
 -1       122 1.67258E-04-9.56777E-07 0.00000E+00
 -1       123 1.68904E-04-1.17131E-08 0.00000E+00
 -1       124 1.71573E-04 8.55937E-07 0.00000E+00
 -1       125 1.69262E-04-2.53870E-07 0.00000E+00
 -1       126 1.37281E-04-5.29256E-06 0.00000E+00
 -3
    1PSTEP                         2           1           1          
  100CL  101 1.00000E-02         126                     1    1           1
 -4  STRESS      6    1
 -5  SXX         1    4    1    1
 -5  SYY         1    4    2    2
 -5  SZZ         1    4    3    3
 -5  SXY         1    4    1    2
 -5  SYZ         1    4    2    3
 -5  SZX         1    4    3    1
 -1         1 1.27446E+02 2.84477E+02 1.21864E+02 6.91900E+02-2.65231E-12-1.21283E-11
 -1         2 1.27446E+02 2.84477E+02 1.21864E+02 6.91900E+02-2.65231E-12-1.21283E-11
 -1         3-2.45012E+02-1.00965E+02-1.03876E+02-6.74385E+01-2.62047E-08-6.34360E-08
 -1         4-2.45012E+02-1.00965E+02-1.03876E+02-6.74385E+01-2.62047E-08-6.34360E-08
 -1         5 1.48282E+02 8.35621E+01 6.95106E+01-6.89483E+01 5.16887E-08-1.23734E-07
 -1         6 1.48282E+02 8.35621E+01 6.95106E+01-6.89483E+01 5.16887E-08-1.23734E-07
 -1         7-1.17691E+02-2.82516E+02-1.21188E+02 5.25315E+02-1.96200E-12 7.00252E-12
 -1         8-1.17691E+02-2.82516E+02-1.21188E+02 5.25315E+02-1.96206E-12 7.00203E-12
 -1         9-4.49976E+01-7.46051E-01-1.37739E+01-4.58130E+01-3.15657E-09-1.22201E-07
 -1        10-4.49976E+01-7.46052E-01-1.37739E+01-4.58130E+01-3.15657E-09-1.22201E-07
 -1        11-2.16003E+01-5.50584E+01-2.35559E+01 4.22162E+02-2.41119E-12-5.84366E-12
 -1        12-2.16003E+01-5.50584E+01-2.35559E+01 4.22162E+02-2.41107E-12-5.84275E-12
 -1        13-9.03765E+02-3.31378E+02-3.72082E+02 2.95249E+02-6.82118E-09-1.62204E-08
 -1        14-9.68997E+02-5.13358E+02-4.45783E+02-2.14940E+01 7.56510E-09-9.34333E-08
 -1        15-7.28715E+02-3.69554E+02-3.30082E+02-4.38295E+01 1.90763E-08-3.63132E-09
 -1        16-6.93367E+02-3.22050E+02-3.05164E+02-7.18859E+00 1.39330E-08 1.02410E-07
 -1        17-6.97394E+02-3.04572E+02-3.01136E+02 3.82285E+01 4.51377E-09 4.49165E-08
 -1        18-9.70878E+02-4.13308E+02-4.16319E+02-5.91133E+00-5.62993E-09 2.06098E-09
 -1        19-6.74789E+02-2.91274E+02-2.90333E+02-4.83634E+01-7.63224E-09 4.39536E-08
 -1        20-6.61082E+02-2.91252E+02-2.86189E+02-5.08908E+00-1.99871E-09-7.88932E-09
 -1        21-6.62736E+02-2.86417E+02-2.85238E+02 3.27551E+01 5.12833E-10 2.76854E-08
 -1        22-9.10507E+02-3.87836E+02-3.90439E+02-1.02918E+01-1.37794E-08 5.66188E-08
 -1        23-6.22352E+02-2.69117E+02-2.67879E+02-4.96820E+01-1.25876E-08-1.40798E-07
 -1        24-6.03773E+02-2.66173E+02-2.61392E+02-8.61025E+00-3.60845E-09 4.48892E-08
 -1        25-5.99817E+02-2.58965E+02-2.58037E+02 2.30968E+01-1.14226E-09-1.12182E-07
 -1        26-8.01270E+02-3.40169E+02-3.43157E+02-1.69961E+01 7.40071E-09 1.20603E-07
 -1        27-5.27532E+02-2.25827E+02-2.26324E+02-5.09486E+01 2.63881E-09 3.07813E-09
 -1        28-4.97058E+02-2.16891E+02-2.14461E+02-1.29234E+01 2.51437E-10-6.65174E-08
 -1        29-4.82248E+02-2.07287E+02-2.07120E+02 6.70691E+00-1.94659E-09 7.26748E-08
 -1        30-5.76460E+02-2.50259E+02-2.48390E+02-2.20001E+01-8.26565E-09 2.73148E-08
 -1        31-3.49854E+02-1.52338E+02-1.50804E+02-6.63396E+01-2.47291E-08-3.91500E-08
 -1        32-9.03765E+02-3.31378E+02-3.72082E+02 2.95249E+02-6.82118E-09-1.62204E-08
 -1        33-9.68997E+02-5.13358E+02-4.45783E+02-2.14940E+01 7.56510E-09-9.34333E-08
 -1        34-7.28715E+02-3.69554E+02-3.30082E+02-4.38295E+01 1.90763E-08-3.63131E-09
 -1        35-6.93367E+02-3.22050E+02-3.05164E+02-7.18859E+00 1.39330E-08 1.02410E-07
 -1        36-6.97394E+02-3.04572E+02-3.01136E+02 3.82285E+01 4.51377E-09 4.49165E-08
 -1        37-9.70878E+02-4.13308E+02-4.16319E+02-5.91133E+00-5.62993E-09 2.06098E-09
 -1        38-6.74789E+02-2.91274E+02-2.90333E+02-4.83634E+01-7.63224E-09 4.39536E-08
 -1        39-6.61082E+02-2.91252E+02-2.86189E+02-5.08908E+00-1.99871E-09-7.88932E-09
 -1        40-6.62736E+02-2.86417E+02-2.85238E+02 3.27551E+01 5.12833E-10 2.76854E-08
 -1        41-9.10507E+02-3.87836E+02-3.90439E+02-1.02918E+01-1.37794E-08 5.66188E-08
 -1        42-6.22352E+02-2.69117E+02-2.67879E+02-4.96820E+01-1.25876E-08-1.40798E-07
 -1        43-6.03773E+02-2.66173E+02-2.61392E+02-8.61025E+00-3.60845E-09 4.48892E-08
 -1        44-5.99817E+02-2.58965E+02-2.58037E+02 2.30968E+01-1.14226E-09-1.12182E-07
 -1        45-8.01270E+02-3.40169E+02-3.43157E+02-1.69961E+01 7.40071E-09 1.20603E-07
 -1        46-5.27532E+02-2.25827E+02-2.26324E+02-5.09486E+01 2.63881E-09 3.07813E-09
 -1        47-4.97058E+02-2.16891E+02-2.14461E+02-1.29234E+01 2.51437E-10-6.65174E-08
 -1        48-4.82248E+02-2.07287E+02-2.07120E+02 6.70691E+00-1.94659E-09 7.26748E-08
 -1        49-5.76460E+02-2.50259E+02-2.48390E+02-2.20001E+01-8.26565E-09 2.73148E-08
 -1        50-3.49854E+02-1.52338E+02-1.50804E+02-6.63396E+01-2.47291E-08-3.91500E-08
 -1        51 2.04940E+02 1.10764E+02 9.46534E+01-5.38213E+01 3.12215E-08-1.34240E-08
 -1        52 3.15400E+02 1.51337E+02 1.39909E+02-9.15487E+00 5.00364E-09-1.82251E-08
 -1        53 1.76614E+02 8.41269E+01 7.81880E+01 1.14393E+01 2.90998E-09-2.47964E-08
 -1        54 1.69667E+02 8.31246E+01 7.58049E+01-9.02730E+00 3.29010E-09 7.72583E-08
 -1        55 1.66979E+02 7.67918E+01 7.30958E+01-3.71842E+01-5.61558E-09 9.43075E-09
 -1        56 3.14149E+02 1.34030E+02 1.34341E+02-1.31788E+01-3.82524E-09-8.20777E-08
 -1        57 1.90421E+02 8.54766E+01 8.27287E+01 1.60551E+01-3.85610E-09-1.05354E-08
 -1        58 1.90284E+02 9.04103E+01 8.41678E+01-7.38053E+00-2.65842E-09-6.32275E-08
 -1        59 1.95508E+02 8.70657E+01 8.47256E+01-3.75763E+01 9.69790E-09 2.65085E-08
 -1        60 3.59972E+02 1.51302E+02 1.53235E+02-8.59698E+00 9.55252E-09-2.73953E-08
 -1        61 2.14589E+02 9.43836E+01 9.26395E+01 2.32880E+01 1.26773E-09 7.79251E-08
 -1        62 2.13841E+02 9.97150E+01 9.40156E+01-4.54027E+00-7.78576E-10 2.38827E-08
 -1        63 2.19038E+02 9.59725E+01 9.44462E+01-3.66441E+01 9.54304E-09 4.53244E-08
 -1        64 3.92550E+02 1.64460E+02 1.66929E+02-5.13480E+00 8.57640E-09 7.90599E-08
 -1        65 2.32256E+02 1.05703E+02 1.01326E+02 2.76719E+01-2.08304E-09 2.56308E-08
 -1        66 2.32113E+02 1.26076E+02 1.07396E+02-6.77109E+00-1.23992E-08 9.01980E-08
 -1        67 2.60942E+02 1.74898E+02 1.30668E+02-3.29587E+01-1.89966E-08-3.25413E-08
 -1        68 3.82737E+02 2.61237E+02 1.93007E+02-1.04160E+01-8.30279E-09-3.96155E-08
 -1        69 3.32716E+02 7.93702E+01 1.23058E+02 2.42306E+02 5.72976E-09-2.18612E-08
 -1        70 2.04940E+02 1.10764E+02 9.46534E+01-5.38213E+01 3.12215E-08-1.34240E-08
 -1        71 3.15400E+02 1.51337E+02 1.39909E+02-9.15487E+00 5.00364E-09-1.82251E-08
 -1        72 1.76614E+02 8.41269E+01 7.81880E+01 1.14393E+01 2.90998E-09-2.47964E-08
 -1        73 1.69667E+02 8.31246E+01 7.58049E+01-9.02730E+00 3.29010E-09 7.72583E-08
 -1        74 1.66979E+02 7.67918E+01 7.30958E+01-3.71842E+01-5.61558E-09 9.43075E-09
 -1        75 3.14149E+02 1.34030E+02 1.34341E+02-1.31788E+01-3.82524E-09-8.20777E-08
 -1        76 1.90421E+02 8.54766E+01 8.27287E+01 1.60551E+01-3.85610E-09-1.05354E-08
 -1        77 1.90284E+02 9.04103E+01 8.41678E+01-7.38053E+00-2.65842E-09-6.32275E-08
 -1        78 1.95508E+02 8.70657E+01 8.47256E+01-3.75763E+01 9.69790E-09 2.65085E-08
 -1        79 3.59972E+02 1.51302E+02 1.53235E+02-8.59698E+00 9.55252E-09-2.73953E-08
 -1        80 2.14589E+02 9.43836E+01 9.26395E+01 2.32880E+01 1.26773E-09 7.79251E-08
 -1        81 2.13841E+02 9.97150E+01 9.40156E+01-4.54027E+00-7.78576E-10 2.38827E-08
 -1        82 2.19038E+02 9.59725E+01 9.44462E+01-3.66441E+01 9.54304E-09 4.53244E-08
 -1        83 3.92550E+02 1.64460E+02 1.66929E+02-5.13480E+00 8.57640E-09 7.90599E-08
 -1        84 2.32256E+02 1.05703E+02 1.01326E+02 2.76719E+01-2.08304E-09 2.56307E-08
 -1        85 2.32113E+02 1.26076E+02 1.07396E+02-6.77109E+00-1.23992E-08 9.01980E-08
 -1        86 2.60942E+02 1.74898E+02 1.30668E+02-3.29587E+01-1.89966E-08-3.25414E-08
 -1        87 3.82737E+02 2.61237E+02 1.93007E+02-1.04160E+01-8.30279E-09-3.96155E-08
 -1        88 3.32716E+02 7.93702E+01 1.23058E+02 2.42306E+02 5.72976E-09-2.18612E-08
 -1        89-2.85902E+02-1.24143E+02-1.23738E+02 1.79475E+02 4.24617E-09-2.95593E-08
 -1        90-2.79026E+02-9.32911E+01-1.12222E+02 1.07734E+01-2.55533E-09-5.93987E-08
 -1        91-2.35061E+02-1.00106E+02-1.00848E+02-1.33076E+01-6.09840E-09-3.08692E-09
 -1        92-2.35463E+02-1.09290E+02-1.03714E+02-6.76141E+00 1.80252E-09 4.96678E-08
 -1        93-2.32499E+02-9.92202E+01-9.98085E+01-5.56018E-01 9.57527E-09 4.97464E-08
 -1        94-2.84297E+02-1.12923E+02-1.19766E+02-3.25217E+00 3.68533E-09 4.84446E-08
 -1        95-2.27945E+02-9.77226E+01-9.79737E+01-6.71365E+00-2.75502E-09 1.94700E-08
 -1        96-2.28285E+02-1.06653E+02-1.00750E+02-3.60986E+00 2.14740E-09 4.81811E-09
 -1        97-2.23823E+02-9.53947E+01-9.60303E+01-1.07248E+00-8.75373E-09 3.02530E-08
 -1        98-2.70536E+02-1.07095E+02-1.13813E+02-5.16425E+00 7.81405E-09 2.12056E-08
 -1        99-2.13506E+02-9.11287E+01-9.16206E+01-8.74020E+00-3.39767E-09-4.06317E-08
 -1       100-2.10914E+02-9.76122E+01-9.27803E+01-6.01447E+00-9.89384E-09-2.85856E-08
 -1       101-2.04074E+02-8.52746E+01-8.70211E+01-4.16063E+00-1.20984E-08-3.04283E-08
 -1       102-2.38921E+02-9.21364E+01-9.97215E+01-8.27961E+00-5.47623E-09-2.26719E-08
 -1       103-1.79988E+02-7.37509E+01-7.62865E+01-1.12951E+01 2.89989E-08 6.78129E-09
 -1       104-1.65440E+02-7.09528E+01-7.10700E+01-8.26961E+00-6.77967E-09-8.21415E-09
 -1       105-1.50805E+02-5.68891E+01-6.24517E+01-6.81967E+00-1.66566E-08-6.17685E-10
 -1       106-1.28342E+02-4.43037E+01-5.20243E+01-7.53210E+00 8.32783E-09-1.05074E-08
 -1       107-7.04331E+01-1.59580E+01-2.60050E+01-2.45720E+01 1.51502E-09-5.00798E-09
 -1       108-7.04331E+01-1.59580E+01-2.60050E+01-2.45720E+01 1.51502E-09-5.00797E-09
 -1       109-1.28342E+02-4.43037E+01-5.20243E+01-7.53210E+00 8.32783E-09-1.05074E-08
 -1       110-1.50805E+02-5.68891E+01-6.24517E+01-6.81967E+00-1.66566E-08-6.17687E-10
 -1       111-1.65440E+02-7.09528E+01-7.10700E+01-8.26961E+00-6.77967E-09-8.21415E-09
 -1       112-1.79988E+02-7.37509E+01-7.62865E+01-1.12951E+01 2.89989E-08 6.78129E-09
 -1       113-2.38921E+02-9.21364E+01-9.97215E+01-8.27961E+00-5.47623E-09-2.26719E-08
 -1       114-2.04074E+02-8.52746E+01-8.70211E+01-4.16063E+00-1.20984E-08-3.04283E-08
 -1       115-2.10914E+02-9.76122E+01-9.27803E+01-6.01447E+00-9.89384E-09-2.85856E-08
 -1       116-2.13506E+02-9.11287E+01-9.16206E+01-8.74020E+00-3.39767E-09-4.06317E-08
 -1       117-2.70536E+02-1.07095E+02-1.13813E+02-5.16425E+00 7.81405E-09 2.12056E-08
 -1       118-2.23823E+02-9.53947E+01-9.60303E+01-1.07248E+00-8.75373E-09 3.02530E-08
 -1       119-2.28285E+02-1.06653E+02-1.00750E+02-3.60986E+00 2.14740E-09 4.81811E-09
 -1       120-2.27945E+02-9.77226E+01-9.79737E+01-6.71365E+00-2.75502E-09 1.94700E-08
 -1       121-2.84297E+02-1.12923E+02-1.19766E+02-3.25217E+00 3.68533E-09 4.84446E-08
 -1       122-2.32499E+02-9.92202E+01-9.98085E+01-5.56018E-01 9.57527E-09 4.97464E-08
 -1       123-2.35463E+02-1.09290E+02-1.03714E+02-6.76141E+00 1.80252E-09 4.96678E-08
 -1       124-2.35061E+02-1.00106E+02-1.00848E+02-1.33076E+01-6.09840E-09-3.08693E-09
 -1       125-2.79026E+02-9.32911E+01-1.12222E+02 1.07734E+01-2.55533E-09-5.93987E-08
 -1       126-2.85902E+02-1.24143E+02-1.23738E+02 1.79475E+02 4.24617E-09-2.95593E-08
 -3
    1PSTEP                         3           1           1          
  100CL  101 1.00000E-02         126                     1    1           1
 -4  TOSTRAIN    6    1
 -5  EXX         1    4    1    1
 -5  EYY         1    4    2    2
 -5  EZZ         1    4    3    3
 -5  EXY         1    4    1    2
 -5  EYZ         1    4    2    3
 -5  EZX         1    4    3    1