/*--------------------------------*- C++ -*----------------------------------*\
  =========                 |
  \\      /  F ield         | OpenFOAM: The Open Source CFD Toolbox
   \\    /   O peration     | Website:  https://openfoam.org
    \\  /    A nd           | Version:  7
     \\/     M anipulation  |
\*---------------------------------------------------------------------------*/
FoamFile
{
    version     2.0;
    format      ascii;
    class       volScalarField;
    location    "1.03";
    object      T;
}
// * * * * * * * * * * * * * * * * * * * * * * * * * * * * * * * * * * * * * //

dimensions      [0 0 0 1 0 0 0];

internalField   nonuniform List<scalar> 
12013
(
300.01
300.032
300.055
300.081
300.108
300.139
300.173
300.212
300.254
300.302
300.356
300.416
300.482
300.556
300.638
300.728
300.828
300.936
301.056
301.186
301.327
301.481
301.647
301.827
302.02
302.228
302.452
302.691
302.947
303.22
303.51
303.82
304.149
304.499
304.869
305.262
305.677
306.116
306.581
307.071
307.589
308.135
308.711
309.318
309.958
310.633
311.343
312.092
312.882
313.714
314.59
315.514
316.489
317.516
318.6
319.744
320.952
322.228
323.577
325.002
326.511
328.108
329.8
331.594
333.499
335.522
337.673
339.965
342.408
345.018
347.812
350.808
354.032
357.512
361.284
365.397
369.913
374.923
380.566
387.076
394.905
300.01
300.032
300.055
300.081
300.108
300.139
300.173
300.212
300.254
300.302
300.356
300.416
300.482
300.556
300.638
300.728
300.827
300.936
301.056
301.186
301.327
301.481
301.647
301.827
302.02
302.228
302.452
302.691
302.946
303.219
303.51
303.82
304.149
304.498
304.869
305.261
305.677
306.116
306.58
307.07
307.588
308.134
308.71
309.317
309.957
310.632
311.342
312.091
312.88
313.712
314.588
315.512
316.486
317.513
318.597
319.74
320.947
322.222
323.57
324.994
326.501
328.096
329.786
331.578
333.479
335.497
337.644
339.929
342.365
344.965
347.747
350.728
353.932
357.385
361.121
365.182
369.621
374.508
379.937
386.023
392.865
300.01
300.032
300.055
300.08
300.108
300.139
300.173
300.211
300.254
300.302
300.356
300.416
300.482
300.556
300.638
300.728
300.827
300.936
301.055
301.185
301.327
301.48
301.647
301.826
302.02
302.228
302.451
302.69
302.946
303.219
303.51
303.819
304.148
304.497
304.868
305.26
305.676
306.115
306.579
307.069
307.587
308.133
308.709
309.316
309.955
310.63
311.34
312.089
312.877
313.709
314.584
315.507
316.481
317.507
318.589
319.731
320.937
322.21
323.554
324.976
326.479
328.07
329.755
331.54
333.434
335.444
337.579
339.851
342.27
344.85
347.605
350.553
353.714
357.11
360.77
364.724
369.012
373.672
378.747
384.253
390.145
300.01
300.032
300.055
300.08
300.108
300.139
300.173
300.211
300.254
300.302
300.356
300.415
300.482
300.556
300.637
300.728
300.827
300.936
301.055
301.185
301.326
301.48
301.646
301.826
302.019
302.227
302.45
302.689
302.945
303.218
303.508
303.818
304.147
304.496
304.867
305.259
305.674
306.113
306.577
307.067
307.585
308.13
308.706
309.313
309.952
310.626
311.336
312.084
312.872
313.703
314.577
315.499
316.471
317.496
318.576
319.716
320.918
322.188
323.529
324.945
326.443
328.027
329.703
331.478
333.36
335.355
337.472
339.722
342.114
344.66
347.374
350.269
353.362
356.671
360.216
364.016
368.092
372.459
377.119
382.045
387.158
300.01
300.032
300.055
300.08
300.108
300.139
300.173
300.211
300.254
300.302
300.355
300.415
300.482
300.555
300.637
300.727
300.826
300.935
301.054
301.184
301.326
301.479
301.645
301.825
302.018
302.226
302.449
302.688
302.943
303.216
303.507
303.816
304.145
304.494
304.864
305.257
305.672
306.111
306.575
307.065
307.582
308.127
308.702
309.309
309.948
310.621
311.33
312.077
312.865
313.694
314.567
315.487
316.457
317.479
318.556
319.692
320.891
322.155
323.49
324.899
326.388
327.962
329.626
331.387
333.25
335.224
337.316
339.534
341.888
344.387
347.042
349.865
352.866
356.059
359.455
363.064
366.89
370.931
375.169
379.565
384.048
300.01
300.032
300.055
300.08
300.108
300.139
300.173
300.211
300.254
300.302
300.355
300.415
300.481
300.555
300.636
300.726
300.826
300.934
301.053
301.183
301.324
301.478
301.644
301.823
302.016
302.224
302.447
302.686
302.941
303.214
303.505
303.814
304.143
304.492
304.862
305.254
305.669
306.107
306.571
307.06
307.577
308.122
308.697
309.303
309.941
310.613
311.322
312.068
312.853
313.681
314.552
315.47
316.437
317.455
318.528
319.659
320.852
322.109
323.436
324.835
326.313
327.872
329.52
331.26
333.1
335.045
337.103
339.279
341.583
344.021
346.601
349.332
352.22
355.273
358.495
361.886
365.443
369.152
372.989
376.915
380.873
300.01
300.032
300.055
300.08
300.108
300.138
300.173
300.211
300.253
300.301
300.355
300.414
300.48
300.554
300.636
300.726
300.825
300.933
301.052
301.182
301.323
301.476
301.642
301.821
302.014
302.222
302.445
302.683
302.939
303.211
303.502
303.811
304.139
304.488
304.858
305.249
305.664
306.102
306.566
307.055
307.571
308.115
308.689
309.294
309.932
310.603
311.31
312.054
312.838
313.663
314.531
315.446
316.409
317.423
318.49
319.615
320.8
322.048
323.363
324.75
326.212
327.753
329.379
331.094
332.903
334.812
336.826
338.951
341.192
343.555
346.045
348.667
351.424
354.318
357.348
360.509
363.791
367.177
370.643
374.154
377.668
300.01
300.032
300.055
300.08
300.108
300.138
300.172
300.21
300.253
300.301
300.354
300.413
300.48
300.553
300.635
300.724
300.823
300.932
301.051
301.18
301.321
301.474
301.64
301.819
302.012
302.219
302.442
302.68
302.935
303.207
303.497
303.806
304.134
304.483
304.852
305.244
305.658
306.096
306.559
307.047
307.563
308.106
308.679
309.283
309.919
310.589
311.294
312.036
312.817
313.639
314.504
315.414
316.372
317.379
318.44
319.556
320.731
321.967
323.269
324.639
326.081
327.6
329.199
330.882
332.653
334.518
336.479
338.541
340.709
342.984
345.371
347.87
350.482
353.204
356.033
358.96
361.973
365.054
368.181
371.326
374.456
300.01
300.032
300.055
300.08
300.107
300.138
300.172
300.21
300.252
300.3
300.353
300.413
300.479
300.552
300.633
300.723
300.822
300.93
301.048
301.178
301.319
301.471
301.637
301.816
302.008
302.215
302.438
302.676
302.931
303.202
303.492
303.801
304.128
304.476
304.845
305.236
305.65
306.087
306.549
307.037
307.551
308.094
308.666
309.268
309.902
310.57
311.273
312.012
312.789
313.607
314.468
315.372
316.323
317.323
318.375
319.48
320.642
321.864
323.148
324.498
325.917
327.408
328.974
330.619
332.345
334.157
336.057
338.047
340.13
342.308
344.58
346.945
349.403
351.947
354.573
357.269
360.023
362.82
365.64
368.459
371.255
300.01
300.032
300.055
300.08
300.107
300.137
300.171
300.209
300.252
300.299
300.352
300.411
300.477
300.551
300.632
300.721
300.82
300.928
301.046
301.175
301.316
301.468
301.633
301.812
302.004
302.211
302.433
302.67
302.925
303.196
303.485
303.793
304.121
304.468
304.837
305.227
305.64
306.076
306.537
307.024
307.537
308.078
308.648
309.248
309.88
310.545
311.245
311.98
312.754
313.567
314.421
315.318
316.261
317.252
318.292
319.384
320.531
321.735
322.998
324.324
325.714
327.172
328.699
330.299
331.974
333.726
335.556
337.466
339.456
341.526
343.675
345.901
348.199
350.564
352.988
355.461
357.972
360.506
363.048
365.578
368.079
300.01
300.032
300.054
300.079
300.107
300.137
300.171
300.209
300.251
300.298
300.351
300.41
300.476
300.549
300.63
300.719
300.817
300.925
301.043
301.172
301.312
301.464
301.629
301.807
301.998
302.205
302.426
302.664
302.917
303.188
303.477
303.784
304.111
304.458
304.825
305.214
305.626
306.062
306.521
307.007
307.518
308.057
308.625
309.223
309.852
310.514
311.209
311.94
312.708
313.514
314.361
315.25
316.183
317.162
318.188
319.265
320.393
321.575
322.814
324.111
325.468
326.887
328.371
329.92
331.536
333.221
334.974
336.796
338.686
340.643
342.664
344.746
346.883
349.071
351.3
353.562
355.845
358.139
360.429
362.701
364.941
300.01
300.032
300.054
300.079
300.106
300.136
300.17
300.208
300.25
300.297
300.35
300.408
300.474
300.547
300.627
300.716
300.814
300.921
301.039
301.167
301.307
301.459
301.623
301.8
301.992
302.198
302.418
302.655
302.908
303.178
303.466
303.773
304.098
304.444
304.811
305.199
305.609
306.043
306.501
306.985
307.494
308.031
308.596
309.191
309.816
310.473
311.164
311.889
312.65
313.449
314.286
315.165
316.085
317.05
318.06
319.118
320.225
321.382
322.592
323.856
325.175
326.551
327.985
329.477
331.029
332.64
334.31
336.039
337.824
339.664
341.555
343.492
345.472
347.486
349.529
351.592
353.665
355.739
357.802
359.843
361.851
300.01
300.031
300.054
300.079
300.106
300.136
300.169
300.207
300.248
300.295
300.348
300.406
300.472
300.544
300.624
300.713
300.81
300.917
301.034
301.162
301.301
301.452
301.616
301.793
301.983
302.189
302.409
302.644
302.897
303.166
303.453
303.758
304.083
304.427
304.792
305.179
305.588
306.02
306.476
306.957
307.464
307.997
308.559
309.149
309.77
310.422
311.106
311.824
312.577
313.367
314.193
315.059
315.966
316.914
317.905
318.941
320.022
321.151
322.328
323.554
324.831
326.159
327.538
328.969
330.451
331.984
333.567
335.198
336.876
338.596
340.357
342.152
343.978
345.827
347.694
349.572
351.451
353.324
355.182
357.017
358.819
300.01
300.031
300.054
300.078
300.105
300.135
300.168
300.205
300.247
300.294
300.346
300.404
300.469
300.541
300.62
300.709
300.805
300.912
301.028
301.156
301.294
301.445
301.608
301.784
301.973
302.178
302.397
302.631
302.883
303.151
303.436
303.74
304.064
304.406
304.77
305.154
305.561
305.991
306.444
306.922
307.425
307.955
308.512
309.098
309.713
310.358
311.035
311.745
312.488
313.266
314.08
314.931
315.82
316.749
317.718
318.729
319.782
320.878
322.018
323.203
324.433
325.708
327.028
328.393
329.802
331.253
332.746
334.278
335.847
337.449
339.08
340.738
342.416
344.109
345.811
347.517
349.219
350.91
352.584
354.233
355.851
300.01
300.031
300.053
300.077
300.104
300.134
300.167
300.204
300.245
300.291
300.343
300.401
300.465
300.537
300.616
300.704
300.8
300.906
301.022
301.148
301.286
301.435
301.597
301.772
301.961
302.164
302.382
302.616
302.865
303.132
303.416
303.718
304.04
304.381
304.742
305.124
305.528
305.955
306.404
306.879
307.378
307.903
308.455
309.034
309.642
310.279
310.947
311.646
312.378
313.143
313.941
314.775
315.645
316.552
317.496
318.478
319.499
320.56
321.66
322.799
323.979
325.197
326.455
327.75
329.083
330.45
331.851
333.283
334.744
336.229
337.737
339.261
340.799
342.345
343.895
345.442
346.981
348.508
350.015
351.499
352.953
300.01
300.031
300.053
300.077
300.103
300.133
300.165
300.202
300.243
300.289
300.34
300.398
300.461
300.532
300.611
300.698
300.793
300.898
301.013
301.139
301.276
301.424
301.585
301.759
301.946
302.148
302.364
302.596
302.844
303.109
303.391
303.691
304.01
304.349
304.707
305.086
305.487
305.91
306.356
306.825
307.319
307.838
308.383
308.955
309.555
310.183
310.84
311.527
312.245
312.994
313.776
314.59
315.437
316.319
317.235
318.186
319.172
320.193
321.249
322.34
323.466
324.625
325.817
327.041
328.295
329.578
330.887
332.22
333.575
334.947
336.335
337.733
339.139
340.548
341.956
343.358
344.749
346.126
347.484
348.819
350.126
300.01
300.03
300.052
300.076
300.102
300.131
300.164
300.2
300.24
300.286
300.337
300.393
300.457
300.527
300.605
300.691
300.786
300.89
301.004
301.128
301.264
301.411
301.57
301.743
301.928
302.128
302.343
302.573
302.819
303.081
303.361
303.659
303.975
304.31
304.665
305.04
305.437
305.855
306.295
306.759
307.247
307.759
308.296
308.859
309.449
310.066
310.71
311.383
312.085
312.817
313.578
314.37
315.193
316.047
316.932
317.848
318.796
319.775
320.784
321.824
322.893
323.991
325.116
326.267
327.442
328.64
329.858
331.094
332.346
333.61
334.883
336.163
337.445
338.727
340.004
341.273
342.53
343.772
344.995
346.196
347.372
300.01
300.03
300.051
300.075
300.101
300.129
300.161
300.197
300.237
300.282
300.332
300.389
300.451
300.521
300.598
300.683
300.776
300.879
300.992
301.115
301.249
301.395
301.553
301.723
301.907
302.105
302.317
302.545
302.788
303.048
303.325
303.619
303.931
304.263
304.613
304.984
305.375
305.788
306.222
306.679
307.159
307.663
308.191
308.743
309.321
309.925
310.555
311.212
311.895
312.607
313.346
314.113
314.908
315.731
316.583
317.462
318.369
319.302
320.263
321.249
322.26
323.294
324.351
325.429
326.526
327.64
328.769
329.911
331.064
332.224
333.39
334.558
335.725
336.889
338.047
339.194
340.329
341.449
342.551
343.631
344.689
300.01
300.029
300.051
300.074
300.099
300.128
300.159
300.194
300.234
300.278
300.328
300.383
300.445
300.513
300.589
300.673
300.765
300.867
300.978
301.1
301.232
301.376
301.532
301.7
301.882
302.077
302.287
302.511
302.752
303.008
303.281
303.571
303.879
304.206
304.551
304.916
305.301
305.707
306.134
306.583
307.054
307.547
308.064
308.604
309.168
309.757
310.37
311.008
311.672
312.361
313.075
313.814
314.579
315.369
316.184
317.024
317.887
318.774
319.683
320.614
321.565
322.536
323.524
324.529
325.548
326.581
327.624
328.675
329.734
330.796
331.861
332.925
333.985
335.041
336.088
337.125
338.149
339.158
340.15
341.122
342.073
300.009
300.029
300.05
300.073
300.098
300.125
300.156
300.191
300.23
300.273
300.322
300.376
300.437
300.504
300.579
300.662
300.753
300.853
300.962
301.082
301.212
301.354
301.507
301.673
301.852
302.044
302.25
302.472
302.708
302.96
303.229
303.514
303.817
304.137
304.477
304.835
305.213
305.61
306.028
306.467
306.927
307.409
307.913
308.439
308.987
309.559
310.153
310.77
311.411
312.074
312.761
313.471
314.203
314.957
315.734
316.531
317.349
318.187
319.044
319.918
320.809
321.716
322.636
323.569
324.512
325.465
326.425
327.391
328.359
329.33
330.299
331.266
332.228
333.184
334.13
335.066
335.989
336.898
337.79
338.665
339.52
300.009
300.028
300.049
300.071
300.095
300.123
300.153
300.187
300.225
300.268
300.315
300.369
300.428
300.494
300.568
300.649
300.738
300.836
300.943
301.061
301.189
301.327
301.478
301.641
301.816
302.005
302.207
302.424
302.656
302.903
303.166
303.446
303.742
304.056
304.388
304.738
305.107
305.495
305.902
306.33
306.777
307.245
307.734
308.244
308.774
309.326
309.899
310.493
311.109
311.745
312.402
313.079
313.776
314.493
315.228
315.982
316.753
317.54
318.343
319.161
319.991
320.834
321.687
322.549
323.42
324.296
325.176
326.059
326.943
327.827
328.708
329.585
330.456
331.319
332.173
333.016
333.847
334.665
335.467
336.253
337.021
300.009
300.028
300.048
300.069
300.093
300.12
300.149
300.182
300.22
300.261
300.308
300.36
300.418
300.483
300.554
300.633
300.721
300.816
300.921
301.036
301.161
301.297
301.444
301.603
301.775
301.959
302.157
302.369
302.595
302.836
303.093
303.366
303.655
303.96
304.283
304.624
304.982
305.359
305.754
306.168
306.601
307.054
307.525
308.016
308.527
309.057
309.606
310.175
310.762
311.368
311.993
312.635
313.295
313.972
314.665
315.373
316.096
316.832
317.581
318.341
319.111
319.891
320.678
321.472
322.271
323.073
323.878
324.683
325.487
326.289
327.087
327.88
328.667
329.445
330.214
330.972
331.719
332.453
333.173
333.878
334.567
300.009
300.027
300.046
300.067
300.09
300.116
300.145
300.177
300.213
300.254
300.299
300.35
300.406
300.469
300.539
300.616
300.701
300.794
300.896
301.008
301.129
301.262
301.405
301.559
301.726
301.906
302.098
302.304
302.524
302.758
303.007
303.272
303.552
303.848
304.161
304.49
304.836
305.2
305.581
305.98
306.396
306.831
307.283
307.753
308.241
308.747
309.27
309.811
310.368
310.942
311.532
312.138
312.759
313.394
314.042
314.704
315.377
316.061
316.755
317.458
318.169
318.886
319.609
320.336
321.066
321.798
322.53
323.261
323.99
324.715
325.436
326.151
326.859
327.559
328.249
328.93
329.599
330.257
330.901
331.532
332.149
300.008
300.026
300.045
300.065
300.087
300.112
300.14
300.171
300.206
300.245
300.289
300.338
300.393
300.454
300.521
300.596
300.678
300.768
300.867
300.975
301.093
301.221
301.359
301.509
301.67
301.844
302.03
302.228
302.441
302.667
302.907
303.162
303.432
303.717
304.018
304.335
304.667
305.016
305.381
305.762
306.16
306.574
307.005
307.452
307.915
308.394
308.889
309.399
309.924
310.464
311.017
311.584
312.164
312.756
313.359
313.972
314.595
315.227
315.867
316.513
317.164
317.821
318.481
319.143
319.807
320.47
321.133
321.794
322.451
323.105
323.753
324.395
325.029
325.656
326.274
326.883
327.481
328.067
328.643
329.206
329.756
300.008
300.025
300.043
300.062
300.084
300.108
300.135
300.165
300.198
300.236
300.278
300.325
300.378
300.436
300.501
300.573
300.652
300.739
300.834
300.938
301.051
301.174
301.307
301.451
301.606
301.773
301.951
302.142
302.346
302.562
302.793
303.037
303.295
303.567
303.854
304.156
304.473
304.804
305.151
305.513
305.89
306.282
306.689
307.11
307.546
307.997
308.461
308.938
309.429
309.932
310.447
310.974
311.511
312.058
312.614
313.179
313.751
314.33
314.915
315.504
316.098
316.694
317.293
317.892
318.492
319.09
319.687
320.281
320.87
321.456
322.035
322.609
323.175
323.734
324.284
324.826
325.357
325.879
326.39
326.89
327.378
300.008
300.024
300.041
300.06
300.08
300.103
300.129
300.157
300.189
300.225
300.265
300.311
300.361
300.417
300.479
300.547
300.623
300.706
300.797
300.896
301.004
301.121
301.248
301.385
301.533
301.692
301.862
302.044
302.237
302.443
302.662
302.894
303.138
303.396
303.668
303.953
304.252
304.565
304.891
305.232
305.585
305.953
306.334
306.727
307.134
307.553
307.984
308.427
308.881
309.346
309.821
310.306
310.799
311.3
311.809
312.324
312.845
313.371
313.901
314.435
314.971
315.509
316.048
316.586
317.123
317.659
318.192
318.722
319.247
319.768
320.283
320.792
321.294
321.789
322.276
322.755
323.225
323.686
324.137
324.578
325.009
300.007
300.022
300.039
300.056
300.076
300.098
300.122
300.149
300.179
300.213
300.252
300.294
300.342
300.395
300.453
300.518
300.59
300.669
300.755
300.849
300.951
301.062
301.182
301.312
301.451
301.601
301.761
301.933
302.115
302.309
302.515
302.733
302.962
303.204
303.459
303.726
304.005
304.297
304.601
304.917
305.246
305.587
305.939
306.303
306.678
307.065
307.461
307.867
308.283
308.708
309.141
309.582
310.03
310.485
310.945
311.411
311.88
312.354
312.83
313.308
313.788
314.268
314.748
315.227
315.705
316.18
316.652
317.121
317.585
318.044
318.498
318.946
319.388
319.823
320.251
320.671
321.083
321.487
321.882
322.268
322.646
300.007
300.021
300.036
300.053
300.071
300.092
300.114
300.14
300.168
300.2
300.236
300.276
300.321
300.371
300.426
300.487
300.554
300.627
300.708
300.796
300.892
300.996
301.108
301.23
301.36
301.5
301.65
301.809
301.98
302.16
302.351
302.554
302.767
302.991
303.227
303.473
303.731
304
304.28
304.571
304.873
305.185
305.507
305.84
306.182
306.533
306.893
307.261
307.637
308.021
308.411
308.808
309.21
309.617
310.029
310.445
310.863
311.284
311.707
312.131
312.555
312.979
313.402
313.824
314.243
314.66
315.074
315.484
315.89
316.291
316.687
317.077
317.462
317.841
318.213
318.578
318.936
319.286
319.629
319.964
320.291
300.006
300.02
300.034
300.049
300.066
300.085
300.106
300.13
300.156
300.186
300.219
300.257
300.298
300.344
300.395
300.452
300.514
300.582
300.657
300.739
300.827
300.924
301.028
301.14
301.26
301.389
301.527
301.674
301.831
301.997
302.172
302.358
302.553
302.758
302.973
303.198
303.433
303.677
303.932
304.195
304.468
304.75
305.041
305.34
305.647
305.962
306.285
306.614
306.949
307.291
307.638
307.99
308.346
308.706
309.069
309.434
309.802
310.171
310.542
310.912
311.282
311.652
312.02
312.386
312.75
313.111
313.469
313.824
314.174
314.52
314.862
315.198
315.529
315.855
316.175
316.488
316.795
317.096
317.39
317.677
317.957
300.006
300.018
300.031
300.045
300.061
300.078
300.097
300.119
300.143
300.171
300.201
300.235
300.273
300.316
300.363
300.414
300.471
300.534
300.602
300.677
300.758
300.845
300.94
301.042
301.152
301.269
301.395
301.528
301.67
301.82
301.979
302.146
302.322
302.507
302.701
302.903
303.113
303.332
303.559
303.794
304.037
304.288
304.546
304.811
305.083
305.361
305.644
305.934
306.228
306.527
306.831
307.138
307.448
307.761
308.076
308.393
308.711
309.03
309.349
309.668
309.986
310.303
310.618
310.932
311.243
311.551
311.856
312.158
312.456
312.751
313.041
313.327
313.607
313.883
314.154
314.419
314.679
314.933
315.181
315.423
315.659
300.005
300.016
300.028
300.041
300.055
300.071
300.088
300.108
300.13
300.155
300.182
300.213
300.247
300.286
300.328
300.374
300.426
300.482
300.544
300.611
300.683
300.762
300.847
300.939
301.037
301.142
301.254
301.373
301.499
301.633
301.774
301.923
302.079
302.242
302.413
302.591
302.777
302.969
303.168
303.374
303.587
303.806
304.03
304.261
304.496
304.737
304.983
305.232
305.486
305.743
306.004
306.267
306.532
306.799
307.068
307.337
307.607
307.878
308.148
308.417
308.686
308.953
309.218
309.482
309.743
310.002
310.258
310.511
310.76
311.006
311.249
311.487
311.721
311.951
312.176
312.396
312.612
312.823
313.029
313.23
313.426
300.005
300.015
300.025
300.036
300.049
300.063
300.079
300.096
300.116
300.138
300.162
300.19
300.22
300.254
300.292
300.333
300.378
300.428
300.483
300.542
300.606
300.676
300.75
300.831
300.917
301.009
301.107
301.212
301.322
301.439
301.562
301.691
301.826
301.968
302.116
302.27
302.43
302.596
302.767
302.944
303.126
303.313
303.504
303.7
303.901
304.105
304.313
304.524
304.738
304.954
305.173
305.394
305.616
305.839
306.063
306.288
306.513
306.737
306.961
307.184
307.406
307.627
307.846
308.063
308.278
308.491
308.702
308.909
309.114
309.316
309.514
309.709
309.9
310.087
310.271
310.451
310.626
310.798
310.965
311.129
311.288
300.004
300.013
300.022
300.032
300.043
300.055
300.069
300.084
300.101
300.12
300.142
300.166
300.192
300.222
300.254
300.29
300.33
300.373
300.42
300.472
300.527
300.587
300.652
300.721
300.795
300.874
300.958
301.048
301.142
301.242
301.346
301.456
301.571
301.691
301.817
301.946
302.081
302.221
302.364
302.513
302.665
302.821
302.981
303.144
303.31
303.479
303.651
303.825
304.002
304.18
304.359
304.54
304.721
304.904
305.086
305.269
305.452
305.634
305.815
305.996
306.176
306.354
306.531
306.706
306.879
307.05
307.219
307.386
307.55
307.711
307.87
308.025
308.178
308.327
308.474
308.617
308.757
308.893
309.026
309.156
309.282
300.004
300.011
300.019
300.027
300.037
300.047
300.059
300.072
300.087
300.103
300.121
300.142
300.164
300.19
300.217
300.248
300.281
300.318
300.358
300.401
300.448
300.499
300.553
300.612
300.674
300.74
300.81
300.885
300.964
301.047
301.134
301.225
301.32
301.419
301.522
301.629
301.74
301.854
301.972
302.093
302.217
302.344
302.473
302.605
302.74
302.876
303.015
303.155
303.296
303.439
303.582
303.727
303.871
304.016
304.161
304.306
304.451
304.595
304.738
304.881
305.022
305.163
305.302
305.439
305.575
305.709
305.842
305.972
306.1
306.226
306.349
306.47
306.589
306.705
306.818
306.929
307.038
307.143
307.246
307.346
307.444
300.003
300.009
300.016
300.023
300.031
300.04
300.049
300.06
300.073
300.086
300.102
300.119
300.137
300.158
300.181
300.207
300.234
300.265
300.298
300.333
300.372
300.413
300.458
300.506
300.557
300.611
300.668
300.729
300.792
300.86
300.93
301.003
301.08
301.16
301.242
301.328
301.416
301.507
301.601
301.696
301.795
301.895
301.997
302.101
302.207
302.314
302.422
302.531
302.641
302.752
302.864
302.975
303.087
303.199
303.311
303.423
303.534
303.645
303.755
303.865
303.973
304.081
304.187
304.292
304.395
304.497
304.598
304.696
304.794
304.889
304.982
305.074
305.163
305.251
305.337
305.42
305.502
305.581
305.658
305.734
305.807
300.002
300.008
300.013
300.019
300.025
300.032
300.04
300.049
300.059
300.07
300.083
300.097
300.112
300.129
300.147
300.168
300.19
300.215
300.241
300.27
300.3
300.334
300.369
300.407
300.447
300.49
300.535
300.583
300.633
300.686
300.741
300.799
300.858
300.921
300.985
301.051
301.119
301.19
301.262
301.335
301.411
301.487
301.565
301.645
301.725
301.806
301.888
301.971
302.054
302.138
302.221
302.305
302.39
302.473
302.557
302.641
302.724
302.806
302.888
302.97
303.05
303.13
303.208
303.286
303.362
303.437
303.511
303.584
303.655
303.725
303.794
303.861
303.926
303.99
304.053
304.114
304.173
304.231
304.287
304.342
304.395
300.002
300.006
300.01
300.015
300.02
300.026
300.032
300.039
300.047
300.056
300.066
300.077
300.089
300.102
300.117
300.133
300.15
300.169
300.19
300.212
300.236
300.262
300.289
300.318
300.349
300.382
300.417
300.454
300.492
300.532
300.574
300.617
300.662
300.709
300.758
300.807
300.858
300.911
300.965
301.019
301.075
301.132
301.19
301.248
301.307
301.367
301.427
301.488
301.549
301.61
301.671
301.732
301.793
301.854
301.915
301.975
302.035
302.094
302.153
302.212
302.27
302.327
302.383
302.438
302.493
302.546
302.599
302.651
302.701
302.751
302.799
302.847
302.893
302.938
302.982
303.025
303.067
303.108
303.148
303.186
303.224
300.002
300.005
300.008
300.012
300.016
300.02
300.025
300.031
300.037
300.044
300.051
300.06
300.069
300.079
300.09
300.102
300.116
300.13
300.146
300.163
300.181
300.2
300.221
300.243
300.266
300.291
300.316
300.344
300.372
300.402
300.432
300.464
300.498
300.532
300.567
300.603
300.641
300.679
300.717
300.757
300.797
300.838
300.879
300.921
300.964
301.006
301.049
301.092
301.135
301.178
301.221
301.264
301.307
301.35
301.393
301.435
301.477
301.519
301.56
301.6
301.64
301.68
301.719
301.757
301.795
301.832
301.868
301.904
301.939
301.973
302.006
302.038
302.07
302.101
302.131
302.161
302.189
302.217
302.244
302.27
302.296
300.001
300.004
300.006
300.009
300.012
300.016
300.019
300.024
300.028
300.034
300.039
300.046
300.053
300.06
300.069
300.078
300.088
300.099
300.111
300.123
300.137
300.151
300.166
300.183
300.2
300.218
300.237
300.257
300.277
300.299
300.321
300.344
300.368
300.393
300.418
300.444
300.471
300.498
300.525
300.553
300.582
300.611
300.64
300.669
300.699
300.728
300.758
300.788
300.818
300.848
300.878
300.908
300.937
300.967
300.996
301.025
301.054
301.082
301.11
301.138
301.165
301.192
301.218
301.244
301.27
301.295
301.319
301.343
301.367
301.39
301.412
301.434
301.455
301.476
301.496
301.515
301.534
301.553
301.571
301.588
301.605
300.001
300.003
300.005
300.007
300.01
300.012
300.015
300.019
300.022
300.026
300.031
300.036
300.041
300.047
300.054
300.061
300.068
300.077
300.086
300.095
300.105
300.116
300.128
300.14
300.153
300.166
300.181
300.195
300.211
300.227
300.243
300.26
300.278
300.296
300.314
300.333
300.352
300.372
300.392
300.412
300.433
300.453
300.474
300.495
300.516
300.538
300.559
300.58
300.601
300.622
300.643
300.664
300.685
300.706
300.726
300.746
300.766
300.786
300.805
300.824
300.843
300.862
300.88
300.898
300.915
300.932
300.949
300.965
300.981
300.997
301.012
301.027
301.041
301.056
301.069
301.083
301.095
301.108
301.12
301.132
301.143
300.001
300.002
300.004
300.006
300.008
300.011
300.013
300.016
300.019
300.022
300.026
300.03
300.035
300.04
300.045
300.051
300.058
300.065
300.072
300.08
300.089
300.098
300.107
300.117
300.128
300.139
300.15
300.163
300.175
300.188
300.202
300.215
300.23
300.244
300.259
300.274
300.29
300.306
300.322
300.338
300.354
300.371
300.387
300.404
300.421
300.437
300.454
300.471
300.487
300.504
300.52
300.537
300.553
300.569
300.585
300.601
300.616
300.631
300.646
300.661
300.676
300.69
300.704
300.717
300.731
300.744
300.757
300.769
300.782
300.793
300.805
300.816
300.827
300.838
300.849
300.859
300.869
300.878
300.887
300.896
300.905
405.212
413.195
419.832
425.537
430.515
434.874
438.676
441.952
444.718
446.971
448.701
449.884
450.488
450.466
449.756
448.272
445.893
442.433
437.573
430.671
420.098
412.564
406.521
401.366
396.81
392.69
388.905
385.385
382.084
378.966
376.003
373.176
370.468
367.867
365.364
362.951
360.622
358.371
356.196
354.093
352.059
350.092
348.191
346.354
344.578
342.864
341.208
339.61
338.068
336.58
335.146
333.763
332.429
331.144
329.905
328.711
327.56
326.451
325.382
324.352
323.359
322.401
321.477
320.587
319.728
318.899
318.1
317.328
316.584
315.866
315.173
314.504
313.859
313.236
312.635
312.055
311.496
310.956
310.436
309.934
309.45
308.984
308.535
308.102
307.686
307.285
306.9
306.529
306.173
305.832
305.504
305.189
304.888
304.599
304.323
304.059
303.807
303.566
303.337
303.118
302.911
302.713
302.526
302.348
302.18
302.021
301.87
301.728
301.595
301.469
301.351
301.241
301.137
301.04
300.95
300.866
300.787
300.715
300.647
300.585
300.528
300.475
300.427
300.382
300.341
300.304
300.271
300.24
300.212
300.187
300.165
300.145
300.127
300.11
300.096
300.083
300.072
300.062
300.053
300.045
300.039
300.033
300.028
300.023
300.02
300.016
300.014
300.011
300.009
300.008
300.006
300.005
300.004
300.003
300.003
300.002
300.002
300.001
300.001
300.001
300
400.435
407.391
413.573
419.047
423.893
428.172
431.923
435.169
437.917
440.163
441.895
443.088
443.709
443.716
443.048
441.628
439.352
436.074
431.59
425.646
418.219
411.649
405.98
401.005
396.549
392.492
388.749
385.26
381.98
378.878
375.928
373.111
370.411
367.817
365.319
362.91
360.584
358.337
356.164
354.063
352.031
350.066
348.167
346.331
344.557
342.844
341.189
339.592
338.052
336.565
335.132
333.749
332.417
331.132
329.895
328.701
327.551
326.443
325.375
324.345
323.352
322.395
321.472
320.582
319.723
318.895
318.096
317.325
316.581
315.863
315.17
314.502
313.857
313.234
312.633
312.054
311.495
310.955
310.435
309.933
309.449
308.983
308.534
308.102
307.686
307.285
306.9
306.529
306.173
305.831
305.503
305.189
304.888
304.599
304.323
304.059
303.807
303.566
303.337
303.119
302.911
302.713
302.526
302.348
302.18
302.021
301.87
301.729
301.595
301.469
301.351
301.241
301.137
301.04
300.95
300.866
300.787
300.715
300.647
300.585
300.528
300.475
300.427
300.382
300.342
300.304
300.271
300.24
300.212
300.187
300.165
300.145
300.127
300.11
300.096
300.083
300.072
300.062
300.053
300.045
300.039
300.033
300.028
300.023
300.02
300.016
300.014
300.011
300.009
300.008
300.006
300.005
300.004
300.003
300.003
300.002
300.002
300.001
300.001
300.001
300
396.287
402.258
407.825
412.913
417.509
421.624
425.266
428.44
431.144
433.369
435.097
436.305
436.961
437.023
436.44
435.149
433.07
430.112
426.184
421.256
415.565
410.021
404.914
400.259
395.999
392.07
388.414
384.988
381.756
378.689
375.767
372.971
370.289
367.709
365.223
362.823
360.506
358.265
356.098
354.002
351.975
350.015
348.119
346.287
344.516
342.805
341.154
339.559
338.021
336.537
335.105
333.725
332.395
331.112
329.876
328.684
327.536
326.429
325.362
324.333
323.341
322.385
321.463
320.573
319.716
318.888
318.09
317.319
316.576
315.859