/*--------------------------------*- C++ -*----------------------------------*\
  =========                 |
  \\      /  F ield         | OpenFOAM: The Open Source CFD Toolbox
   \\    /   O peration     | Website:  https://openfoam.org
    \\  /    A nd           | Version:  7
     \\/     M anipulation  |
\*---------------------------------------------------------------------------*/
FoamFile
{
    version     2.0;
    format      ascii;
    class       volScalarField;
    location    "7.17";
    object      T;
}
// * * * * * * * * * * * * * * * * * * * * * * * * * * * * * * * * * * * * * //

dimensions      [0 0 0 1 0 0 0];

internalField   nonuniform List<scalar> 
12013
(
300.118
300.357
300.601
300.85
301.1
301.351
301.6
301.847
302.09
302.329
302.563
302.791
303.013
303.228
303.436
303.637
303.832
304.02
304.201
304.376
304.544
304.706
304.863
305.014
305.16
305.301
305.437
305.57
305.698
305.824
305.946
306.066
306.184
306.301
306.417
306.532
306.649
306.766
306.886
307.01
307.137
307.27
307.411
307.559
307.718
307.888
308.072
308.273
308.492
308.732
308.997
309.289
309.612
309.97
310.367
310.809
311.299
311.843
312.448
313.12
313.866
314.693
315.611
316.629
317.757
319.005
320.387
321.917
323.609
325.482
327.556
329.855
332.405
335.241
338.403
341.944
345.932
350.466
355.69
361.848
369.404
300.118
300.357
300.602
300.85
301.101
301.352
301.601
301.848
302.091
302.33
302.564
302.792
303.014
303.229
303.438
303.639
303.834
304.022
304.203
304.378
304.546
304.709
304.865
305.016
305.162
305.303
305.44
305.572
305.701
305.826
305.949
306.069
306.187
306.303
306.419
306.535
306.651
306.769
306.889
307.012
307.139
307.273
307.413
307.561
307.719
307.89
308.074
308.274
308.493
308.733
308.997
309.289
309.612
309.969
310.366
310.807
311.296
311.84
312.444
313.114
313.858
314.684
315.6
316.615
317.74
318.985
320.362
321.886
323.571
325.436
327.499
329.783
332.314
335.125
338.253
341.744
345.658
350.073
355.087
360.826
367.401
300.118
300.357
300.602
300.851
301.102
301.353
301.603
301.85
302.094
302.333
302.567
302.795
303.018
303.233
303.442
303.643
303.838
304.026
304.208
304.383
304.551
304.714
304.87
305.022
305.168
305.309
305.445
305.578
305.706
305.832
305.954
306.074
306.192
306.309
306.425
306.54
306.656
306.774
306.894
307.017
307.144
307.277
307.417
307.565
307.723
307.893
308.077
308.277
308.495
308.735
308.999
309.29
309.611
309.968
310.364
310.803
311.29
311.832
312.434
313.101
313.843
314.665
315.576
316.585
317.703
318.94
320.307
321.819
323.489
325.334
327.373
329.626
332.118
334.875
337.93
341.32
345.088
349.282
353.949
359.117
364.747
300.118
300.358
300.604
300.853
301.104
301.355
301.606
301.853
302.098
302.337
302.572
302.801
303.023
303.239
303.448
303.65
303.846
304.034
304.216
304.391
304.559
304.722
304.879
305.03
305.176
305.318
305.454
305.587
305.716
305.841
305.964
306.084
306.202
306.318
306.434
306.549
306.665
306.783
306.903
307.025
307.153
307.285
307.425
307.573
307.73
307.9
308.083
308.282
308.5
308.738
309.001
309.291
309.611
309.966
310.359
310.796
311.281
311.82
312.417
313.08
313.816
314.632
315.535
316.536
317.642
318.866
320.217
321.708
323.354
325.169
327.169
329.373
331.802
334.477
337.423
340.666
344.231
348.14
352.401
356.996
361.853
300.118
300.359
300.605
300.855
301.107
301.359
301.61
301.859
302.103
302.344
302.579
302.809
303.032
303.248
303.458
303.66
303.856
304.045
304.227
304.402
304.572
304.735
304.892
305.043
305.19
305.331
305.468
305.601
305.73
305.855
305.977
306.097
306.215
306.332
306.447
306.563
306.679
306.796
306.915
307.038
307.165
307.297
307.436
307.583
307.74
307.909
308.092
308.29
308.506
308.743
309.004
309.292
309.61
309.963
310.353
310.787
311.268
311.801
312.393
313.05
313.778
314.584
315.477
316.464
317.555
318.759
320.086
321.55
323.16
324.932
326.879
329.016
331.36
333.926
336.732
339.791
343.116
346.709
350.558
354.63
358.859
300.119
300.36
300.607
300.858
301.111
301.364
301.616
301.866
302.111
302.353
302.589
302.819
303.043
303.26
303.471
303.674
303.871
304.06
304.243
304.419
304.588
304.752
304.909
305.061
305.208
305.35
305.487
305.62
305.749
305.874
305.997
306.117
306.234
306.351
306.466
306.582
306.697
306.814
306.933
307.056
307.182
307.314
307.452
307.598
307.755
307.922
308.103
308.3
308.515
308.75
309.009
309.295
309.61
309.959
310.345
310.774
311.249
311.777
312.361
313.009
313.726
314.52
315.398
316.367
317.436
318.614
319.911
321.337
322.902
324.618
326.497
328.549
330.788
333.223
335.864
338.717
341.783
345.053
348.51
352.119
355.826
300.119
300.362
300.61
300.862
301.117
301.371
301.624
301.875
302.122
302.365
302.602
302.834
303.059
303.277
303.488
303.693
303.89
304.08
304.264
304.44
304.611
304.775
304.933
305.085
305.232
305.374
305.512
305.645
305.774
305.9
306.022
306.142
306.26
306.376
306.492
306.607
306.722
306.838
306.957
307.079
307.204
307.335
307.473
307.618
307.773
307.94
308.119
308.314
308.527
308.76
309.016
309.298
309.609
309.954
310.335
310.758
311.226
311.745
312.32
312.956
313.659
314.437
315.295
316.242
317.284
318.43
319.688
321.068
322.577
324.225
326.021
327.973
330.09
332.377
334.837
337.471
340.273
343.232
346.326
349.525
352.79
300.12
300.364
300.614
300.868
301.124
301.38
301.634
301.887
302.136
302.38
302.619
302.852
303.079
303.298
303.511
303.717
303.915
304.106
304.291
304.469
304.64
304.804
304.963
305.116
305.264
305.406
305.544
305.677
305.807
305.932
306.055
306.175
306.293
306.409
306.524
306.639
306.754
306.87
306.988
307.109
307.234
307.364
307.5
307.644
307.798
307.963
308.14
308.333
308.543
308.773
309.025
309.303
309.61
309.949
310.323
310.738
311.198
311.706
312.268
312.89
313.577
314.334
315.169
316.088
317.097
318.203
319.415
320.739
322.182
323.751
325.453
327.293
329.275
331.402
333.674
336.085
338.63
341.292
344.055
346.893
349.775
300.121
300.367
300.619
300.875
301.132
301.391
301.648
301.902
302.153
302.399
302.64
302.875
303.104
303.325
303.54
303.747
303.947
304.139
304.325
304.504
304.676
304.842
305.002
305.155
305.304
305.447
305.585
305.719
305.848
305.974
306.097
306.217
306.335
306.451
306.565
306.68
306.794
306.91
307.027
307.147
307.271
307.4
307.535
307.678
307.829
307.992
308.167
308.357
308.564
308.79
309.038
309.31
309.611
309.943
310.31
310.716
311.164
311.659
312.207
312.811
313.477
314.211
315.017
315.903
316.873
317.934
319.091
320.352
321.72
323.201
324.799
326.517
328.357
330.319
332.399
334.592
336.889
339.277
341.739
344.256
346.804
300.122
300.37
300.625
300.883
301.143
301.404
301.664
301.921
302.175
302.424
302.667
302.904
303.135
303.359
303.575
303.784
303.986
304.181
304.368
304.548
304.722
304.889
305.049
305.204
305.353
305.497
305.636
305.77
305.9
306.026
306.149
306.269
306.387
306.503
306.617
306.731
306.845
306.96
307.076
307.195
307.318
307.445
307.579
307.719
307.869
308.029
308.201
308.388
308.59
308.812
309.055
309.321
309.615
309.939
310.296
310.69
311.125
311.606
312.136
312.719
313.361
314.067
314.841
315.688
316.614
317.623
318.719
319.909
321.195
322.58
324.068
325.659
327.353
329.148
331.04
333.022
335.086
337.22
339.411
341.642
343.896
300.124
300.375
300.632
300.893
301.157
301.421
301.684
301.944
302.201
302.453
302.7
302.94
303.173
303.4
303.619
303.831
304.035
304.231
304.42
304.603
304.778
304.946
305.108
305.264
305.415
305.559
305.699
305.834
305.964
306.091
306.214
306.334
306.451
306.567
306.681
306.794
306.908
307.022
307.137
307.255
307.376
307.502
307.633
307.772
307.919
308.075
308.244
308.427
308.625
308.841
309.077
309.337
309.622
309.936
310.282
310.663
311.083
311.546
312.056
312.616
313.23
313.904
314.641
315.445
316.321
317.273
318.304
319.417
320.615
321.9
323.274
324.735
326.282
327.913
329.623
331.405
333.252
335.154
337.099
339.075
341.068
300.125
300.38
300.641
300.906
301.173
301.441
301.708
301.973
302.233
302.489
302.739
302.983
303.22
303.45
303.672
303.887
304.094
304.293
304.485
304.669
304.846
305.017
305.18
305.338
305.489
305.635
305.776
305.911
306.043
306.17
306.293
306.413
306.53
306.646
306.759
306.872
306.985
307.098
307.212
307.328
307.448
307.571
307.701
307.836
307.98
308.133
308.298
308.476
308.668
308.878
309.108
309.359
309.634
309.937
310.27
310.637
311.04
311.483
311.969
312.502
313.086
313.725
314.421
315.179
316.001
316.891
317.851
318.884
319.991
321.174
322.431
323.763
325.166
326.639
328.175
329.771
331.417
333.107
334.831
336.578
338.339
300.127
300.386
300.652
300.921
301.193
301.466
301.738
302.007
302.272
302.533
302.787
303.036
303.277
303.511
303.737
303.955
304.165
304.368
304.562
304.749
304.929
305.102
305.268
305.427
305.58
305.727
305.869
306.006
306.138
306.265
306.389
306.509
306.626
306.741
306.855
306.967
307.078
307.19
307.303
307.417
307.535
307.657
307.783
307.916
308.056
308.205
308.365
308.538
308.724
308.927
309.148
309.39
309.654
309.945
310.263
310.613
310.997
311.418
311.879
312.383
312.934
313.534
314.186
314.894
315.659
316.484
317.371
318.322
319.337
320.416
321.558
322.763
324.028
325.349
326.723
328.145
329.607
331.104
332.628
334.171
335.726
300.13
300.394
300.664
300.94
301.217
301.496
301.773
302.048
302.319
302.585
302.845
303.099
303.345
303.583
303.814
304.037
304.251
304.457
304.656
304.846
305.029
305.204
305.373
305.534
305.689
305.838
305.981
306.119
306.252
306.38
306.504
306.625
306.742
306.857
306.969
307.081
307.191
307.302
307.413
307.526
307.641
307.76
307.883
308.013
308.149
308.294
308.448
308.615
308.794
308.989
309.201
309.432
309.685
309.961
310.264
310.595
310.958
311.355
311.789
312.262
312.777
313.336
313.942
314.598
315.304
316.063
316.876
317.743
318.666
319.643
320.674
321.757
322.89
324.069
325.292
326.553
327.847
329.17
330.514
331.874
333.244
300.133
300.403
300.68
300.961
301.246
301.531
301.815
302.097
302.375
302.647
302.914
303.174
303.426
303.67
303.906
304.134
304.354
304.565
304.767
304.962
305.148
305.327
305.498
305.663
305.82
305.971
306.116
306.255
306.389
306.518
306.642
306.763
306.88
306.995
307.107
307.217
307.327
307.436
307.545
307.656
307.769
307.885
308.005
308.13
308.262
308.402
308.551
308.71
308.882
309.068
309.27
309.49
309.729
309.991
310.277
310.588
310.929
311.3
311.705
312.145
312.622
313.139
313.698
314.3
314.946
315.638
316.377
317.163
317.995
318.874
319.797
320.765
321.773
322.821
323.903
325.018
326.16
327.324
328.508
329.704
330.909
300.136
300.414
300.698
300.987
301.28
301.573
301.865
302.155
302.441
302.721
302.995
303.263
303.522
303.773
304.016
304.25
304.476
304.692
304.9
305.099
305.29
305.473
305.648
305.815
305.976
306.129
306.276
306.417
306.552
306.682
306.807
306.928
307.045
307.159
307.271
307.38
307.488
307.596
307.703
307.812
307.922
308.035
308.151
308.272
308.4
308.534
308.676
308.829
308.992
309.169
309.36
309.567
309.793
310.038
310.306
310.597
310.914
311.259
311.633
312.039
312.478
312.952
313.462
314.011
314.597
315.224
315.89
316.596
317.341
318.126
318.949
319.808
320.701
321.626
322.581
323.562
324.565
325.588
326.627
327.677
328.734
300.141
300.426
300.72
301.018
301.32
301.623
301.924
302.224
302.519
302.809
303.092
303.368
303.636
303.896
304.146
304.388
304.62
304.843
305.057
305.262
305.458
305.646
305.825
305.996
306.16
306.316
306.465
306.608
306.745
306.876
307.002
307.123
307.241
307.355
307.465
307.574
307.681
307.786
307.892
307.998
308.105
308.214
308.327
308.443
308.565
308.693
308.829
308.973
309.128
309.295
309.475
309.669
309.88
310.108
310.357
310.627
310.919
311.237
311.58
311.952
312.352
312.784
313.246
313.741
314.27
314.832
315.428
316.059
316.722
317.418
318.146
318.905
319.692
320.506
321.344
322.204
323.083
323.979
324.887
325.807
326.733
300.146
300.441
300.745
301.054
301.367
301.681
301.994
302.305
302.611
302.912
303.206
303.492
303.77
304.04
304.299
304.55
304.791
305.021
305.243
305.454
305.657
305.85
306.034
306.209
306.377
306.536
306.688
306.833
306.972
307.105
307.232
307.354
307.471
307.585
307.695
307.802
307.907
308.011
308.114
308.217
308.321
308.427
308.535
308.647
308.763
308.885
309.013
309.15
309.295
309.452
309.619
309.8
309.996
310.207
310.437
310.684
310.953
311.243
311.556
311.893
312.255
312.644
313.06
313.504
313.977
314.478
315.008
315.566
316.153
316.767
317.408
318.074
318.764
319.477
320.21
320.961
321.728
322.51
323.303
324.106
324.915
300.151
300.459
300.775
301.097
301.423
301.75
302.076
302.4
302.719
303.033
303.339
303.638
303.928
304.209
304.48
304.74
304.991
305.231
305.46
305.68
305.889
306.089
306.279
306.459
306.631
306.794
306.95
307.098
307.238
307.372
307.501
307.623
307.741
307.854
307.963
308.07
308.173
308.275
308.376
308.476
308.577
308.678
308.782
308.889
308.999
309.114
309.235
309.363
309.499
309.644
309.8
309.967
310.147
310.342
310.551
310.777
311.021
311.284
311.567
311.871
312.196
312.544
312.916
313.311
313.731
314.174
314.642
315.134
315.65
316.189
316.75
317.332
317.934
318.555
319.194
319.848
320.516
321.196
321.886
322.585
323.29
300.158
300.48
300.81
301.147
301.488
301.83
302.172
302.511
302.846
303.175
303.496
303.809
304.113
304.407
304.691
304.963
305.225
305.476
305.715
305.943
306.161
306.368
306.564
306.751
306.928
307.095
307.254
307.405
307.548
307.684
307.814
307.937
308.055
308.168
308.277
308.382
308.484
308.584
308.682
308.779
308.876
308.973
309.072
309.174
309.278
309.386
309.499
309.619
309.745
309.879
310.022
310.176
310.341
310.518
310.708
310.913
311.133
311.37
311.623
311.895
312.185
312.495
312.824
313.173
313.543
313.934
314.345
314.776
315.226
315.697
316.185
316.692
317.216
317.755
318.309
318.876
319.455
320.045
320.644
321.251
321.863
300.166
300.504
300.851
301.206
301.564
301.924
302.284
302.642
302.994
303.341
303.679
304.009
304.329
304.639
304.937
305.224
305.498
305.761
306.012
306.25
306.477
306.692
306.896
307.089
307.272
307.444
307.608
307.762
307.908
308.046
308.177
308.301
308.419
308.532
308.64
308.744
308.844
308.942
309.037
309.131
309.224
309.317
309.411
309.507
309.605
309.706
309.812
309.922
310.039
310.162
310.293
310.433
310.582
310.743
310.914
311.099
311.296
311.507
311.733
311.974
312.231
312.505
312.795
313.102
313.426
313.768
314.127
314.502
314.894
315.303
315.727
316.166
316.619
317.086
317.565
318.055
318.556
319.066
319.584
320.109
320.64
300.176
300.533
300.9
301.274
301.653
302.035
302.415
302.794
303.167
303.534
303.893
304.242
304.581
304.908
305.223
305.526
305.816
306.092
306.355
306.606
306.843
307.067
307.28
307.48
307.669
307.847
308.015
308.173
308.322
308.462
308.595
308.72
308.838
308.951
309.058
309.161
309.259
309.354
309.447
309.537
309.627
309.715
309.804
309.894
309.986
310.08
310.178
310.28
310.386
310.499
310.618
310.744
310.879
311.023
311.177
311.341
311.517
311.705
311.904
312.117
312.344
312.584
312.838
313.106
313.389
313.686
313.998
314.324
314.664
315.017
315.383
315.762
316.154
316.556
316.969
317.392
317.823
318.263
318.71
319.164
319.622
300.187
300.566
300.956
301.354
301.757
302.163
302.568
302.971
303.369
303.759
304.141
304.513
304.873
305.221
305.555
305.876
306.183
306.475
306.752
307.015
307.264
307.499
307.72
307.929
308.125
308.309
308.482
308.644
308.796
308.939
309.073
309.199
309.318
309.43
309.537
309.638
309.734
309.827
309.916
310.003
310.089
310.173
310.257
310.341
310.426
310.513
310.603
310.696
310.793
310.895
311.003
311.117
311.238
311.366
311.503
311.649
311.804
311.969
312.145
312.332
312.53
312.74
312.961
313.195
313.44
313.698
313.968
314.249
314.542
314.847
315.163
315.489
315.825
316.171
316.526
316.89
317.261
317.639
318.024
318.414
318.81
300.199
300.604
301.021
301.447
301.878
302.312
302.746
303.177
303.603
304.021
304.429
304.827
305.211
305.582
305.939
306.28
306.605
306.914
307.208
307.485
307.746
307.993
308.224
308.441
308.645
308.835
309.013
309.18
309.335
309.481
309.617
309.744
309.863
309.975
310.08
310.18
310.274
310.364
310.451
310.534
310.615
310.695
310.773
310.852
310.931
311.011
311.093
311.178
311.265
311.357
311.454
311.555
311.663
311.777
311.898
312.026
312.163
312.308
312.462
312.625
312.798
312.98
313.172
313.374
313.587
313.809
314.042
314.284
314.536
314.798
315.069
315.349
315.638
315.935
316.239
316.551
316.869
317.194
317.524
317.86
318.2
300.214
300.649
301.097
301.555
302.019
302.486
302.952
303.416
303.874
304.323
304.762
305.189
305.602
305.999
306.38
306.743
307.089
307.418
307.728
308.021
308.296
308.555
308.797
309.024
309.235
309.432
309.616
309.786
309.945
310.093
310.231
310.358
310.478
310.589
310.693
310.791
310.883
310.971
311.054
311.133
311.21
311.285
311.359
311.431
311.504
311.577
311.652
311.728
311.807
311.889
311.975
312.065
312.16
312.261
312.367
312.48
312.599
312.726
312.86
313.002
313.151
313.309
313.475
313.65
313.833
314.024
314.224
314.433
314.649
314.874
315.106
315.346
315.593
315.847
316.108
316.375
316.648
316.926
317.209
317.497
317.788
300.231
300.702
301.186
301.68
302.182
302.687
303.192
303.693
304.188
304.673
305.147
305.606
306.05
306.476
306.884
307.273
307.642
307.991
308.32
308.63
308.92
309.191
309.445
309.681
309.9
310.104
310.293
310.468
310.63
310.78
310.919
311.048
311.167
311.277
311.38
311.476
311.566
311.65
311.73
311.805
311.878
311.948
312.016
312.083
312.149
312.216
312.283
312.352
312.422
312.495
312.571
312.651
312.734
312.822
312.915
313.014
313.118
313.228
313.344
313.467
313.596
313.732
313.875
314.026
314.183
314.348
314.519
314.698
314.883
315.076
315.275
315.48
315.691
315.909
316.132
316.36
316.594
316.832
317.074
317.32
317.57
300.251
300.762
301.288
301.826
302.371
302.92
303.469
304.013
304.55
305.076
305.589
306.085
306.564
307.022
307.46
307.876
308.27
308.641
308.99
309.317
309.622
309.907
310.172
310.418
310.645
310.855
311.05
311.229
311.394
311.546
311.685
311.814
311.933
312.042
312.143
312.237
312.324
312.405
312.481
312.552
312.62
312.685
312.748
312.81
312.87
312.93
312.99
313.052
313.114
313.178
313.245
313.315
313.388
313.465
313.546
313.631
313.721
313.816
313.917
314.023
314.134
314.252
314.375
314.504
314.639
314.78
314.927
315.081
315.239
315.404
315.574
315.75
315.931
316.117
316.308
316.503
316.702
316.906
317.114
317.325
317.539
300.275
300.833
301.408
301.995
302.591
303.19
303.789
304.383
304.968
305.54
306.096
306.634
307.15
307.644
308.114
308.559
308.979
309.374
309.743
310.088
310.409
310.707
310.983
311.238
311.473
311.69
311.889
312.071
312.238
312.392
312.532
312.66
312.778
312.885
312.984
313.075
313.159
313.236
313.308
313.376
313.439
313.499
313.557
313.613
313.667
313.721
313.775
313.829
313.884
313.941
313.999
314.06
314.123
314.19
314.26
314.334
314.412
314.494
314.581
314.672
314.768
314.869
314.975
315.086
315.202
315.323
315.45
315.581
315.717
315.858
316.004
316.154
316.309
316.468
316.632
316.799
316.97
317.144
317.322
317.503
317.686
300.302
300.915
301.546
302.191
302.845
303.503
304.159
304.808
305.447
306.071
306.675
307.258
307.817
308.349
308.853
309.329
309.776
310.195
310.586
310.948
311.285
311.596
311.882
312.146
312.387
312.609
312.811
312.996
313.165
313.319
313.458
313.586
313.701
313.807
313.903
313.991
314.071
314.144
314.212
314.275
314.334
314.39
314.442
314.493
314.542
314.59
314.637
314.685
314.733
314.783
314.834
314.886
314.941
314.999
315.06
315.124
315.191
315.262
315.337
315.416
315.498
315.585
315.677
315.772
315.872
315.976
316.085
316.198
316.315
316.436
316.561
316.69
316.823
316.96
317.1
317.244
317.39
317.54
317.692
317.847
318.005
300.333
301.01
301.707
302.418
303.139
303.863
304.584
305.297
305.997
306.677
307.335
307.967
308.571
309.143
309.684
310.192
310.667
311.11
311.52
311.901
312.251
312.574
312.869
313.14
313.387
313.612
313.817
314.003
314.172
314.325
314.464
314.589
314.702
314.805
314.897
314.981
315.058
315.127
315.191
315.25
315.304
315.355
315.402
315.448
315.492
315.534
315.576
315.618
315.661
315.704
315.748
315.794
315.842
315.892
315.945
316
316.059
316.12
316.185
316.253
316.325
316.4
316.48
316.562
316.649
316.739
316.833
316.93
317.031
317.136
317.244
317.355
317.47
317.587
317.708
317.832
317.958
318.087
318.218
318.352
318.487
300.369
301.12
301.892
302.68
303.478
304.278
305.073
305.857
306.624
307.368
308.084
308.769
309.42
310.034
310.612
311.152
311.654
312.12
312.55
312.946
313.309
313.641
313.944
314.219
314.47
314.697
314.903
315.088
315.256
315.407
315.543
315.665
315.775
315.874
315.963
316.043
316.115
316.181
316.24
316.295
316.345
316.391
316.434
316.475
316.515
316.553
316.59
316.628
316.665
316.703
316.742
316.783
316.825
316.869
316.915
316.963
317.014
317.068
317.125
317.185
317.248
317.313
317.382
317.455
317.53
317.609
317.691
317.775
317.863
317.954
318.048
318.145
318.245
318.347
318.451
318.558
318.668
318.779
318.893
319.008
319.126
300.411
301.247
302.107
302.983
303.869
304.755
305.634
306.497
307.338
308.15
308.929
309.669
310.369
311.027
311.641
312.211
312.739
313.226
313.672
314.08
314.453
314.792
315.099
315.378
315.629
315.856
316.06
316.244
316.408
316.556
316.688
316.807
316.913
317.007
317.092
317.168
317.237
317.298
317.354
317.404
317.451
317.493
317.533
317.571
317.607
317.641
317.675
317.709
317.743
317.777
317.812
317.848
317.886
317.926
317.967
318.01
318.056
318.104
318.155
318.208
318.264
318.323
318.384
318.448
318.515
318.584
318.657
318.731
318.809
318.889
318.972
319.056
319.144
319.233
319.325
319.418
319.514
319.611
319.71
319.811
319.913
300.46
301.394
302.354
303.332
304.318
305.302
306.274
307.225
308.147
309.033
309.876
310.674
311.423
312.122
312.77
313.369
313.919
314.422
314.88
315.298
315.676
316.017
316.326
316.603
316.853
317.077
317.278
317.457
317.617
317.761
317.888
318.002
318.104
318.194
318.275
318.347
318.412
318.47
318.523
318.571
318.614
318.655
318.692
318.728
318.761
318.794
318.826
318.857
318.889
318.921
318.954
318.988
319.024
319.06
319.099
319.139
319.181
319.225
319.272
319.321
319.372
319.425
319.481
319.539
319.599
319.662
319.727
319.794
319.864
319.935
320.009
320.084
320.162
320.241
320.322
320.405
320.489
320.575
320.662
320.75
320.84
300.516
301.564
302.64
303.733
304.833
305.926
307.002
308.049
309.057
310.02
310.93
311.785
312.581
313.317
313.995
314.616
315.182
315.697
316.162
316.583
316.961
317.302
317.607
317.881
318.125
318.344
318.539
318.712
318.867
319.005
319.128
319.237
319.334
319.421
319.498
319.568
319.63
319.686
319.737
319.783
319.825
319.865
319.902
319.937
319.97
320.003
320.035
320.066
320.098
320.13
320.163
320.196
320.231
320.267
320.304
320.344
320.384
320.427
320.471
320.518
320.566
320.616
320.668
320.722
320.778
320.836
320.896
320.958
321.021
321.086
321.153
321.221
321.291
321.363
321.435
321.509
321.585
321.661
321.738
321.816
321.896
300.581
301.76
302.968
304.193
305.421
306.636
307.825
308.975
310.074
311.114
312.09
312.997
313.834
314.602
315.303
315.938
316.513
317.031
317.496
317.914
318.287
318.621
318.92
319.186
319.423
319.633
319.821
319.988
320.136
320.268
320.386
320.491
320.585
320.669
320.744
320.812
320.874
320.929
320.98
321.027
321.071
321.112
321.15
321.187
321.222
321.257
321.291
321.325
321.359
321.393
321.428
321.463
321.499
321.537
321.575
321.615
321.657
321.699
321.743
321.789
321.836
321.885
321.936
321.987
322.041
322.096
322.152
322.21
322.269
322.33
322.392
322.454
322.518
322.584
322.65
322.717
322.784
322.853
322.922
322.992
323.063
300.655
301.984
303.343
304.717
306.089
307.438
308.749
310.006
311.197
312.312
313.347
314.298
315.167
315.957
316.67
317.31
317.883
318.395
318.852
319.259
319.622
319.945
320.232
320.487
320.714
320.916
321.096
321.256
321.398
321.526
321.64
321.743
321.835
321.918
321.993
322.062
322.125
322.183
322.236
322.286
322.333
322.378
322.421
322.462
322.502
322.541
322.58
322.618
322.656
322.695
322.734
322.773
322.813
322.853
322.895
322.937
322.981
323.025
323.071
323.117
323.165
323.214
323.264
323.315
323.368
323.421
323.475
323.53
323.587
323.644
323.702
323.76
323.82
323.88
323.94
324.002
324.063
324.125
324.188
324.251
324.314
300.74
302.239
303.77
305.312
306.842
308.337
309.776
311.14
312.418
313.603
314.684
315.663
316.546
317.339
318.048
318.68
319.242
319.741
320.184
320.577
320.925
321.234
321.508
321.752
321.968
322.161
322.334
322.488
322.626
322.751
322.863
322.965
323.058
323.142
323.22
323.292
323.359
323.422
323.481
323.536
323.59
323.64
323.69
323.737
323.784
323.83
323.875
323.92
323.964
324.009
324.053
324.098
324.143
324.188
324.234
324.28
324.326
324.374
324.422
324.47
324.519
324.569
324.62
324.671
324.723
324.775
324.828
324.881
324.935
324.989
325.044
325.099
325.155
325.21
325.266
325.323
325.379
325.435
325.492
325.548
325.605
300.836
302.529
304.254
305.982
307.685
309.333
310.903
312.366
313.709
314.93
316.033
317.022
317.905
318.69
319.386
320.001
320.545
321.025
321.449
321.824
322.155
322.448
322.708
322.94
323.147
323.332
323.498
323.648
323.784
323.907
324.02
324.123
324.219
324.308
324.39
324.468
324.541
324.61
324.676
324.739
324.8
324.859
324.916
324.972
325.027
325.08
325.133
325.185
325.237
325.288
325.339
325.389
325.44
325.49
325.54
325.591
325.641
325.691
325.742
325.793
325.843
325.894
325.945
325.997
326.048
326.1
326.151
326.203
326.255
326.306
326.358
326.41
326.462
326.513
326.565
326.616
326.668
326.719
326.769
326.82
326.87
300.943
302.854
304.794
306.727
308.616
310.407
312.071
313.597
314.98
316.223
317.332
318.316
319.185
319.951
320.624
321.215
321.734
322.19
322.591
322.944
323.257
323.534
323.781
324.001
324.198
324.377
324.538
324.685
324.82
324.944
325.058
325.165
325.265
325.359
325.447
325.531
325.612
325.689
325.763
325.834
325.903
325.97
326.035
326.099
326.162
326.223
326.283
326.342
326.401
326.458
326.515
326.571
326.627
326.682
326.736
326.79
326.843
326.896
326.949
327.001
327.053
327.105
327.156
327.208
327.258
327.309
327.359
327.409
327.458
327.507
327.556
327.604
327.652
327.7
327.747
327.794
327.84
327.886
327.932
327.976
328.021
301.057
303.203
305.378
307.521
309.555
311.447
313.179
314.745
316.146
317.39
318.486
319.449
320.292
321.027
321.67
322.23
322.72
323.149
323.526
323.858
324.152
324.413
324.647
324.856
325.046
325.218
325.376
325.521
325.655
325.78
325.897
326.007
326.111
326.21
326.304
326.394
326.48
326.564
326.645
326.723
326.799
326.872
326.945
327.015
327.084
327.151
327.217
327.282
327.345
327.407
327.469
327.529
327.588
327.646
327.704
327.76
327.816
327.87
327.924
327.978
328.03
328.082
328.133
328.184
328.234
328.283
328.331
328.379
328.426
328.473
328.519
328.564
328.609
328.653
328.696
328.738
328.781
328.822
328.863
328.903
328.942
301.16
303.523
305.908
308.191
310.322
312.275
314.039
315.614
317.007
318.232
319.302
320.235
321.046
321.75
322.362
322.894
323.358
323.764
324.12
324.435
324.713
324.962
325.186
325.387
325.57
325.738
325.893
326.036
326.169
326.294
326.412
326.524
326.63
326.731
326.828
326.922
327.012
327.099
327.183
327.265
327.344
327.422
327.498
327.571
327.643
327.714
327.783
327.851
327.917
327.982
328.045
328.107
328.169
328.229
328.287
328.345
328.402
328.457
328.512
328.566
328.619
328.67
328.721
328.771
328.82
328.869
328.916
328.963
329.008
329.053
329.097
329.14
329.183
329.224
329.265
329.305
329.345
329.383
329.421
329.458
329.494
379.53
387.457
394.134
399.964
405.146
409.788
413.951
417.669
420.956
423.814
426.231
428.184
429.638
430.545
430.838
430.425
429.179
426.901
423.26
417.599
408.271
401.963
397.134
393.183
389.823
386.892
384.288
381.944
379.81
377.85
376.037
374.348
372.767
371.279
369.871
368.536
367.262
366.045
364.877
363.754
362.669
361.621
360.603
359.615
358.652
357.712
356.793
355.893
355.01
354.143
353.289
352.448
351.619
350.8
349.99
349.189
348.396
347.611
346.832
346.059
345.293
344.532
343.777
343.026
342.281
341.541
340.806
340.076
339.351
338.632
337.917
337.208
336.504
335.806
335.113
334.427
333.747
333.074
332.407
331.748
331.096
330.452
329.816
329.189
328.571
327.962
327.362
326.773
326.194
325.625
325.067
324.521
323.986
323.463
322.952
322.453
321.967
321.492
321.031
320.582
320.146
319.723
319.313
318.915
318.53
318.157
317.796
317.448
317.112
316.787
316.474
316.171
315.88
315.6
315.329
315.069
314.818
314.577
314.344
314.12
313.904
313.696
313.496
313.303
313.116
312.936
312.763
312.595
312.432
312.275
312.122
311.975
311.831
311.692
311.556
311.424
311.295
311.17
311.047
310.928
310.81
310.696
310.583
310.472
310.364
310.257
310.152
310.049
309.947
309.846
309.747
309.649
309.552
309.457
309.362
309.269
309.176
309.085
308.995
308.906
308.819
374.794
381.678
387.883
393.467
398.506
403.06
407.167
410.85
414.117
416.965
419.382
421.344
422.817
423.754
424.092
423.748
422.609
420.519
417.26
412.563
406.385
401.045
396.593
392.823
389.564
386.696
384.135
381.821
379.709
377.767
375.967
374.289
372.716
371.235
369.833
368.502
367.234
366.02
364.855
363.734
362.652
361.605
360.589
359.602
358.641
357.702
356.784
355.885
355.003
354.136
353.283
352.442
351.613
350.795
349.986
349.185
348.392
347.607
346.828
346.056
345.29
344.529
343.774
343.024
342.279
341.539
340.804
340.074
339.349
338.629
337.915
337.205
336.502
335.803
335.111
334.425
333.745
333.072
332.405
331.746
331.094
330.45
329.814
329.187
328.569
327.96
327.36
326.771
326.192
325.623
325.065
324.519
323.984
323.461
322.95
322.451
321.965
321.491
321.029
320.581
320.145
319.722
319.311
318.914
318.528
318.156
317.795
317.447
317.111
316.786
316.473
316.171
315.879
315.599
315.329
315.068
314.818
314.576
314.344
314.12
313.904
313.696
313.496
313.303
313.116
312.936
312.763
312.595
312.432
312.275
312.122
311.975
311.831
311.692
311.556
311.424
311.296
311.17
311.048
310.928
310.811
310.696
310.583
310.473
310.364
310.257
310.152
310.049
309.947
309.847
309.747
309.65
309.553
309.457
309.363
309.269
309.177
309.085
308.995
308.907
308.82
370.713
376.598
382.169
387.348
392.121
396.494
400.478
404.077
407.29
410.108
412.515
414.488
415.991
416.982
417.406
417.193
416.256
414.492
411.796
408.122
403.686
399.382
395.499
392.057
389
386.264
383.795
381.547
379.485
377.581
375.811
374.157
372.604
371.138
369.75
368.43
367.17
365.964
364.806
363.691
362.614
361.571
360.559
359.575
358.616
357.68
356.765
355.867
354.987
354.121
353.27
352.431
351.603
350.785
349.976
349.177
348.385
347.6
346.822
346.05
345.284
344.523
343.768
343.019
342.274
341.534
340.799
340.07
339.345
338.625
337.911
337.201
336.498
335.799