/*--------------------------------*- C++ -*----------------------------------*\
  =========                 |
  \\      /  F ield         | OpenFOAM: The Open Source CFD Toolbox
   \\    /   O peration     | Website:  https://openfoam.org
    \\  /    A nd           | Version:  7
     \\/     M anipulation  |
\*---------------------------------------------------------------------------*/
FoamFile
{
    version     2.0;
    format      ascii;
    class       volScalarField;
    location    "2.2";
    object      p;
}
// * * * * * * * * * * * * * * * * * * * * * * * * * * * * * * * * * * * * * //

dimensions      [0 2 -2 0 0 0 0];

internalField   nonuniform List<scalar> 
2790
(
148.623
148.531
148.798
149.37
150.15
151.108
152.241
153.549
155.026
156.667
158.467
160.419
162.513
164.739
167.079
169.515
172.019
174.558
177.09
179.564
181.922
184.099
186.029
187.649
188.908
189.782
190.218
190.273
190.324
190.537
148.421
148.438
148.731
149.299
150.076
151.031
152.159
153.461
154.931
156.564
158.355
160.296
162.379
164.594
166.923
169.349
171.845
174.378
176.908
179.386
181.754
183.948
185.902
187.551
188.834
189.708
190.105
190.16
190.292
190.577
148.222
148.309
148.621
149.179
149.943
150.885
151.999
153.282
154.73
156.339
158.102
160.011
162.06
164.236
166.525
168.907
171.359
173.85
176.341
178.789
181.138
183.33
185.302
186.991
188.342
189.317
189.91
190.265
190.58
190.879
147.997
148.115
148.439
148.989
149.738
150.664
151.758
153.017
154.436
156.011
157.736
159.602
161.601
163.722
165.951
168.269
170.653
173.076
175.503
177.894
180.2
182.372
184.353
186.092
187.546
188.698
189.565
190.236
190.788
191.307
147.736
147.868
148.201
148.743
149.476
150.38
151.448
152.676
154.059
155.591
157.265
159.075
161.012
163.063
165.215
167.451
169.749
172.084
174.426
176.739
178.984
181.118
183.1
184.89
186.46
187.802
188.932
189.894
190.705
191.451
147.435
147.573
147.908
148.44
149.153
150.031
151.068
152.258
153.596
155.076
156.692
158.435
160.297
162.265
164.327
166.465
168.661
170.89
173.127
175.342
177.504
179.581
181.543
183.363
185.026
186.527
187.873
189.078
190.098
191.016
147.092
147.231
147.563
148.082
148.772
149.62
150.62
151.766
153.053
154.474
156.021
157.688
159.463
161.337
163.294
165.321
167.397
169.503
171.616
173.712
175.767
177.758
179.665
181.475
183.18
184.78
186.274
187.652
188.817
189.863
146.707
146.844
147.169
147.672
148.336
149.15
150.108
151.204
152.433
153.787
155.258
156.838
158.517
160.284
162.125
164.025
165.966
167.931
169.899
171.85
173.768
175.635
177.442
179.184
180.862
182.48
184.035
185.506
186.756
187.906
146.281
146.414
146.728
147.211
147.846
148.623
149.535
150.576
151.74
153.02
154.407
155.892
157.466
159.115
160.826
162.585
164.375
166.179
167.979
169.758
171.501
173.199
174.847
176.447
178.009
179.543
181.051
182.521
183.792
185.03
145.814
145.942
146.243
146.704
147.307
148.042
148.904
149.885
150.98
152.179
153.475
154.857
156.315
157.836
159.407
161.011
162.634
164.256
165.863
167.437
168.966
170.44
171.858
173.226
174.559
175.877
177.197
178.534
179.734
181.038
145.308
145.43
145.715
146.151
146.72
147.411
148.219
149.136
150.156
151.27
152.468
153.74
155.075
156.458
157.877
159.314
160.752
162.174
163.561
164.897
166.165
167.355
168.463
169.491
170.455
171.384
172.313
173.311
174.273
175.591
144.765
144.88
145.149
145.558
146.089
146.733
147.484
148.334
149.275
150.298
151.393
152.549
153.753
154.991
156.247
157.505
158.744
159.946
161.089
162.152
163.115
163.958
164.667
165.233
165.66
165.97
166.212
166.519
166.9
168.073
144.188
144.295
144.545
144.925
145.417
146.012
146.703
147.482
148.341
149.269
150.257
151.291
152.359
153.445
154.531
155.599
156.627
157.592
158.469
159.229
159.843
160.279
160.502
160.478
160.176
159.579
158.704
157.711
156.761
157.264
143.578
143.677
143.907
144.257
144.709
145.252
145.881
146.587
147.36
148.191
149.068
149.977
150.904
151.832
152.741
153.612
154.419
155.134
155.727
156.161
156.393
156.372
156.035
155.305
154.083
152.255
149.693
146.39
142.439
140.399
142.939
143.029
143.239
143.557
143.966
144.457
145.022
145.652
146.339
147.07
147.833
148.614
149.397
150.164
150.893
151.561
152.141
152.599
152.897
152.99
152.819
152.311
151.369
149.857
147.581
144.252
139.411
132.394
121.925
109.685
3.73442
3.68961
3.54645
3.34411
3.1202
2.89204
2.66603
2.44538
2.23237
2.02845
1.83484
1.65361
1.48843
1.34397
1.22337
1.12593
1.04977
0.996314
0.966954
0.954801
0.950971
0.949362
0.944559
0.929284
0.894919
0.832855
0.736644
0.599287
0.412362
0.17333
3.62307
3.57153
3.43873
3.25282
3.04447
2.82916
2.61368
2.40172
2.19577
1.99738
1.80777
1.6292
1.46587
1.32348
1.20589
1.11185
1.03809
0.986387
0.95857
0.948003
0.945927
0.94694
0.945539
0.933602
0.901561
0.841107
0.746957
0.612021
0.425204
0.175587
3.51703
3.45736
3.33069
3.15813
2.96437
2.76184
2.5571
2.35422
2.15586
1.96356
1.77824
1.60231
1.44053
1.30035
1.18631
1.09073
1.01237
0.96787
0.952341
0.950609
0.953242
0.957099
0.957277
0.945962
0.913679
0.850996
0.752601
0.614427
0.42404
0.17264
3.43303
3.36507
3.24159
3.07819
2.89587
2.70385
2.5083
2.31344
2.12221
1.93634
1.7557
1.58227
1.41917
1.27649
1.17234
1.09981
1.02462
0.964473
0.942138
0.943583
0.951322
0.958456
0.959703
0.948291
0.91551
0.852712
0.75276
0.608818
0.414271
0.162489
3.40146
3.32551
3.20454
3.04626
2.87059
2.68468
2.49454
2.30437
2.11745
1.93653
1.76089
1.59512
1.4423
1.30554
1.18715
1.09608
1.03329
0.984802
0.960736
0.955501
0.958111
0.960839
0.957262
0.940587
0.903137
0.836808
0.733208
0.587828
0.393822
0.144687
3.44174
3.35593
3.23373
3.07417
2.89762
2.71125
2.52122
2.33173
2.14588
1.96594
1.79301
1.62967
1.47867
1.34285
1.22718
1.13368
1.06285
1.01225
0.982611
0.968794
0.962571
0.95672
0.944745
0.920084
0.875714
0.804104
0.697507
0.552413
0.363133
0.127477
3.55621
3.4582
3.32486
3.15515
2.96874
2.77433
2.57823
2.38463
2.19622
2.01498
1.84133
1.67605
1.52329
1.38745
1.27115
1.17523
1.09927
1.04255
1.00411
0.979373
0.961715
0.944632
0.922038
0.887832
0.835489
0.758163
0.649503
0.506116
0.324488
0.110316
3.72682
3.60565
3.45029
3.26106
3.05728
2.84916
2.64323
2.44309
2.25005
2.06449
1.88876
1.72423
1.57247
1.43619
1.31764
1.21766
1.13583
1.07132
1.02251
0.985527
0.954946
0.925121
0.890617
0.846012
0.785432
0.702794
0.592894
0.452374
0.281045
0.093219
3.90468
3.75053
3.5657
3.35452
3.13434
2.91373
2.69808
2.49104
2.29457
2.10882
1.93335
1.76931
1.61811
1.48142
1.36067
1.25643
1.16832
1.09535
1.03572
0.986127
0.942169
0.899085
0.852224
0.797003
0.72846
0.641278
0.530883
0.394178
0.235294
0.0761196
4.03105
3.85627
3.64841
3.41688
3.18207
2.95329
2.73378
2.52477
2.32722
2.14176
1.96786
1.80558
1.65563
1.51903
1.39663
1.28863
1.19452
1.11321
1.04296
0.981046
0.923931
0.867725
0.808614
0.742981
0.666987
0.576079
0.465859
0.333749
0.188762
0.0590533
4.11106
3.91188
3.68436
3.43784
3.19256
2.95829
2.73816
2.53175
2.33834
2.15742
1.98808
1.82969
1.68243
1.54698
1.4239
1.31308
1.21373
1.12473
1.04451
0.970947
0.90129
0.832462
0.761497
0.685839
0.602912
0.508975
0.399479
0.272533
0.142201
0.0420828
4.10826
3.87157
3.62504
3.37412
3.13468
2.91099
2.70275
2.50776
2.3249
2.1536
1.99262
1.84073
1.69787
1.56488
1.44237
1.32993
1.22646
1.13069
1.04137
0.956999
0.87558
0.794769
0.71241
0.627061
0.537543
0.441066
0.33275
0.211364
0.0959467
0.0252417
3.91077
3.65155
3.42384
3.20558
2.99986
2.80764
2.62692
2.4537
2.28802
2.13144
1.98282
1.84003
1.70307
1.5737
1.45304
1.34041
1.23407
1.13255
1.03501
0.940667
0.848256
0.756074
0.662681
0.567749
0.471655
0.372821
0.266061
0.150594
0.05009
0.00853492
3.44131
3.17387
3.0435
2.92695
2.7925
2.65512
2.51901
2.37695
2.23284
2.09493
1.96249
1.83096
1.70056
1.57538
1.45779
1.34653
1.23868
1.13235
1.02727
0.923596
0.8208
0.717687
0.613381
0.508608
0.405484
0.304066
0.199258
0.0902455
0.00463959
-0.0080538
2.55091
2.29189
2.44088
2.56445
2.53769
2.47179
2.39708
2.29185
2.16719
2.04948
1.93726
1.81856
1.69374
1.57222
1.45875
1.35072
1.24277
1.13224
1.01993
0.907268
0.794487
0.680689
0.565306
0.449997
0.338801
0.234127
0.131825
0.0302233
-0.040234
-0.0246104
142.259
142.34
142.529
142.814
143.179
143.615
144.114
144.666
145.262
145.89
146.537
147.186
147.821
148.422
148.967
149.427
149.773
149.967
149.963
149.706
149.122
148.117
146.557
144.248
140.891
135.99
128.625
116.876
94.7037
34.8041
141.531
141.602
141.769
142.019
142.338
142.717
143.147
143.619
144.122
144.643
145.169
145.682
146.166
146.597
146.952
147.201
147.309
147.236
146.928
146.321
145.332
143.846
141.706
138.68
134.411
128.314
119.359
105.814
86.3219
57.9562
140.761
140.822
140.965
141.18
141.452
141.772
142.131
142.52
142.927
143.34
143.743
144.119
144.448
144.709
144.874
144.911
144.784
144.448
143.845
142.906
141.54
139.627
137.001
133.434
128.6
122.048
113.19
101.395
87.2302
70.7475
139.95
140.001
140.12
140.297
140.521
140.781
141.068
141.373
141.684
141.986
142.266
142.504
142.68
142.771
142.749
142.579
142.225
141.637
140.759
139.517
137.822
135.555
132.565
128.658
123.586
117.059
108.785
98.4367
85.9593
70.9222
139.099
139.14
139.234
139.375
139.549
139.748
139.962
140.183
140.397
140.59
140.747
140.848
140.874
140.799
140.595
140.228
139.658
138.838
137.71
136.205
134.237
131.699
128.463
124.375
119.253
112.902
105.123
95.6762
84.3974
71.4955
138.211
138.242
138.312
138.414
138.539
138.677
138.819
138.955
139.072
139.157
139.193
139.162
139.041
138.807
138.43
137.877
137.109
136.08
134.735
133.01
130.827
128.097
124.714
120.559
115.505
109.417
102.175
93.6809
83.9274
73.3283
137.289
137.309
137.355
137.419
137.494
137.572
137.642
137.695
137.718
137.697
137.615
137.455
137.194
136.809
136.271
135.548
134.601
133.39
131.862
129.96
127.62
124.766
121.318
117.188
112.29
106.547
99.9043
92.3526
83.9363
74.9905
136.336
136.346
136.366
136.394
136.42
136.438
136.437
136.409
136.34
136.216
136.022
135.739
135.347
134.821
134.135
133.258
132.156
130.789
129.112
127.078
124.631
121.714
118.265
114.227
109.545
104.182
98.1233
91.3898
84.0318
76.3202
135.355
135.355
135.351
135.342
135.32
135.28
135.211
135.103
134.946
134.724
134.423
134.025
133.51
132.856
132.037
131.025
129.789
128.295
126.503
124.375
121.867
118.934
115.536
111.633
107.197
102.215
96.692
90.6624
84.18
77.471
134.351
134.34
134.314
134.268
134.201
134.103
133.968
133.785
133.544
133.23
132.829
132.324
131.697
130.926
129.99
128.862
127.515
125.92
124.045
121.857
119.324
116.415
113.101
109.361
105.182
100.566
95.53
90.1134
84.3691
78.4811
133.328
133.307
133.258
133.178
133.066
132.915
132.716
132.462
132.141
131.741
131.247
130.645
129.917
129.044
128.007
126.781
125.345
123.674
121.742
119.524
116.997
114.139
110.933
107.37
103.447
99.1751
94.577
89.6921
84.5681
79.3526
132.291
132.261
132.19
132.077
131.922
131.72
131.462
131.141
130.746
130.266
129.688
128.998
128.181
127.219
126.096
124.791
123.286
121.561
119.596
117.372
114.873
112.087
109.004
105.622
101.946
97.9921
93.7841
89.3585
84.7568
80.0979
131.245
131.206
131.115
130.971
130.776
130.525
130.212
129.829
129.366
128.814
128.16
127.392
126.497
125.46
124.266
122.899
121.343
119.583
117.604
115.394
112.941
110.239
107.286
104.083
100.642
96.9772
93.1144
89.0856
84.9263
80.7324
130.196
130.149
130.038
129.866
129.633
129.338
128.974
128.534
128.009
127.392
126.67
125.835
124.873
123.773
122.522
121.108
119.517
117.739
115.763
113.581
111.186
108.577
105.755
102.726
99.5015
96.0989
92.5407
88.855
85.072
81.2694
129.15
129.096
128.967
128.768
128.501
128.164
127.754
127.262
126.682
126.007
125.227
124.334
123.316
122.165
120.87
119.422
117.81
116.028
114.067
111.923
109.595
107.082
104.389
101.524
98.5
95.3325
92.0423
88.6538
85.1922
81.7208
128.114
128.053
127.908
127.683
127.385
127.012
126.559
126.021
125.393
124.667
123.837
122.894
121.831
120.64
119.313
117.842
116.221
114.445
112.509
110.412
108.154
105.738
103.169
100.458
97.616
94.6586
91.604
88.4731
85.2871
82.0976
127.094
127.026
126.867
126.62
126.293
125.887
125.396
124.818
124.147
123.378
122.505
121.522
120.423
119.201
117.852
116.368
114.748
112.986
111.082
109.036
106.85
104.529
102.079
99.5092
96.8323
94.062
91.2143
88.307
85.358
82.4096
126.098
126.024
125.851
125.584
125.232
124.796
124.273
123.659
122.952
122.146
121.238
120.223
119.095
117.852
116.488
115.001
113.387
111.647
109.78
107.787
105.673
103.442
101.103
98.6634
96.1352
93.531
90.8647
88.1517
85.4069
82.6653
125.132
125.053
124.868
124.584
124.209
123.747
123.195
122.552
121.813
120.977
120.041
119
117.852
116.593
115.223
113.738
112.138
110.423
108.595
106.657
104.612
102.468
100.23
97.9089
95.5139
93.0565
90.5492
88.0049
85.4364
82.8726
124.204
124.12
123.925
123.625
123.231
122.747
122.171
121.501
120.737
119.876
118.917
117.857
116.694
115.428
114.056
112.578
110.996
109.309
107.522
105.637
103.659
101.594
99.4507
97.2359
94.9596
92.6319
90.2635
87.8656
85.4493
83.0385
123.321
123.234
123.029
122.716
122.305
121.802
121.205
120.515
119.729
118.849
117.872
116.798
115.626
114.356
112.987
111.521
109.959
108.302
106.555
104.721
102.806
100.815
98.7563
96.637
94.4659
92.2519
90.0046
87.7337
85.4486
83.1693
122.492
122.401
122.188
121.863
121.438
120.919
120.305
119.597
118.796
117.9
116.91
115.827
114.65
113.38
112.018
110.565
109.024
107.398
105.69
103.904
102.047
100.123
98.1408
96.1063
94.0277
91.9131
89.771
87.6097
85.4375
83.2711
121.724
121.63
121.41
121.075
120.638
120.105
119.478
118.756
117.941
117.034
116.035
114.946
113.767
112.501
111.147
109.71
108.19
106.593
104.922
103.181
101.377
99.5138
97.599
95.6392
93.6414
91.613
89.5615
87.4943
85.4187
83.3487
121.025
120.928
120.703
120.359
119.912
119.368
118.729
117.996
117.171
116.256
115.251
114.159
112.982
111.72
110.377
108.954
107.457
105.887
104.25
102.55
100.793
98.9834
97.128
95.2331
93.3051
91.3508
89.3768
87.3899
85.3964
83.4081
120.405
120.305
120.074
119.723
119.267
118.714
118.066
117.325
116.492
115.571
114.563
113.47
112.294
111.039
109.706
108.299
106.822
105.278
103.671
102.008
100.291
98.5284
96.7242
94.8848
93.0162
91.1246
89.216
87.2964
85.3716
83.4514
119.871
119.77
119.533
119.174
118.711
118.151
117.496
116.748
115.91
114.985
113.975
112.883
111.711
110.462
109.14
107.747
106.288
104.766
103.187
101.554
99.8737
98.1501
96.3891
94.5963
92.7773
90.9378
89.0833
87.2195
85.3515
83.4879
119.436
119.33
119.086
118.72
118.25
117.683
117.022
116.27
115.428
114.501
113.49
112.399
111.231
109.989
108.676
107.296
105.852
104.35
102.793
101.187
99.5351
97.8437
96.1177
94.3624
92.5831
90.7852
88.9739
87.1541
85.3309
83.511
119.109
118.998
118.744
118.371
117.897
117.326
116.661
115.904
115.06
114.131
113.12
112.031
110.867
109.63
108.325
106.956
105.525
104.038
102.5
100.914
99.285
97.6188
95.9202
94.1942
92.4459
90.6803
88.9024
87.117
85.3288
83.544
118.906
118.771
118.501
118.122
117.645
117.071
116.404
115.646
114.8
113.871
112.861
111.774
110.613
109.381
108.082
106.72
105.299
103.823
102.297
100.725
99.1117
97.4626
95.7823
94.0757
92.3478
90.6034
88.8473
87.0839
85.3179
83.5541
118.888
118.689
118.39
118.005
117.525
116.948
116.277
115.517
114.671
113.742
112.733
111.648
110.489
109.261
107.966
106.61
105.195
103.727
102.209
100.647
99.0438
97.4058
95.7372
94.043
92.3279
90.5967
88.854
87.1042
85.3518
83.6009
-49.4684
-29.3595
-9.75947
37.7772
30.6543
19.2585
53.472
41.5811
30.6201
54.7774
44.4514
36.5151
59.0389
50.8262
44.1437
63.3711
56.5202
50.6808
66.5844
60.744
55.7296
69.1226
64.1265
59.8409
71.259
66.9469
63.2537
73.0595
69.2944
66.0774
74.5705
71.2489
68.4179
75.8409
72.8834
70.3678
76.9109
74.2551
71.9995
77.8122
75.4088
73.3698
78.5711
76.3807
74.5236
79.2092
77.1999
75.4968
79.7444
77.8899
76.3181
80.1918
78.4704
77.0108
80.5641
78.9575
77.5942
80.8724
79.3647
78.0843
81.1259
79.7038
78.4944
81.3334
79.9849
78.8365
81.5014
80.216
79.1196
81.6379
80.4063
79.3539
81.7455
80.559
79.5436
81.8359
80.6867
79.7013
81.9005
80.781
79.8203
81.968
80.8713
79.9277
81.9984
80.9179
79.9883
82.0661
80.9997
80.0767
-0.24997
-0.0388761
1.32704
2.24498
2.31591
2.28093
2.27952
2.21645
2.09727
1.99949
1.91447
1.81007
1.68648
1.56636
1.45824
1.35606
1.24961
1.13496
1.01506
0.893245
0.770464
0.645754
0.518509
0.39118
0.269998
0.160738
0.0614391
-0.0308268
-0.0854358
-0.0417155
5.71038
2.46801
3.11944
2.85592
2.01496
1.86994
2.16148
2.21994
2.04409
1.94872
1.90134
1.81485
1.68119
1.55825
1.45811
1.36634
1.26338
1.14339
1.0143
0.882454
0.749232
0.613032
0.472669
0.331081
0.196884
0.0804634
-0.0155707
-0.0954028
-0.133474
-0.0599778
16.5058
8.02785
5.03461
3.1282
2.49907
2.6422
2.80546
2.33679
1.83025
1.77905
1.89277
1.86624
1.6892
1.55144
1.46086
1.38594
1.28872
1.15973
1.01883
0.876301
0.732819
0.585024
0.430113
0.271009
0.119188
-0.00856788
-0.101229
-0.162018
-0.177698
-0.0784291
25.8943
16.1041
10.3207
6.65833
4.6334
3.57654
2.88175
2.36153
2.12329
2.15976
2.23855
1.97511
1.62368
1.48043
1.44122
1.41904
1.33692
1.1902
1.03301
0.878617
0.724314
0.563819
0.39186
0.211264
0.0371187
-0.106487
-0.196996
-0.230952
-0.215973
-0.0971939
34.8958
25.214
17.9391
12.6349
8.92444
6.38876
4.66949
3.56078
2.88383
2.49108
2.24892
2.0082
1.80266
1.68297
1.62243
1.55571
1.40805
1.20866
1.03439
0.877462
0.720224
0.552533
0.366015
0.162125
-0.0411665
-0.212004
-0.310514
-0.314318
-0.253632
-0.118944
42.7427
33.8682
26.0121
19.593
14.659
10.9752
8.26498
6.29067
4.8587
3.84003
3.13145
2.61913
2.22754
1.94049
1.75268
1.62162
1.48635
1.32586
1.14978
0.966592
0.777619
0.578835
0.360272
0.119797
-0.123439
-0.330085
-0.439757
-0.409627
-0.280761
-0.138644
49.1342
41.3637
33.6186
26.7477
21.1167
16.6197
13.0545
10.2487
8.06653
6.398
5.13539
4.16415
3.40003
2.813
2.38238
2.06229
1.79481
1.54316
1.29939
1.06801
0.845675
0.620699
0.377044
0.107707
-0.168521
-0.402151
-0.523564
-0.490425
-0.31705
-0.184227
54.3392
47.6302
40.3946
33.5774
27.6893
22.7208
18.551
15.0867
12.2492
9.95451
8.11092
6.62531
5.42494
4.4656
3.70894
3.10587
2.6035
2.16415
1.77189
1.42028
1.09865
0.791127
0.48125
0.162754
-0.146946
-0.403008
-0.546981
-0.541979
-0.393573
-0.339935
58.585
52.7802
46.2081
39.7406
33.9174
28.7884
24.292
20.3913
17.054
14.2322
11.8639
9.8832
8.23113
6.86008
5.72692
4.7858
3.99056
3.30414
2.70289
2.17092
1.69264
1.25109
0.831446
0.429142
0.059083
-0.242845
-0.43259
-0.486776
-0.43647
-0.558157
62.0479
56.9851
51.0871
45.1025
39.5409
34.4787
29.8877
25.7637
22.1081
18.9051
16.122
13.7175
11.649
9.87644
8.36172
7.06557
5.94864
4.97624
4.12156
3.36411
2.68588
2.06997
1.50302
0.980801
0.513944
0.127513
-0.150796
-0.316127
-0.420932
-0.724754
64.8896
60.4302
55.1491
49.6764
44.4693
39.61
35.0857
30.9082
27.0986
23.6632
20.5914
17.8623
15.4502
13.327
11.4636
9.82919
8.39182
7.12164
5.99305
4.98491
4.07889
3.25883
2.51244
1.83481
1.23146
0.716674
0.303171
-0.0183032
-0.303701
-0.768868
67.2413
63.2742
58.5311
53.5439
48.7159
44.1246
39.7631
35.6483
31.8098
28.2667
25.023
22.073
19.4046
17.0018
14.8453
12.913
11.1813
9.62638
8.22652
6.96244
5.81716
4.77594
3.82745
2.96579
2.1918
1.5109
0.924957
0.417791
-0.0589098
-0.673288
69.2009
65.6397
61.3566
56.8065
52.3448
48.0412
43.889
39.9053
36.1217
32.5627
29.241
26.1606
23.3195
20.7112
18.3251
16.1476
14.1625
12.3527
10.7011
9.19177
7.81026
6.54377
5.38202
4.31837
3.35015
2.47666
1.69332
0.982469
0.307051
-0.457036
70.8426
67.6193
63.7276
59.5619
55.4371
51.4148
47.4871
43.6683
39.9886
36.4742
33.1419
30.0013
27.057
24.3092
21.7545
19.3858
17.1936
15.1666
13.2925
11.5593
9.95552
8.47046
7.09517
5.82274
4.64837
3.56772
2.57321
1.64862
0.767473
-0.156325
72.2235
69.2841
65.7257
61.8945
58.072
54.3124
50.606
46.9637
43.4128
39.9789
36.6801
33.529
30.534
27.7
25.0283
22.5171
20.162
17.9564
15.8926
13.9621
12.1564
10.467
8.88637
7.40781
6.02551
4.73342
3.52295
2.38032
1.28708
0.188194
73.3881
70.6886
67.415
63.8741
60.3195
56.7992
53.3017
49.8346
46.4219
43.0872
39.8487
36.72
33.7116
30.831
28.083
25.4694
22.9895
20.6408
18.4189
16.3186
14.3338
12.4584
10.6861
9.01066
7.42618
5.92593
4.50135
3.14081
1.83089
0.540381
74.3717
71.8759
68.8464
65.5572
62.2385
58.9331
55.6282
52.3282
49.0537
45.8261
42.6625
39.5767
36.5799
33.6812
30.8874
28.2027
25.6294
23.1676
20.8159
18.5714
16.4305
14.3886
12.4408
10.5817
8.80552
7.1054
5.47309
3.89832
2.37004
0.873889
75.2025
72.8802
70.0604
66.9895
63.8778
60.7639
57.6338
54.4894
51.3479
48.2284
45.1466
42.1155
39.1466
36.2495
33.4321
30.7005
28.0585
25.5084
23.0508
20.6849
18.4089
16.2197
14.1135
12.0857
10.1308
8.24203
6.41135
4.62901
2.88432
1.17365
75.9036
73.7294
71.09
68.2083
65.2778
62.3334
59.3604
56.3585
53.3419
50.3274
47.329
44.3588
41.4277
38.5456
35.7208
32.9601
30.2687
27.6503
25.107
22.6396
20.2474
17.9289
15.681
13.4999
11.3803
9.31567
7.29795
5.31721
3.36191
1.4343
76.4942
74.4464
71.9621
69.2445
66.4721
63.6769
60.8441
57.971
55.0696
52.1543
49.2376
46.3304
43.4428
40.5843
37.7633
34.987
32.2613
29.5908
26.9786
24.4265
21.9351
19.5036
17.1299
14.8106
12.5408
10.314
8.12192
5.95408
3.79758
1.65712
76.9902
75.0502
72.6993
70.1234
67.4885
64.8241
62.1151
59.3575
56.5608
53.7375
50.8986
48.0536
45.2119
42.3822
39.5727
36.7906
34.0422
31.3325
28.6653
26.0432
23.4675
20.9381
18.4535
16.0107
13.6051
11.2301
8.87726
6.53536
4.1901
1.84652
77.4053
75.557
73.3204
70.8667
68.3507
65.8002
63.1999
60.5445
57.8418
55.1024
52.3357
49.5503
46.7544
43.956
41.1629
38.3821
35.6198
32.8813
30.1706
27.491
24.8441
22.2304
19.6488
17.0967
14.5695
12.0607
9.56147
7.05994
4.54068
2.00783
77.7506
75.9799
73.8408
71.4917
69.0779
66.6258
64.12
61.5543
58.9347
56.2704
53.5696
50.8397
48.0878
45.3212
42.5472
39.7724
37.0027
34.2434
31.4989
28.7723
26.0659
23.3803
20.7148
18.0668
15.432
12.8038
10.173
7.52727
4.85035
2.14489
78.0368
76.3314
74.2748
72.0145
69.6879
67.3199
64.8952
62.407
59.86
57.2619
54.6199
51.9402
49.2292
46.4935
43.7395
40.9734
38.201
35.4272
32.6565
29.8922
27.1365
24.3902
21.6529
18.922
16.1934
13.4602
10.713
7.93922
5.12198
2.26185
78.2703
76.619
74.6313
72.4455
70.192
67.8947
65.5388
63.1165
60.6315
58.0906
55.4998
52.8645
50.1903
47.483
44.7485
41.9925
39.2203
36.4369
33.6463
30.8518
28.0558
25.2591
22.4612
19.6599
16.8507
14.0269
11.1788
8.29352
5.35398
2.35856
78.4627
76.8554
74.9244
72.7997
70.6064
68.3676
66.0684
63.701
61.2679
58.7749
56.2275
53.6302
50.988
48.3059
45.5894
42.8436
40.0735
37.2837
34.4782
31.6602
28.8318
25.9941
23.1463
20.2864
17.4097
14.5096
11.5761
8.59614
5.55247
2.44047
78.6108
77.0383
75.152
73.0759
70.9305
68.7381
66.4843
64.1607
61.7693
59.3151
56.8029
54.2367
51.6208
48.9599
46.2587
43.5222
40.7549
37.9611
35.1447
32.3086
29.455
26.5847
23.6973
20.7902
17.8591
14.8969
11.8938
8.83643
5.70766
2.50056
78.7371
77.1902
75.3379
73.2987
71.1894
69.0322
66.8128
64.5225
62.1629
59.7383
57.2531
54.7109
52.1154
49.471
46.7821
44.0531
41.2884
38.4921
35.6678
32.8184
29.9459
27.0511
24.1333
21.1902
18.2172
15.2071
12.15
9.03221
5.83641
2.55181
78.8144
77.2836
75.4536
73.4394
71.3545
69.2208
67.0244
64.7565
62.4181
60.0135
57.5464
55.0204
52.4388
49.8056
47.1251
44.4014
41.6387
38.8409
36.0115
33.1533
30.2682
27.357
24.4189
21.4514
18.45
15.4073
12.313
9.15325
5.9106
2.5726
78.9019
77.3722
75.5545
73.5554
71.4842
69.3631
67.1789
64.9228
62.5956
60.2011
57.7433
55.2251
52.6502
50.0221
47.3451
44.6232
41.8605
39.0609
36.2276
33.3636
30.4707
27.5495
24.5995
21.6181
18.6005
15.5394
12.4241
9.23983
5.96653
2.58001
)
;

boundaryField
{
    inlet
    {
        type            zeroGradient;
    }
    outlet
    {
        type            fixedValue;
        value           uniform 0;
    }
    flap
    {
        type            zeroGradient;
    }
    upperWall
    {
        type            zeroGradient;
    }
    lowerWall
    {
        type            zeroGradient;
    }
    frontAndBack
    {
        type            empty;
    }
}


// ************************************************************************* //
