/*--------------------------------*- C++ -*----------------------------------*\
  =========                 |
  \\      /  F ield         | OpenFOAM: The Open Source CFD Toolbox
   \\    /   O peration     | Website:  https://openfoam.org
    \\  /    A nd           | Version:  7
     \\/     M anipulation  |
\*---------------------------------------------------------------------------*/
FoamFile
{
    version     2.0;
    format      ascii;
    class       surfaceScalarField;
    location    "2.2";
    object      phi;
}
// * * * * * * * * * * * * * * * * * * * * * * * * * * * * * * * * * * * * * //

dimensions      [0 3 -1 0 0 0 0];

internalField   nonuniform List<scalar> 
5457
(
0.198417
0.00158267
0.196479
0.00193793
0.194191
0.00228889
0.191506
0.00268459
0.188424
0.00308239
0.184945
0.00347809
0.181065
0.00388
0.17677
0.00429551
0.17204
0.00472973
0.166853
0.00518671
0.161184
0.00566993
0.155001
0.00618235
0.148275
0.00672614
0.140973
0.00730232
0.133062
0.00791027
0.124516
0.00854696
0.115309
0.00920612
0.105432
0.00987711
0.0948886
0.0105437
0.0837058
0.0111828
0.0719421
0.0117636
0.0596951
0.012247
0.0471079
0.0125872
0.0343695
0.0127384
0.0216765
0.012693
0.00902868
0.0126478
-0.0029199
0.0119486
-0.00847248
0.00555258
-0.00804203
-0.000430453
-0.00804203
0.199928
0.00165481
0.199175
0.00269094
0.197963
0.00350064
0.196329
0.0043188
0.194268
0.00514364
0.191776
0.00596951
0.188848
0.00680844
0.185469
0.00767389
0.181623
0.00857618
0.177286
0.00952364
0.172432
0.0105235
0.167033
0.0115821
0.161055
0.0127041
0.154465
0.0138923
0.147229
0.0151461
0.139315
0.0164606
0.130697
0.0178243
0.121357
0.0192172
0.111292
0.0206082
0.100523
0.0219521
0.0890997
0.0231872
0.0771132
0.0242335
0.0647087
0.0249917
0.0521029
0.0253442
0.0396445
0.0251514
0.0280966
0.0241957
0.0185865
0.0214586
0.00878981
0.0153493
0.00118029
0.00717907
-0.00686174
0.19978
0.00187454
0.199086
0.00338534
0.197944
0.00464237
0.196407
0.00585643
0.194479
0.00707096
0.192159
0.00828989
0.18944
0.0095273
0.186313
0.0108009
0.182764
0.0121256
0.178773
0.013514
0.17432
0.0149771
0.169377
0.0165244
0.163917
0.0181639
0.157909
0.0199005
0.15132
0.0217352
0.144118
0.023663
0.136272
0.0256701
0.127758
0.0277312
0.118561
0.0298048
0.108684
0.0318294
0.0981531
0.0337182
0.087032
0.0353546
0.0754366
0.036587
0.0635611
0.0372198
0.051721
0.0369915
0.0403875
0.0355292
0.0297308
0.0321154
0.0191606
0.0259195
0.00959372
0.0167459
0.00273198
0.199703
0.00217177
0.199007
0.00408122
0.197886
0.00576371
0.196374
0.00736836
0.194484
0.00896027
0.192217
0.0105572
0.189568
0.0121764
0.18653
0.0138383
0.183094
0.0155616
0.179246
0.017362
0.17497
0.0192535
0.170246
0.0212484
0.165053
0.0233568
0.159368
0.0255857
0.153165
0.0279378
0.14642
0.0304088
0.139105
0.0329848
0.131197
0.0356385
0.122678
0.0383238
0.113538
0.0409698
0.103782
0.0434743
0.0934406
0.0456961
0.0825807
0.0474469
0.0713195
0.0484809
0.0598294
0.0484817
0.0483072
0.0470513
0.0368032
0.0436194
0.0251824
0.0375403
0.0133325
0.0285958
0.0160645
0.199667
0.00250466
0.198963
0.00478505
0.197861
0.00686584
0.196378
0.00885107
0.194528
0.0108103
0.192312
0.0127732
0.189727
0.0147617
0.186767
0.0167984
0.183424
0.0189048
0.179687
0.0210993
0.175542
0.0233979
0.170976
0.0258149
0.165971
0.0283618
0.160509
0.0310471
0.154573
0.0338742
0.148142
0.0368399
0.141195
0.039931
0.133714
0.0431201
0.125677
0.0463604
0.117068
0.0495786
0.107876
0.0526669
0.0980979
0.055474
0.0877494
0.0577954
0.076865
0.0593653
0.0654969
0.0598498
0.0536982
0.05885
0.0414463
0.0558713
0.0285824
0.0504043
0.0148495
0.0423287
0.030914
0.199652
0.00285216
0.198948
0.00548969
0.197869
0.00794461
0.196424
0.0102963
0.194623
0.0126115
0.192468
0.0149281
0.189957
0.0172728
0.187084
0.0196709
0.183843
0.0221457
0.180224
0.0247181
0.176216
0.027406
0.171806
0.030225
0.16698
0.033188
0.161723
0.0363042
0.156019
0.0395781
0.149852
0.0430073
0.143203
0.0465797
0.136054
0.0502697
0.128381
0.0540325
0.120162
0.0577977
0.111369
0.0614604
0.101971
0.0648716
0.0919386
0.0678281
0.0812396
0.0700643
0.0698418
0.0712476
0.0577067
0.0709852
0.0447528
0.0688251
0.0308438
0.0643133
0.0158704
0.057302
0.0467844
0.19965
0.00320241
0.198953
0.00618626
0.197903
0.00899507
0.196502
0.0116971
0.194758
0.014355
0.192675
0.0170115
0.19025
0.019698
0.187479
0.0224421
0.184355
0.0252694
0.18087
0.0282027
0.177015
0.0312616
0.172777
0.0344632
0.168143
0.0378216
0.1631
0.0413471
0.157633
0.0450454
0.151724
0.0489157
0.145356
0.0529478
0.138506
0.0571194
0.131148
0.0613907
0.123248
0.0656981
0.114762
0.0699462
0.105636
0.0739981
0.0957994
0.0776643
0.0851708
0.0806928
0.0736551
0.0827633
0.0611508
0.0834895
0.0475471
0.0824288
0.0327532
0.0791072
0.0167802
0.0732751
0.0635646
0.199654
0.00354807
0.198974
0.00686697
0.197957
0.0100117
0.196607
0.0130469
0.19493
0.0160323
0.192928
0.0190135
0.1906
0.0220256
0.187943
0.025099
0.184952
0.0282611
0.181618
0.0315366
0.177933
0.0349468
0.173886
0.0385103
0.169464
0.0422427
0.164656
0.046156
0.159443
0.0502576
0.15381
0.054549
0.147734
0.0590238
0.141189
0.0636646
0.134141
0.068439
0.126544
0.0732944
0.11834
0.0781505
0.109449
0.0828896
0.0997676
0.0873452
0.0891706
0.0912899
0.0775109
0.0944229
0.064636
0.0963644
0.050409
0.0966558
0.0347626
0.0947536
0.0177871
0.0902506
0.0813517
0.199664
0.0038842
0.199005
0.00752537
0.198028
0.0109888
0.196736
0.0143394
0.195132
0.0176356
0.193221
0.0209248
0.191002
0.0242451
0.188471
0.0276293
0.185626
0.0311069
0.182458
0.0347041
0.178961
0.038444
0.175124
0.042347
0.170936
0.0464303
0.166384
0.050708
0.161452
0.0551901
0.156119
0.0598816
0.150362
0.064781
0.144149
0.0698781
0.137437
0.0751507
0.130171
0.0805607
0.122274
0.0860475
0.113644
0.0915194
0.104147
0.0968418
0.0936155
0.101822
0.0818491
0.106189
0.0686371
0.109576
0.053793
0.1115
0.0372309
0.111316
0.0190807
0.108401
0.100432
0.199677
0.0042073
0.199046
0.00815623
0.198114
0.011921
0.196884
0.0155688
0.195362
0.0191579
0.19355
0.0227369
0.191449
0.0263466
0.189056
0.0300219
0.186369
0.033794
0.183382
0.0376909
0.180089
0.0417372
0.176481
0.0459551
0.172547
0.0503638
0.168275
0.0549799
0.163649
0.0598165
0.158647
0.0648833
0.153243
0.0701848
0.147402
0.0757198
0.141074
0.0814788
0.134193
0.0874413
0.126669
0.0935711
0.11838
0.099809
0.10916
0.106061
0.0987988
0.112183
0.0870352
0.117953
0.0735764
0.123035
0.0581391
0.126937
0.0405462
0.128909
0.0208989
0.128048
0.121331
0.199693
0.00451469
0.199094
0.00875522
0.198211
0.0128035
0.19705
0.0167296
0.195616
0.0205926
0.19391
0.0244423
0.191935
0.0283213
0.189691
0.0322666
0.187174
0.036311
0.184381
0.0404839
0.181306
0.0448115
0.177944
0.0493177
0.174284
0.0540239
0.170314
0.0589492
0.166021
0.0641105
0.161381
0.0695224
0.15637
0.0751966
0.150947
0.081142
0.145063
0.0873634
0.138643
0.0938606
0.131589
0.100625
0.123761
0.107637
0.114969
0.114853
0.104959
0.122193
0.0933995
0.129513
0.0798832
0.136552
0.0639581
0.142862
0.0452296
0.147637
0.0236098
0.149668
0.144941
0.19971
0.00480433
0.199147
0.00931886
0.198318
0.013632
0.197231
0.017817
0.195889
0.0219341
0.194297
0.0260343
0.192457
0.0301616
0.190369
0.0343547
0.188032
0.0386478
0.185444
0.0430716
0.182602
0.0476537
0.1795
0.0524197
0.176131
0.0573928
0.172485
0.062595
0.168549
0.0680467
0.164304
0.0737676
0.159724
0.0797769
0.154772
0.0860939
0.149397
0.0927383
0.143526
0.0997311
0.137058
0.107094
0.129846
0.114849
0.121685
0.123014
0.112288
0.131591
0.101251
0.140549
0.0880288
0.149774
0.071913
0.158978
0.0520823
0.167468
0.0278854
0.173865
0.172826
0.19973
0.00507458
0.199204
0.00984427
0.198433
0.0144029
0.197424
0.0188269
0.19618
0.0231776
0.194707
0.0275071
0.193008
0.0318608
0.191084
0.0362786
0.188936
0.0407958
0.186564
0.0454442
0.183965
0.0502527
0.181136
0.055248
0.178074
0.0604553
0.17477
0.0658987
0.171214
0.0716022
0.167392
0.0775901
0.163281
0.0838884
0.158848
0.090526
0.15405
0.0975367
0.14882
0.104961
0.143063
0.112851
0.136643
0.12127
0.129357
0.130299
0.12091
0.140038
0.110857
0.150603
0.0985244
0.162106
0.0828914
0.174611
0.0624346
0.187925
0.0351287
0.201171
0.207955
0.19975
0.0053242
0.199265
0.0103291
0.198555
0.0151132
0.197626
0.0197556
0.196485
0.0243188
0.195136
0.028856
0.193583
0.0334135
0.19183
0.0380321
0.189878
0.0427481
0.187728
0.0475939
0.185381
0.0525993
0.182837
0.057792
0.180094
0.0631986
0.177148
0.068845
0.173992
0.0747578
0.170617
0.080965
0.167007
0.0874983
0.163139
0.0943941
0.158979
0.101698
0.154474
0.109466
0.149551
0.117773
0.1441
0.126722
0.137951
0.136447
0.130848
0.147142
0.122375
0.159076
0.111838
0.172642
0.0980079
0.188441
0.0785423
0.20739
0.0486787
0.231034
0.256634
0.199772
0.00555223
0.199329
0.0107717
0.198682
0.0157606
0.197837
0.0206003
0.196801
0.0253547
0.19558
0.0300774
0.194178
0.0348155
0.1926
0.0396105
0.190849
0.0444992
0.188928
0.0495144
0.186841
0.0546865
0.184589
0.0600437
0.182175
0.0656132
0.179597
0.0714221
0.176857
0.0774987
0.173948
0.0838734
0.170865
0.090581
0.167596
0.0976633
0.164122
0.105172
0.160413
0.113175
0.156426
0.12176
0.152096
0.131052
0.147323
0.141221
0.141948
0.152516
0.135711
0.165313
0.128142
0.180212
0.118301
0.198281
0.10394
0.221752
0.0777365
0.257238
0.33437
0.00587821
-0.00587821
0.0112714
-0.00539324
0.0159087
-0.00463722
0.0198893
-0.00398064
0.0233366
-0.00344728
0.0263467
-0.00301015
0.0289956
-0.00264888
0.0313442
-0.00234859
0.0334381
-0.00209391
0.0353039
-0.00186578
0.0369445
-0.00164056
0.0383424
-0.00139798
0.0394777
-0.00113531
0.0403549
-0.000877191
0.0410059
-0.000650942
0.0414364
-0.000430488
0.0416191
-0.000182696
0.0415703
4.87327e-05
0.0413683
0.000202073
0.0410813
0.000286991
0.0407604
0.000320899
0.0404782
0.00028212
0.04033
0.000148209
0.0403957
-6.56407e-05
0.0407203
-0.000324605
0.0413134
-0.000593077
0.0421758
-0.000862464
0.0433166
-0.00114079
0.0447233
-0.00140666
-0.00146675
0.00480807
-0.0106863
0.00950653
-0.0100917
0.0136441
-0.00877477
0.0172422
-0.00757875
0.0204
-0.00660506
0.0231987
-0.00580882
0.0256992
-0.00514942
0.0279493
-0.00459872
0.0299873
-0.0041319
0.0318403
-0.00371876
0.033516
-0.00331631
0.0349994
-0.00288135
0.036261
-0.00239689
0.0372926
-0.00190878
0.0381432
-0.00150155
0.0388417
-0.00112902
0.0393638
-0.000704741
0.0396855
-0.00027303
0.0397986
8.90569e-05
0.0396785
0.000407094
0.0392839
0.000715433
0.0385991
0.000966986
0.0376582
0.00108906
0.0365525
0.00104007
0.0354219
0.000806021
0.0344228
0.000406011
0.0336018
-4.14422e-05
0.0330555
-0.000594565
0.0330161
-0.00136722
-0.00240022
0.00364499
-0.0143313
0.00715992
-0.0136066
0.0102393
-0.0118542
0.0129122
-0.0102516
0.0152436
-0.00893643
0.0172868
-0.00785204
0.0190832
-0.0069458
0.0206635
-0.00617906
0.0220549
-0.00552323
0.0232829
-0.00494675
0.0243611
-0.00439451
0.0252796
-0.00379993
0.0259901
-0.00310732
0.0264441
-0.00236283
0.0267654
-0.00182282
0.0269613
-0.00132488
0.0266051
-0.000348624
0.0254239
0.000908217
0.0236237
0.00188925
0.0215113
0.00251945
0.0192932
0.00293361
0.0170712
0.00318892
0.0149463
0.003214
0.0130463
0.00294002
0.0115429
0.00230946
0.010647
0.00130194
0.0104367
0.000168851
0.0109901
-0.00114798
0.0123342
-0.00271134
-0.00429438
0.00244975
-0.016781
0.00461952
-0.0157764
0.00643655
-0.0136712
0.00797358
-0.0117887
0.00926112
-0.010224
0.0103239
-0.00891482
0.0111823
-0.00780416
0.0118459
-0.00684269
0.0123216
-0.00599893
0.0126253
-0.00525048
0.0127778
-0.00454702
0.0128192
-0.00384128
0.0127099
-0.002998
0.0121804
-0.00183335
0.0106956
-0.000338015
0.00835221
0.00101849
0.00613212
0.00187146
0.0043814
0.00265893
0.00275195
0.0035187
0.00112807
0.00414334
-0.000435361
0.00449704
-0.00179885
0.00455241
-0.00288728
0.00430243
-0.00364336
0.0036961
-0.00405086
0.00271696
-0.00413042
0.0013815
-0.00372465
-0.000236922
-0.00283275
-0.00203988
-0.00163945
-0.00390464
-0.0053126
0.00112484
-0.0179059
0.0018376
-0.0164892
0.00227474
-0.0141084
0.0025337
-0.0120476
0.00260375
-0.010294
0.00249737
-0.00880845
0.0022211
-0.00752789
0.00176714
-0.00638874
0.00110265
-0.00533444
0.000171721
-0.00431955
-0.00105586
-0.00331944
-0.00263534
-0.00226181
-0.00457027
-0.00106306
-0.0065681
0.00016447
-0.00813923
0.00123312
-0.00929809
0.00217735
-0.010518
0.00309132
-0.011757
0.00389795
-0.0128575
0.00461922
-0.0138215
0.00510733
-0.0146191
0.00529462
-0.0152171
0.00515043
-0.0155775
0.00466286
-0.0157027
0.00382129
-0.0156297
0.00264399
-0.0153896
0.00114134
-0.0149904
-0.000636122
-0.0144686
-0.00256169
-0.0139418
-0.00443137
-0.00588879
-0.000352058
-0.0175538
-0.00113131
-0.0157099
-0.00212127
-0.0131184
-0.0032463
-0.0109226
-0.00450992
-0.00903039
-0.00590703
-0.00741134
-0.00743344
-0.00600148
-0.00908081
-0.00474136
-0.0108315
-0.00358371
-0.0126552
-0.00249586
-0.0145386
-0.00143602
-0.0164188
-0.000381686
-0.018072
0.000590149
-0.0194021
0.00149458
-0.0205683
0.00239931
-0.0216653
0.00327441
-0.0226564
0.00408234
-0.0235396
0.00478119
-0.024255
0.00533466
-0.0247973
0.00564961
-0.0251682
0.00566555
-0.0253706
0.00535284
-0.0254102
0.00470238
-0.0253081
0.00371922
-0.0250935
0.00242941
-0.0248054
0.000853207
-0.0244984
-0.000943124
-0.0242067
-0.00285334
-0.0239409
-0.0046972
-0.00615552
-0.0018512
-0.0157026
-0.00416995
-0.0133912
-0.00656695
-0.0107214
-0.00900347
-0.00848607
-0.0114362
-0.00659765
-0.0138361
-0.00501149
-0.0161766
-0.00366098
-0.0184381
-0.00247985
-0.0206091
-0.00141264
-0.022664
-0.000441039
-0.0245172
0.000417177
-0.0260894
0.0011906
-0.027447
0.00194774
-0.0286787
0.00272627
-0.0297813
0.00350193
-0.0307472
0.00424028
-0.0315645
0.00489965
-0.0322225
0.00543911
-0.0327001
0.00581226
-0.0330029
0.00595248
-0.0331477
0.00581033
-0.0331553
0.00536042
-0.0330501
0.0045972
-0.032862
0.00353115
-0.0326221
0.0021895
-0.0323713
0.000602366
-0.0321616
-0.00115283
-0.0320157
-0.00299922
-0.0319242
-0.00478866
-0.00618799
-0.00335983
-0.0123428
-0.00710323
-0.00964775
-0.01076
-0.00706466
-0.0142401
-0.00500593
-0.0175047
-0.00333304
-0.0205285
-0.00198773
-0.0232962
-0.000893245
-0.0257906
1.45441e-05
-0.027973
0.00076972
-0.0298412
0.00142712
-0.0314717
0.00204768
-0.0329479
0.00266686
-0.03429
0.00328979
-0.0354813
0.00391758
-0.0365112
0.00453189
-0.0373731
0.00510218
-0.0380638
0.00559031
-0.0385799
0.00595524
-0.0389188
0.00615117
-0.0390933
0.00612696
-0.0391269
0.00584395
-0.0390493
0.00528276
-0.0388937
0.00444169
-0.0386956
0.00333296
-0.0384877
0.00198168
-0.0383106
0.000425214
-0.0382
-0.00126341
-0.0381741
-0.00302508
-0.0382284
-0.00473442
-0.00603571
-0.00486246
-0.00748032
-0.00991913
-0.00459108
-0.0146457
-0.00233813
-0.0189108
-0.000740838
-0.0226414
0.000397584
-0.0258407
0.00121163
-0.0285671
0.0018331
-0.0309018
0.00234924
-0.0329439
0.00281183
-0.0347737
0.00325688
-0.0364203
0.00369434
-0.037893
0.00413949
-0.0391976
0.00459439
-0.0403306
0.00505066
-0.0412877
0.00548897
-0.0420668
0.00588123
-0.0426692
0.00619275
-0.0430985
0.00638453
-0.0433618
0.00641452
-0.0434767
0.0062418
-0.0434697
0.00583694
-0.0433738
0.00518691
-0.0432257
0.00429356
-0.0430624
0.00316969
-0.0429188
0.00183809
-0.0428313
0.000337686
-0.0428253
-0.00126938
-0.0429137
-0.00293676
-0.0430958
-0.00455224
-0.00575616
-0.00672523
-0.000755085
-0.0128203
0.00150403
-0.018011
0.00285256
-0.0223779
0.00362603
-0.0260458
0.00406553
-0.0291818
0.00434758
-0.0319033
0.00455459
-0.034283
0.004729
-0.0363741
0.00490289
-0.0382137
0.00509653
-0.0398371
0.00531769
-0.0412657
0.00556809
-0.042511
0.00583972
-0.0435767
0.00611637
-0.0444638
0.00637609
-0.0451749
0.00659231
-0.0457156
0.00673341
-0.0460943
0.00676321
-0.0463235
0.00664374
-0.0464231
0.00634144
-0.0464208
0.0058346
-0.0463501
0.00511623
-0.0462479
0.00419137
-0.046151
0.00307272
-0.0460937
0.00178082
-0.0461073
0.000351273
-0.0462104
-0.00116628
-0.046412
-0.00273511
-0.0467105
-0.00425375
-0.00537513
-0.00765009
0.006895
-0.0142505
0.00810447
-0.0197463
0.00834833
-0.0243478
0.00822757
-0.0282105
0.00792815
-0.0314599
0.00759697
-0.0342151
0.00730981
-0.0365798
0.00709372
-0.0386269
0.00694994
-0.0404054
0.00687509
-0.0419549
0.00686722
-0.0433047
0.00691783
-0.0444717
0.00700671
-0.0454631
0.00710776
-0.0462827
0.00719574
-0.0469366
0.00724618
-0.0474342
0.00723104
-0.0477878
0.00711679
-0.0480126
0.0068685
-0.0481289
0.00645776
-0.0481636
0.00586936
-0.0481495
0.00510207
-0.048122
0.00416393
-0.0481162
0.00306691
-0.0481632
0.00182776
-0.0482878
0.000475873
-0.0485043
-0.000949776
-0.04882
-0.00241936
-0.0492298
-0.00384401
-0.00489575
-0.0081488
0.0150438
-0.015432
0.0153877
-0.0213471
0.0142634
-0.0260905
0.012971
-0.0299372
0.0117749
-0.0330932
0.0107529
-0.0357209
0.00993755
-0.0379503
0.00932309
-0.0398647
0.00886431
-0.0415148
0.00852525
-0.0429425
0.00829484
-0.0441825
0.0081579
-0.0452553
0.00807946
-0.0461674
0.0080199
-0.0469223
0.00795063
-0.047528
0.00785191
-0.0479981
0.00770114
-0.0483481
0.00746679
-0.0485941
0.00711449
-0.0487549
0.00661855
-0.0488547
0.00596913
-0.0489234
0.00517074
-0.0489941
0.00423467
-0.0490989
0.00317173
-0.0492643
0.00199312
-0.0495084
0.000720026
-0.0498425
-0.000615691
-0.0502741
-0.00198783
-0.0507957
-0.00332237
-0.00431347
-0.00930743
0.0243512
-0.0173122
0.0233925
-0.0233328
0.0202839
-0.0278477
0.0174859
-0.0313807
0.0153079
-0.0342111
0.0135833
-0.0365294
0.0122559
-0.0384963
0.01129
-0.0401952
0.0105632
-0.0416575
0.00998745
-0.0429191
0.00955648
-0.0440227
0.00926148
-0.0449904
0.00904722
-0.0458226
0.00885205
-0.0465172
0.0086452
-0.0470834
0.00841817
-0.0475403
0.00815802
-0.0479072
0.00783367
-0.0481994
0.00740677
-0.0484319
0.00685101
-0.0486237
0.00616093
-0.0488003
0.00534731
-0.048991
0.00442539
-0.0492241
0.00340486
-0.049521
0.00229
-0.0498934
0.00109244
-0.0503491
-0.000159996
-0.0508981
-0.00143884
-0.0515364
-0.00268409
-0.00362113
-0.0114332
0.0357844
-0.0204586
0.0324179
-0.0260964
0.0259218
-0.0297671
0.0211566
-0.0326073
0.0181481
-0.0348652
0.0158413
-0.0366771
0.0140677
-0.0382554
0.0128682
-0.0396753
0.0119832
-0.0409039
0.011216
-0.0419594
0.010612
-0.0429042
0.0102063
-0.043765
0.00990801
-0.0445241
0.00961118
-0.0451661
0.00928715
-0.0457013
0.00895334
-0.0461582
0.00861499
-0.0465626
0.00823803
-0.0469275
0.00777168
-0.0472607
0.00718421
-0.0475738
0.00647401
-0.0478857
0.0056593
-0.0482207
0.00476031
-0.0486017
0.00378588
-0.0490446
0.0027329
-0.0495548
0.00160267
-0.0501356
0.000420749
-0.0508022
-0.000772208
-0.0515632
-0.00192303
-0.00280997
-0.0153428
0.0511272
-0.0257833
0.0428585
-0.0301915
0.0303299
-0.0318353
0.0228004
-0.0335439
0.0198567
-0.0350279
0.0173253
-0.0361158
0.0151556
-0.0371777
0.0139301
-0.0383041
0.0131096
-0.0392783
0.0121902
-0.0400847
0.0114184
-0.0408499
0.0109715
-0.0416176
0.0106757
-0.0423249
0.0103186
-0.042928
0.00989018
-0.0434405
0.0094659
-0.0439109
0.00908534
-0.0443762
0.00870338
-0.0448447
0.00824016
-0.0453126
0.00765211
-0.0457813
0.0069427
-0.0462619
0.00613992
-0.0467714
0.00526979
-0.0473255
0.00434001
-0.0479327
0.00334011
-0.0485908
0.00226074
-0.0492994
0.00112937
-0.0500821
1.04803e-05
-0.0509688
-0.00103636
-0.00186051
0.207447
0.00576534
0.207033
0.0111849
0.20643
0.0163641
0.205644
0.021386
0.204683
0.0263155
0.203554
0.0312067
0.202262
0.0361071
0.200814
0.0410585
0.199216
0.046098
0.197472
0.0512585
0.195588
0.0565703
0.19357
0.0620617
0.191423
0.0677601
0.189152
0.0736927
0.186763
0.0798881
0.184259
0.0863774
0.181643
0.0931966
0.178918
0.100389
0.176083
0.108007
0.173137
0.11612
0.170077
0.124821
0.166897
0.134232
0.163594
0.144524
0.160169
0.155941
0.156648
0.168834
0.153127
0.183733
0.149977
0.201431
0.14889
0.222838
0.160709
0.245419
0.258412
0.236667
0.21249
0.00595811
0.212117
0.0115585
0.211572
0.0169087
0.210865
0.0220932
0.210003
0.0271775
0.208993
0.032216
0.207844
0.0372563
0.206563
0.0423401
0.205156
0.0475043
0.203633
0.0527815
0.202002
0.0582015
0.200272
0.0637921
0.198452
0.0695799
0.196553
0.0755914
0.194587
0.081854
0.192567
0.0883979
0.190507
0.0952568
0.188424
0.102471
0.18634
0.11009
0.184285
0.118176
0.182297
0.126809
0.180438
0.13609
0.178809
0.146154
0.17758
0.157169
0.177076
0.169338
0.177954
0.182856
0.181634
0.197751
0.19073
0.213742
0.206255
0.229895
0.245265
0.219402
0.217657
0.0061284
0.217328
0.0118882
0.216848
0.0173884
0.216227
0.0227143
0.215473
0.0279315
0.214594
0.0330946
0.2136
0.0382507
0.212499
0.0434413
0.211301
0.0487025
0.210016
0.0540662
0.208656
0.0595612
0.207234
0.065214
0.205765
0.0710497
0.204263
0.0770929
0.202748
0.0833688
0.201242
0.089904
0.199771
0.0967281
0.198367
0.103875
0.197073
0.111385
0.195943
0.119305
0.195058
0.127694
0.194529
0.136619
0.194527
0.146155
0.195316
0.15638
0.197307
0.167348
0.201109
0.179053
0.207492
0.191368
0.217109
0.204125
0.229664
0.21734
0.228435
0.246494
0.222951
0.00627422
0.222669
0.0121702
0.22226
0.0177976
0.221732
0.0232419
0.221095
0.0285687
0.220357
0.0338321
0.219529
0.0390786
0.218622
0.0443489
0.217646
0.0496781
0.216616
0.0550968
0.215544
0.0606323
0.214449
0.0663092
0.213349
0.0721503
0.212264
0.0781773
0.211222
0.0844116
0.21025
0.0908751
0.209388
0.0975908
0.208679
0.104584
0.208183
0.111881
0.207975
0.119513
0.208159
0.12751
0.208875
0.135903
0.210315
0.144715
0.212742
0.153953
0.216502
0.163588
0.222012
0.173543
0.229718
0.183662
0.240184
0.193659
0.25432
0.203204
0.210042
0.272713
0.228374
0.0063937
0.228143
0.0124009
0.22781
0.0181312
0.227382
0.0236696
0.226869
0.0290812
0.226282
0.0344192
0.225631
0.0397295
0.224929
0.0450513
0.224189
0.0504184
0.223426
0.0558598
0.222657
0.0614007
0.221903
0.0670632
0.221186
0.0728671
0.220533
0.0788304
0.219975
0.08497
0.219548
0.0913016
0.219299
0.0978404
0.219282
0.104601
0.219566
0.111597
0.22024
0.118839
0.221415
0.126334
0.223238
0.134081
0.225891
0.142062
0.229605
0.150239
0.234658
0.158535
0.241377
0.166824
0.250137
0.174902
0.26138
0.182415
0.275575
0.189009
0.193599
0.292019
0.233929
0.00648515
0.233753
0.0125771
0.2335
0.0183844
0.233178
0.0239912
0.232797
0.0294616
0.232369
0.0348478
0.231904
0.0401942
0.231417
0.0455387
0.230922
0.0509131
0.230438
0.0563445
0.229983
0.0618555
0.22958
0.0674656
0.229256
0.0731909
0.229042
0.0790453
0.228971
0.0850401
0.229088
0.0911848
0.229442
0.0974861
0.230095
0.103948
0.231121
0.110571
0.23261
0.11735
0.234675
0.12427
0.23745
0.131306
0.241099
0.138413
0.245813
0.145525
0.251811
0.152537
0.259333
0.159302
0.26862
0.165616
0.279846
0.171189
0.293103
0.175752
0.178792
0.30791
0.239619
0.00654709
0.239501
0.0126959
0.239332
0.0185532
0.239121
0.0242017
0.238879
0.029704
0.238616
0.0351109
0.238345
0.0404652
0.238081
0.045803
0.23784
0.051154
0.237641
0.056543
0.237507
0.0619899
0.237462
0.0675108
0.237534
0.0731183
0.237758
0.0788216
0.238171
0.0846267
0.23882
0.0905365
0.239756
0.0965499
0.241043
0.102661
0.242754
0.10886
0.244978
0.115126
0.247817
0.121431
0.25139
0.127733
0.255831
0.133972
0.261289
0.140067
0.267919
0.145907
0.27587
0.151351
0.28526
0.156226
0.296132
0.160317
0.308473
0.16341
0.165241
0.322024
0.245448
0.00657824
0.245389
0.0127548
0.245308
0.0186341
0.245213
0.0242966
0.245114
0.0298032
0.245022
0.035203
0.24495
0.0405368
0.244915
0.0458385
0.244933
0.0511359
0.245025
0.0564508
0.245214
0.0618006
0.245527
0.0671978
0.245994
0.0726513
0.24665
0.0781659
0.247534
0.0837425
0.248693
0.0893778
0.250179
0.0950638
0.252053
0.100787
0.254386
0.106527
0.257256
0.112256
0.260751
0.117935
0.264971
0.123513
0.27002
0.128924
0.276001
0.134085
0.283016
0.138892
0.291143
0.143223
0.30043
0.14694
0.310863
0.149884
0.322374
0.151898
0.152853
0.334763
0.251418
0.00657757
0.251421
0.012752
0.25143
0.0186243
0.251454
0.0242726
0.251502
0.0297556
0.251585
0.0351202
0.251717
0.0404051
0.251913
0.045642
0.252193
0.0508562
0.252577
0.056067
0.253089
0.0612886
0.253756
0.0665305
0.254609
0.0717979
0.255684
0.0770914
0.257019
0.0824072
0.25866
0.0877371
0.260656
0.0930674
0.263065
0.0983787
0.265947
0.103645
0.269372
0.108831
0.273412
0.113895
0.278143
0.118782
0.283639
0.123428
0.289971
0.127753
0.297193
0.13167
0.305338
0.135077
0.314409
0.137869
0.32436
0.139934
0.33509
0.141168
0.141513
0.346431
0.257532
0.00654435
0.257598
0.0126859
0.2577
0.018522
0.257846
0.0241275
0.258043
0.0295586
0.258303
0.0348601
0.258639
0.0400683
0.259069
0.0452125
0.25961
0.0503154
0.260283
0.0553937
0.261113
0.0604588
0.262126
0.0655172
0.263354
0.0705706
0.264829
0.0756162
0.26659
0.0806464
0.268678
0.0856489
0.271139
0.0906059
0.274024
0.0954943
0.277384
0.100284
0.281276
0.104939
0.285756
0.109415
0.290879
0.11366
0.296694
0.117613
0.30324
0.121207
0.310542
0.124368
0.318602
0.127018
0.327392
0.129079
0.336848
0.130478
0.346866
0.13115
0.131074
0.357305
0.263794
0.00647808
0.263924
0.0125557
0.26412
0.0183259
0.264388
0.0238599
0.264735
0.0292113
0.265173
0.0344222
0.265715
0.0395267
0.266376
0.0445514
0.267174
0.0495166
0.268132
0.0544364
0.269271
0.0593197
0.270618
0.06417
0.272202
0.0689865
0.274055
0.0737632
0.276211
0.0784899
0.278709
0.0831513
0.281588
0.0877272
0.28489
0.0921924
0.288658
0.0965162
0.292935
0.100662
0.297762
0.104588
0.303175
0.108246
0.309203
0.111585
0.315863
0.114547
0.323155
0.117075
0.331062
0.119111
0.33954
0.120601
0.34852
0.121498
0.357904
0.121766
0.121405
0.367573
0.270207
0.00637859
0.270401
0.0123612
0.270691
0.0180357
0.271081
0.0234698
0.271579
0.0287139
0.272193
0.0338077
0.272938
0.0387824
0.273826
0.0436625
0.274877
0.0484656
0.27611
0.0532036
0.277547
0.0578829
0.279212
0.0625049
0.281133
0.0670662
0.283337
0.0715589
0.285856
0.0759707
0.288722
0.0802848
0.29197
0.08448
0.295632
0.0885306
0.299741
0.0924067
0.304329
0.096074
0.309422
0.0994945
0.315042
0.102627
0.3212
0.105427
0.327897
0.107851
0.335118
0.109854
0.342833
0.111396
0.350993
0.112441
0.359528
0.112962
0.368351
0.112943
0.112395
0.377362
0.276773
0.00624597
0.277032
0.0121024
0.277416
0.017652
0.277928
0.0229581
0.278573
0.0280683
0.279362
0.0330192
0.280304
0.0378397
0.281415
0.0425517
0.28271
0.0471706
0.284208
0.0517062
0.285927
0.0561629
0.287892
0.0605401
0.290126
0.0648328
0.292653
0.0690317
0.2955
0.0731234
0.298694
0.0770906
0.302262
0.0809122
0.306229
0.0845636
0.310619
0.0880167
0.315452
0.091241
0.320743
0.0942032
0.326501
0.096869
0.332725
0.0992034
0.339403
0.101172
0.346514
0.102744
0.354018
0.103891
0.361867
0.104593
0.369993
0.104836
0.378321
0.104615
0.103949
0.386767
0.283498
0.00608059
0.28382
0.0117802
0.284296
0.0171759
0.284927
0.0223269
0.285718
0.0272773
0.286677
0.032061
0.287812
0.0367043
0.289137
0.0412268
0.290665
0.045642
0.292414
0.0499576
0.294401
0.0541763
0.296645
0.0582962
0.299166
0.0623113
0.301986
0.0662115
0.305127
0.0699831
0.308608
0.0736092
0.312451
0.0770696
0.316672
0.0803418
0.321288
0.0834008
0.326309
0.0862199
0.331741
0.0887715
0.337582
0.0910281
0.343823
0.0929626
0.350445
0.0945502
0.357419
0.0957696
0.364707
0.0966039
0.372257
0.0970421
0.380012
0.0970805
0.387905
0.0967226
0.0959885
0.395865
0.290384
0.00588309
0.290768
0.0113959
0.291334
0.0166097
0.292082
0.0215791
0.293014
0.0263451
0.294137
0.0309386
0.295458
0.0353836
0.296987
0.0396974
0.298737
0.0438916
0.300723
0.0479724
0.302958
0.0519412
0.305459
0.0557951
0.308242
0.0595275
0.311326
0.0631283
0.314725
0.0665842
0.318455
0.0698791
0.322529
0.0729948
0.32696
0.0759112
0.331754
0.0786067
0.336915
0.0810591
0.34244
0.0832462
0.348322
0.0851467
0.354544
0.0867407
0.361082
0.0880113
0.367907
0.0889449
0.374979
0.0895326
0.38225
0.0897708
0.389668
0.0896619
0.397177
0.0892141
0.0884484
0.404717
0.297435
0.00565432
0.297879
0.0109512
0.298533
0.0159558
0.299394
0.0207185
0.300462
0.0252767
0.301742
0.0296588
0.303239
0.0338861
0.304963
0.0379741
0.306922
0.0419327
0.309127
0.0457667
0.311592
0.0494766
0.314328
0.0530591
0.317348
0.0565074
0.320665
0.0598116
0.324289
0.0629595
0.328232
0.0659365
0.3325
0.0687265
0.337099
0.0713121
0.342031
0.0736755
0.347291
0.0757989
0.352872
0.0776649
0.358761
0.0792577
0.364938
0.0805638
0.371377
0.0815721
0.378047
0.0822755
0.384909
0.0826706
0.391921
0.0827589
0.399036
0.0825468
0.406205
0.0820448
0.0812737
0.41338
0.304654
0.00539533
0.305157
0.0104481
0.305895
0.0152175
0.306864
0.0197495
0.308063
0.0240782
0.309493
0.028229
0.311157
0.0322213
0.313063
0.0360686
0.315217
0.0397792
0.317626
0.043357
0.320301
0.046802
0.323249
0.0501106
0.326481
0.0532761
0.330003
0.0562895
0.333822
0.0591398
0.337945
0.0618142
0.342372
0.0642989
0.347105
0.0665796
0.352138
0.0686419
0.357465
0.0704719
0.363073
0.0720567
0.368946
0.0733855
0.37506
0.0744493
0.38139
0.0752422
0.387904
0.0757615
0.394567
0.0760079
0.40134
0.0759861
0.408182
0.0757047
0.415051
0.0751756
0.0744183
0.421906
0.312046
0.00510734
0.312605
0.00988905
0.313424
0.0143985
0.314497
0.0186772
0.315819
0.0227559
0.31739
0.0266576
0.319212
0.0303993
0.321288
0.0339929
0.323622
0.0374455
0.326219
0.0407602
0.329084
0.0439365
0.332224
0.046971
0.335642
0.0498575
0.339344
0.0525881
0.34333
0.055153
0.347603
0.0575414
0.35216
0.0597421
0.356996
0.0617433
0.362104
0.063534
0.367472
0.0651039
0.373085
0.066444
0.378923
0.0675471
0.384964
0.0684084
0.391181
0.0690254
0.397544
0.0693988
0.40402
0.069532
0.410574
0.0694317
0.417171
0.0691075
0.423775
0.0685718
0.0678425
0.430351
0.319615
0.00479166
0.320228
0.00927663
0.321124
0.0135027
0.322294
0.0175069
0.323733
0.0213169
0.325437
0.0249531
0.327406
0.0284304
0.32964
0.0317593
0.332139
0.0349459
0.334907
0.0379925
0.337945
0.0408985
0.341255
0.0436608
0.344839
0.0462739
0.348696
0.048731
0.352825
0.0510237
0.357223
0.0531434
0.361885
0.055081
0.3668
0.0568273
0.37196
0.0583743
0.37735
0.0597146
0.382951
0.0608424
0.388745
0.0617536
0.394707
0.0624464
0.400811
0.0629209
0.40703
0.0631799
0.413333
0.0632288
0.41969
0.0630752
0.426068
0.0627291
0.432437
0.0622025
0.0615116
0.438768
0.327365
0.00444964
0.328028
0.00861353
0.328997
0.012534
0.33026
0.016244
0.331809
0.019768
0.333638
0.023124
0.335743
0.0263251
0.338123
0.02938
0.340774
0.0322941
0.343697
0.0350694
0.346891
0.0377052
0.350353
0.0401986
0.354082
0.0425451
0.358074
0.0447389
0.362324
0.0467734
0.366826
0.0486414
0.371571
0.0503361
0.376547
0.0518508
0.381742
0.0531796
0.387139
0.0543178
0.392719
0.0552621
0.398462
0.0560108
0.404344
0.056564
0.410341
0.056924
0.416426
0.0570949
0.422572
0.057083
0.428751
0.0568962
0.434936
0.0565445
0.441099
0.0560391
0.0553946
0.447216