/*--------------------------------*- C++ -*----------------------------------*\
  =========                 |
  \\      /  F ield         | OpenFOAM: The Open Source CFD Toolbox
   \\    /   O peration     | Website:  https://openfoam.org
    \\  /    A nd           | Version:  7
     \\/     M anipulation  |
\*---------------------------------------------------------------------------*/
FoamFile
{
    version     2.0;
    format      ascii;
    class       volVectorField;
    location    "2.2";
    object      U;
}
// * * * * * * * * * * * * * * * * * * * * * * * * * * * * * * * * * * * * * //

dimensions      [0 1 -1 0 0 0 0];

internalField   nonuniform List<vector> 
2790
(
(9.94398 0.0205268 0)
(9.87569 0.029595 0)
(9.77515 0.0360004 0)
(9.64933 0.0425704 0)
(9.50392 0.0494027 0)
(9.33983 0.0564483 0)
(9.15624 0.0638382 0)
(8.95224 0.0717357 0)
(8.727 0.0802807 0)
(8.47954 0.0895998 0)
(8.20865 0.09982 0)
(7.91295 0.111071 0)
(7.59091 0.123485 0)
(7.24095 0.137188 0)
(6.86144 0.152293 0)
(6.45087 0.168887 0)
(6.00792 0.18701 0)
(5.53171 0.206627 0)
(5.022 0.227592 0)
(4.4795 0.249606 0)
(3.90624 0.272164 0)
(3.30597 0.294504 0)
(2.6845 0.31559 0)
(2.04992 0.33425 0)
(1.41119 0.350558 0)
(0.797543 0.372817 0)
(0.11028 0.324843 0)
(-0.469503 -0.114815 0)
(-0.453765 -0.296903 0)
(-0.231101 -0.423674 0)
(9.9985 0.0407141 0)
(9.98143 0.0624048 0)
(9.93568 0.0791725 0)
(9.86405 0.0966667 0)
(9.7708 0.115174 0)
(9.65691 0.134546 0)
(9.52175 0.155039 0)
(9.36446 0.177012 0)
(9.18425 0.20078 0)
(8.98012 0.226623 0)
(8.7509 0.254817 0)
(8.49518 0.285631 0)
(8.21142 0.319316 0)
(7.89798 0.356083 0)
(7.55315 0.396071 0)
(7.17526 0.439303 0)
(6.76282 0.485619 0)
(6.31468 0.534598 0)
(5.83027 0.585455 0)
(5.30992 0.636929 0)
(4.75523 0.687158 0)
(4.16954 0.73358 0)
(3.55849 0.772865 0)
(2.93083 0.800985 0)
(2.29932 0.81362 0)
(1.69242 0.807099 0)
(1.10672 0.74704 0)
(0.65856 0.547704 0)
(0.186029 0.224228 0)
(-0.0081974 -0.453787 0)
(9.99559 0.0432258 0)
(9.97553 0.0753087 0)
(9.93174 0.1034 0)
(9.86479 0.132441 0)
(9.77761 0.163144 0)
(9.67132 0.195496 0)
(9.54557 0.22985 0)
(9.39975 0.266718 0)
(9.23319 0.306591 0)
(9.0451 0.34993 0)
(8.83447 0.397194 0)
(8.60012 0.44884 0)
(8.34069 0.505303 0)
(8.05468 0.566963 0)
(7.7405 0.634095 0)
(7.39652 0.706795 0)
(7.02116 0.784879 0)
(6.61299 0.867739 0)
(6.17097 0.95418 0)
(5.69469 1.04221 0)
(5.18471 1.1288 0)
(4.64309 1.20967 0)
(4.07399 1.27901 0)
(3.48464 1.32915 0)
(2.88621 1.34987 0)
(2.29892 1.32618 0)
(1.7314 1.22049 0)
(1.2159 0.972735 0)
(0.70092 0.569903 0)
(0.357843 -0.156819 0)
(9.99402 0.0495255 0)
(9.97178 0.0932579 0)
(9.92782 0.133648 0)
(9.86214 0.174307 0)
(9.77677 0.216551 0)
(9.67275 0.260796 0)
(9.55001 0.307579 0)
(9.40811 0.357575 0)
(9.24656 0.411458 0)
(9.06479 0.469876 0)
(8.86206 0.533471 0)
(8.6375 0.602887 0)
(8.39008 0.678745 0)
(8.11869 0.761611 0)
(7.82212 0.851935 0)
(7.49908 0.949963 0)
(7.14829 1.0556 0)
(6.76847 1.16826 0)
(6.35852 1.28658 0)
(5.91764 1.4082 0)
(5.44561 1.52936 0)
(4.94313 1.64452 0)
(4.41236 1.74593 0)
(3.85753 1.82297 0)
(3.28518 1.86107 0)
(2.70586 1.83999 0)
(2.1252 1.72564 0)
(1.55392 1.47749 0)
(0.957738 1.08333 0)
(0.509312 0.501953 0)
(9.9933 0.0572474 0)
(9.96991 0.111025 0)
(9.92587 0.162201 0)
(9.86135 0.213473 0)
(9.77782 0.266508 0)
(9.67611 0.322088 0)
(9.55623 0.380894 0)
(9.41783 0.443695 0)
(9.2605 0.511272 0)
(9.08378 0.58439 0)
(8.88707 0.663805 0)
(8.66968 0.750273 0)
(8.43081 0.84453 0)
(8.16961 0.947258 0)
(7.88517 1.05902 0)
(7.57653 1.18019 0)
(7.24269 1.31075 0)
(6.88261 1.4502 0)
(6.49529 1.59719 0)
(6.07975 1.74924 0)
(5.63521 1.90226 0)
(5.16122 2.05011 0)
(4.65794 2.18391 0)
(4.12647 2.29141 0)
(3.56875 2.35618 0)
(2.98834 2.3569 0)
(2.38639 2.26449 0)
(1.76606 2.04716 0)
(1.08979 1.6909 0)
(0.536552 1.15364 0)
(9.99301 0.06558 0)
(9.9692 0.128783 0)
(9.9255 0.190233 0)
(9.86242 0.251998 0)
(9.78111 0.315764 0)
(9.6822 0.382532 0)
(9.5657 0.45311 0)
(9.43132 0.528354 0)
(9.27873 0.609145 0)
(9.1075 0.696354 0)
(8.91713 0.790847 0)
(8.70701 0.893482 0)
(8.47648 1.0051 0)
(8.2248 1.12647 0)
(7.95122 1.25827 0)
(7.65491 1.40095 0)
(7.33501 1.55463 0)
(6.9906 1.71889 0)
(6.62065 1.89251 0)
(6.22398 2.07311 0)
(5.79929 2.25666 0)
(5.3451 2.43694 0)
(4.85984 2.60486 0)
(4.34192 2.74782 0)
(3.78972 2.84908 0)
(3.20201 2.88767 0)
(2.57612 2.83766 0)
(1.91314 2.67101 0)
(1.17256 2.37338 0)
(0.549879 1.89377 0)
(9.99296 0.0741238 0)
(9.96924 0.14641 0)
(9.92631 0.217624 0)
(9.86497 0.289475 0)
(9.78625 0.363575 0)
(9.6906 0.44108 0)
(9.57803 0.52294 0)
(9.44831 0.610112 0)
(9.30116 0.70357 0)
(9.1362 0.804286 0)
(8.95298 0.91322 0)
(8.75095 1.03132 0)
(8.52951 1.15951 0)
(8.28797 1.29866 0)
(8.02562 1.44952 0)
(7.74166 1.61265 0)
(7.43523 1.78829 0)
(7.10531 1.9762 0)
(6.75071 2.17536 0)
(6.36992 2.38369 0)
(5.96105 2.59752 0)
(5.52164 2.81107 0)
(5.04861 3.01575 0)
(4.53818 3.19948 0)
(3.98595 3.34611 0)
(3.38732 3.43533 0)
(2.73679 3.44263 0)
(2.03591 3.34077 0)
(1.24156 3.11283 0)
(0.563433 2.69238 0)
(9.99306 0.0826447 0)
(9.96978 0.163718 0)
(9.92801 0.244214 0)
(9.86873 0.325691 0)
(9.79295 0.409701 0)
(9.70101 0.4975 0)
(9.59291 0.590164 0)
(9.46847 0.688746 0)
(9.32746 0.794307 0)
(9.16955 0.907905 0)
(8.99434 1.03059 0)
(8.80133 1.1634 0)
(8.58996 1.30735 0)
(8.35956 1.4634 0)
(8.10943 1.63241 0)
(7.83873 1.81507 0)
(7.54648 2.0118 0)
(7.23151 2.22256 0)
(6.89233 2.44669 0)
(6.527 2.68254 0)
(6.13296 2.9271 0)
(5.70678 3.1754 0)
(5.24398 3.41988 0)
(4.73889 3.64961 0)
(4.18472 3.84956 0)
(3.57413 4.00014 0)
(2.89904 4.07709 0)
(2.16177 4.05153 0)
(1.31593 3.90082 0)
(0.583142 3.53926 0)
(9.99325 0.0909927 0)
(9.97069 0.180535 0)
(9.9304 0.269854 0)
(9.87351 0.360482 0)
(9.801 0.453938 0)
(9.71319 0.551544 0)
(9.61005 0.654483 0)
(9.49147 0.763897 0)
(9.35725 0.880926 0)
(9.20713 1.00671 0)
(9.04075 1.14239 0)
(8.85768 1.28909 0)
(8.65738 1.44792 0)
(8.43923 1.61995 0)
(8.20251 1.80618 0)
(7.94632 2.00745 0)
(7.66959 2.22441 0)
(7.37093 2.45734 0)
(7.04853 2.70601 0)
(6.70001 2.96941 0)
(6.32212 3.24537 0)
(5.91047 3.53011 0)
(5.45927 3.81751 0)
(4.96103 4.0983 0)
(4.40657 4.35907 0)
(3.78572 4.58121 0)
(3.08705 4.74012 0)
(2.31235 4.80347 0)
(1.41045 4.74007 0)
(0.614236 4.4409 0)
(9.99352 0.0990645 0)
(9.97188 0.196721 0)
(9.93334 0.294404 0)
(9.87913 0.393687 0)
(9.81022 0.496083 0)
(9.72691 0.602965 0)
(9.6292 0.715602 0)
(9.51699 0.835215 0)
(9.39016 0.963022 0)
(9.24851 1.10024 0)
(9.09173 1.24809 0)
(8.91945 1.40778 0)
(8.7312 1.58053 0)
(8.52639 1.76753 0)
(8.30431 1.96992 0)
(8.06406 2.18878 0)
(7.80445 2.425 0)
(7.52397 2.67926 0)
(7.22055 2.95189 0)
(6.89139 3.24265 0)
(6.53267 3.55047 0)
(6.13917 3.87301 0)
(5.70383 4.20606 0)
(5.21739 4.54258 0)
(4.66805 4.87149 0)
(4.04211 5.17591 0)
(3.32313 5.43118 0)
(2.5094 5.60081 0)
(1.54168 5.64234 0)
(0.663994 5.4169 0)
(9.99384 0.106784 0)
(9.97328 0.212158 0)
(9.93673 0.317734 0)
(9.88546 0.425157 0)
(9.82045 0.535953 0)
(9.742 0.651541 0)
(9.6501 0.773256 0)
(9.54474 0.902392 0)
(9.42585 1.04024 0)
(9.29326 1.18807 0)
(9.14678 1.34719 0)
(8.98609 1.5189 0)
(8.81078 1.70452 0)
(8.62036 1.90536 0)
(8.41414 2.12274 0)
(8.19125 2.35795 0)
(7.95052 2.61222 0)
(7.69035 2.88668 0)
(7.40856 3.18228 0)
(7.10213 3.4997 0)
(6.76684 3.83913 0)
(6.39687 4.20001 0)
(5.98418 4.58045 0)
(5.51783 4.9764 0)
(4.98331 5.38021 0)
(4.36241 5.77831 0)
(3.63129 6.14781 0)
(2.77975 6.44932 0)
(1.73329 6.62721 0)
(0.744796 6.50185 0)
(9.9942 0.114094 0)
(9.97484 0.226749 0)
(9.94049 0.339728 0)
(9.8924 0.454755 0)
(9.83155 0.573385 0)
(9.75825 0.697073 0)
(9.67254 0.827212 0)
(9.57444 0.965156 0)
(9.46394 1.11225 0)
(9.34097 1.26984 0)
(9.20539 1.43928 0)
(9.05698 1.62196 0)
(8.89544 1.81929 0)
(8.72034 2.03272 0)
(8.53113 2.26374 0)
(8.32701 2.51386 0)
(8.10689 2.78466 0)
(7.86926 3.07775 0)
(7.61199 3.39476 0)
(7.33206 3.73734 0)
(7.02523 4.1071 0)
(6.68549 4.50544 0)
(6.3043 4.93329 0)
(5.86963 5.39038 0)
(5.36452 5.87406 0)
(4.7659 6.37676 0)
(4.04003 6.88163 0)
(3.1611 7.35192 0)
(2.02465 7.72174 0)
(0.880758 7.75581 0)
(9.99459 0.12095 0)
(9.97654 0.240414 0)
(9.94455 0.360286 0)
(9.89983 0.482363 0)
(9.84337 0.608235 0)
(9.77549 0.739392 0)
(9.69627 0.877267 0)
(9.60578 1.02327 0)
(9.50408 1.17878 0)
(9.39118 1.3452 0)
(9.26702 1.52396 0)
(9.1315 1.71648 0)
(8.98443 1.92429 0)
(8.82551 2.14894 0)
(8.65432 2.39207 0)
(8.47023 2.65543 0)
(8.27236 2.94092 0)
(8.0594 3.2506 0)
(7.82948 3.58677 0)
(7.57993 3.95206 0)
(7.30688 4.34948 0)
(7.00474 4.78254 0)
(6.66537 5.25519 0)
(6.27675 5.77173 0)
(5.82095 6.33617 0)
(5.2713 6.95063 0)
(4.58375 7.6117 0)
(3.70964 8.299 0)
(2.48825 8.95658 0)
(1.12466 9.29206 0)
(9.995 0.127315 0)
(9.97835 0.25309 0)
(9.94884 0.379323 0)
(9.90767 0.50788 0)
(9.85579 0.640386 0)
(9.79355 0.778357 0)
(9.72107 0.923261 0)
(9.63848 1.07654 0)
(9.5459 1.23962 0)
(9.44344 1.41393 0)
(9.33114 1.60094 0)
(9.209 1.80214 0)
(9.07697 2.01911 0)
(8.93491 2.25349 0)
(8.7826 2.50707 0)
(8.61963 2.78177 0)
(8.44541 3.07978 0)
(8.25899 3.40353 0)
(8.059 3.75593 0)
(7.84339 4.14044 0)
(7.60916 4.56136 0)
(7.35189 5.02408 0)
(7.06497 5.53556 0)
(6.73834 6.10478 0)
(6.35608 6.74349 0)
(5.89261 7.46678 0)
(5.29987 8.2939 0)
(4.50866 9.24552 0)
(3.26931 10.3399 0)
(1.60561 11.3585 0)
(9.99544 0.133163 0)
(9.98024 0.264725 0)
(9.95332 0.396768 0)
(9.91584 0.531214 0)
(9.86869 0.669717 0)
(9.81226 0.813814 0)
(9.74672 0.964999 0)
(9.67225 1.12474 0)
(9.58905 1.29448 0)
(9.49732 1.47568 0)
(9.39719 1.66982 0)
(9.2888 1.87844 0)
(9.17224 2.10316 0)
(9.04757 2.34568 0)
(8.91478 2.60788 0)
(8.77376 2.89182 0)
(8.62427 3.19987 0)
(8.46586 3.53476 0)
(8.29781 3.89981 0)
(8.119 4.29909 0)
(7.92772 4.73783 0)
(7.72144 5.22286 0)
(7.49633 5.76339 0)
(7.24655 6.37225 0)
(6.96264 7.06789 0)
(6.62915 7.87815 0)
(6.21338 8.84857 0)
(5.66601 10.0624 0)
(4.69191 11.7282 0)
(2.68934 14.5939 0)
(0.190942 -0.20911 0)
(0.427695 -0.180526 0)
(0.676282 -0.14799 0)
(0.897592 -0.121461 0)
(1.08592 -0.100702 0)
(1.24732 -0.084233 0)
(1.38809 -0.0709954 0)
(1.51243 -0.0602592 0)
(1.62306 -0.0513955 0)
(1.72175 -0.0437797 0)
(1.80929 -0.03679 0)
(1.88538 -0.0299729 0)
(1.94895 -0.0232653 0)
(1.99931 -0.0170725 0)
(2.03724 -0.0118577 0)
(2.06409 -0.00743943 0)
(2.07964 -0.00338235 0)
(2.08296 0.000658921 0)
(2.0759 0.00493222 0)
(2.06271 0.00891498 0)
(2.04669 0.011516 0)
(2.03069 0.011314 0)
(2.01889 0.00742491 0)
(2.01595 0.000224357 0)
(2.02516 -0.00885851 0)
(2.04807 -0.0181042 0)
(2.08476 -0.0263637 0)
(2.13486 -0.033122 0)
(2.19773 -0.0373946 0)
(2.28773 -0.0361203 0)
(0.137368 -0.421234 0)
(0.358972 -0.383363 0)
(0.577313 -0.323127 0)
(0.774348 -0.270718 0)
(0.945076 -0.228873 0)
(1.09407 -0.195349 0)
(1.22615 -0.168204 0)
(1.34452 -0.146045 0)
(1.45136 -0.127652 0)
(1.54827 -0.111703 0)
(1.63626 -0.0966771 0)
(1.71536 -0.08134 0)
(1.78446 -0.065487 0)
(1.84213 -0.050479 0)
(1.88857 -0.0374967 0)
(1.92674 -0.0235307 0)
(1.95771 -0.00822018 0)
(1.97941 0.00203778 0)
(1.99117 0.00562545 0)
(1.99086 0.00561908 0)
(1.9783 0.00445832 0)
(1.95157 0.00249665 0)
(1.91017 -0.0004779 0)
(1.85721 -0.00411784 0)
(1.79892 -0.00785714 0)
(1.74349 -0.0112605 0)
(1.69971 -0.0144214 0)
(1.6632 -0.0188979 0)
(1.64469 -0.0254726 0)
(1.67029 -0.0324499 0)
(0.0942984 -0.636521 0)
(0.272789 -0.591692 0)
(0.433339 -0.50583 0)
(0.580244 -0.428671 0)
(0.706586 -0.366116 0)
(0.81614 -0.315363 0)
(0.91205 -0.273733 0)
(0.996345 -0.23929 0)
(1.07042 -0.21053 0)
(1.13546 -0.185833 0)
(1.1926 -0.162851 0)
(1.24256 -0.13914 0)
(1.28433 -0.113205 0)
(1.3152 -0.0881051 0)
(1.33217 -0.0720612 0)
(1.34215 -0.0638469 0)
(1.35151 -0.0489847 0)
(1.31374 -0.0236518 0)
(1.2324 0.00159111 0)
(1.13084 0.024397 0)
(1.02169 0.0448065 0)
(0.910268 0.0609062 0)
(0.800231 0.06938 0)
(0.697419 0.0684784 0)
(0.609779 0.0573365 0)
(0.547551 0.0362064 0)
(0.520248 0.0125644 0)
(0.529966 -0.0111496 0)
(0.574146 -0.0452068 0)
(0.679097 -0.0841699 0)
(0.05714 -0.7838 0)
(0.181555 -0.725421 0)
(0.273102 -0.617614 0)
(0.360956 -0.522334 0)
(0.432143 -0.444778 0)
(0.491204 -0.381354 0)
(0.539449 -0.328843 0)
(0.577754 -0.28475 0)
(0.606435 -0.247351 0)
(0.625444 -0.215387 0)
(0.635644 -0.186935 0)
(0.6395 -0.160057 0)
(0.637646 -0.132 0)
(0.630387 -0.0988909 0)
(0.596717 -0.0573954 0)
(0.47655 -0.0133329 0)
(0.344821 0.0319437 0)
(0.266388 0.0754058 0)
(0.182693 0.104242 0)
(0.0976926 0.119311 0)
(0.0165894 0.126438 0)
(-0.0561338 0.126629 0)
(-0.118621 0.118771 0)
(-0.166107 0.101639 0)
(-0.194746 0.0749551 0)
(-0.20433 0.0396218 0)
(-0.203337 -0.00100253 0)
(-0.163806 -0.0441114 0)
(-0.113278 -0.0903387 0)
(-0.0412231 -0.129591 0)
(0.0205034 -0.869489 0)
(0.0818803 -0.792398 0)
(0.0976715 -0.667019 0)
(0.120505 -0.559935 0)
(0.1283 -0.471747 0)
(0.127824 -0.398995 0)
(0.118527 -0.338244 0)
(0.100861 -0.286335 0)
(0.0741594 -0.240561 0)
(0.0351109 -0.198691 0)
(-0.0199581 -0.158972 0)
(-0.0896727 -0.118439 0)
(-0.175136 -0.0715577 0)
(-0.284558 -0.0175824 0)
(-0.377678 0.0329645 0)
(-0.43136 0.0671919 0)
(-0.496716 0.0892487 0)
(-0.55675 0.111913 0)
(-0.614565 0.135298 0)
(-0.667162 0.149845 0)
(-0.711883 0.154143 0)
(-0.747247 0.148359 0)
(-0.771515 0.133023 0)
(-0.783628 0.108134 0)
(-0.784036 0.0745627 0)
(-0.775351 0.0334206 0)
(-0.761968 -0.0135864 0)
(-0.734761 -0.0627648 0)
(-0.709289 -0.10754 0)
(-0.692807 -0.139088 0)
(-0.018121 -0.88473 0)
(-0.026966 -0.784475 0)
(-0.0875045 -0.646674 0)
(-0.135111 -0.532486 0)
(-0.195097 -0.437048 0)
(-0.260892 -0.35774 0)
(-0.333569 -0.290743 0)
(-0.412745 -0.232641 0)
(-0.497669 -0.18075 0)
(-0.5872 -0.133106 0)
(-0.680507 -0.0881759 0)
(-0.775409 -0.0446739 0)
(-0.868768 -0.0038704 0)
(-0.940624 0.0314177 0)
(-1.00017 0.0639911 0)
(-1.05672 0.0958407 0)
(-1.10931 0.1233 0)
(-1.15617 0.144786 0)
(-1.19588 0.161521 0)
(-1.22741 0.170048 0)
(-1.25031 0.168762 0)
(-1.2646 0.15743 0)
(-1.27046 0.136549 0)
(-1.26854 0.106836 0)
(-1.26013 0.0695557 0)
(-1.24725 0.0259059 0)
(-1.23257 -0.0225561 0)
(-1.21586 -0.0718484 0)
(-1.20453 -0.116792 0)
(-1.20114 -0.149192 0)
(-0.062684 -0.823725 0)
(-0.143701 -0.702378 0)
(-0.275637 -0.561547 0)
(-0.39271 -0.446267 0)
(-0.514023 -0.35073 0)
(-0.634363 -0.27187 0)
(-0.75263 -0.205914 0)
(-0.867565 -0.149393 0)
(-0.97823 -0.0996467 0)
(-1.08384 -0.0553238 0)
(-1.18397 -0.0159786 0)
(-1.27021 0.0183086 0)
(-1.34053 0.0488971 0)
(-1.40503 0.0778204 0)
(-1.46329 0.105329 0)
(-1.51504 0.130594 0)
(-1.55968 0.152275 0)
(-1.59647 0.16885 0)
(-1.6246 0.179402 0)
(-1.6439 0.181976 0)
(-1.65487 0.175409 0)
(-1.6584 0.159513 0)
(-1.65557 0.134767 0)
(-1.64776 0.102077 0)
(-1.63669 0.0628322 0)
(-1.62428 0.0185337 0)
(-1.61232 -0.0291296 0)
(-1.60321 -0.0768672 0)
(-1.60021 -0.120707 0)
(-1.60192 -0.152387 0)
(-0.110992 -0.688858 0)
(-0.25802 -0.553743 0)
(-0.456342 -0.417508 0)
(-0.631759 -0.309545 0)
(-0.799411 -0.223349 0)
(-0.955744 -0.153856 0)
(-1.09998 -0.0967876 0)
(-1.23142 -0.0494799 0)
(-1.3492 -0.0101432 0)
(-1.44985 0.0219048 0)
(-1.5354 0.0488714 0)
(-1.61281 0.0735575 0)
(-1.6833 0.0974299 0)
(-1.74658 0.120564 0)
(-1.80204 0.142162 0)
(-1.84929 0.161201 0)
(-1.88804 0.176552 0)
(-1.91805 0.18704 0)
(-1.93914 0.191502 0)
(-1.95164 0.188548 0)
(-1.95649 0.177358 0)
(-1.95498 0.157859 0)
(-1.94868 0.130562 0)
(-1.9393 0.096378 0)
(-1.92881 0.056608 0)
(-1.91908 0.0128584 0)
(-1.9114 -0.0330828 0)
(-1.90882 -0.0787288 0)
(-1.91209 -0.120728 0)
(-1.91678 -0.150606 0)
(-0.164791 -0.488433 0)
(-0.371463 -0.350613 0)
(-0.627296 -0.231448 0)
(-0.849096 -0.138489 0)
(-1.04815 -0.0660058 0)
(-1.22021 -0.0137044 0)
(-1.36669 0.0235823 0)
(-1.49177 0.0514616 0)
(-1.59936 0.0734896 0)
(-1.69591 0.0931348 0)
(-1.78258 0.1115 0)
(-1.86044 0.12902 0)
(-1.92982 0.145855 0)
(-1.99069 0.161912 0)
(-2.04285 0.17654 0)
(-2.08615 0.188793 0)
(-2.12055 0.197596 0)
(-2.14613 0.201863 0)
(-2.16314 0.200505 0)
(-2.17222 0.192493 0)
(-2.1745 0.177271 0)
(-2.17148 0.154888 0)
(-2.16488 0.125884 0)
(-2.15657 0.0911154 0)
(-2.14851 0.0517382 0)
(-2.14257 0.00930654 0)
(-2.14002 -0.0344347 0)
(-2.14363 -0.0776809 0)
(-2.15242 -0.117432 0)
(-2.15947 -0.145184 0)
(-0.235436 -0.249182 0)
(-0.50329 -0.0813658 0)
(-0.790049 0.0194437 0)
(-1.02354 0.0742812 0)
(-1.21995 0.103901 0)
(-1.38743 0.122389 0)
(-1.53263 0.136039 0)
(-1.65923 0.147041 0)
(-1.77024 0.1567 0)
(-1.86799 0.165707 0)
(-1.95423 0.174562 0)
(-2.03033 0.183577 0)
(-2.09705 0.192594 0)
(-2.15471 0.201166 0)
(-2.2034 0.208581 0)
(-2.24321 0.213963 0)
(-2.27432 0.21633 0)
(-2.29707 0.21466 0)
(-2.31195 0.207972 0)
(-2.3198 0.195474 0)
(-2.3218 0.176816 0)
(-2.31951 0.152161 0)
(-2.31471 0.122072 0)
(-2.30923 0.0873419 0)
(-2.30492 0.0489788 0)
(-2.30358 0.00834258 0)
(-2.30666 -0.0330394 0)
(-2.3164 -0.0738086 0)
(-2.33039 -0.11124 0)
(-2.33965 -0.137053 0)
(-0.274379 0.185765 0)
(-0.565229 0.241389 0)
(-0.869359 0.263952 0)
(-1.11603 0.270469 0)
(-1.32416 0.267433 0)
(-1.49945 0.260412 0)
(-1.64786 0.252611 0)
(-1.77472 0.245792 0)
(-1.88419 0.240649 0)
(-1.97922 0.237342 0)
(-2.062 0.235824 0)
(-2.13422 0.235863 0)
(-2.19697 0.236843 0)
(-2.25079 0.237937 0)
(-2.2959 0.238294 0)
(-2.33256 0.237081 0)
(-2.36115 0.233407 0)
(-2.38219 0.226319 0)
(-2.39635 0.214918 0)
(-2.40451 0.198566 0)
(-2.40787 0.177075 0)
(-2.40794 0.150714 0)
(-2.40645 0.120058 0)
(-2.40516 0.0858195 0)
(-2.40568 0.0488405 0)
(-2.40966 0.0102314 0)
(-2.4187 -0.0287483 0)
(-2.43462 -0.0670732 0)
(-2.45377 -0.102296 0)
(-2.46525 -0.126522 0)
(-0.284217 0.537036 0)
(-0.607493 0.563115 0)
(-0.941595 0.529542 0)
(-1.20082 0.484674 0)
(-1.41158 0.440092 0)
(-1.58379 0.400448 0)
(-1.72642 0.36753 0)
(-1.8466 0.341488 0)
(-1.94933 0.321133 0)
(-2.03777 0.305294 0)
(-2.11424 0.293357 0)
(-2.18065 0.284638 0)
(-2.23832 0.277952 0)
(-2.2878 0.271992 0)
(-2.32929 0.265743 0)
(-2.36309 0.258454 0)
(-2.38977 0.24936 0)
(-2.41005 0.237559 0)
(-2.42468 0.222171 0)
(-2.43452 0.202642 0)
(-2.44065 0.178911 0)
(-2.44447 0.151358 0)
(-2.44757 0.120575 0)
(-2.45153 0.0871703 0)
(-2.45771 0.0517762 0)
(-2.46759 0.015234 0)
(-2.48288 -0.0214326 0)
(-2.5051 -0.0574197 0)
(-2.52955 -0.0906107 0)
(-2.54337 -0.113583 0)
(-0.32181 0.962828 0)
(-0.687322 0.929973 0)
(-1.04149 0.810868 0)
(-1.29532 0.697976 0)
(-1.49177 0.606094 0)
(-1.64753 0.531906 0)
(-1.77405 0.473411 0)
(-1.88 0.428959 0)
(-1.9709 0.394569 0)
(-2.04924 0.367017 0)
(-2.11681 0.34535 0)
(-2.17571 0.328762 0)
(-2.22741 0.315375 0)
(-2.2723 0.303177 0)
(-2.31025 0.291002 0)
(-2.34152 0.278336 0)
(-2.36688 0.264637 0)
(-2.38728 0.249013 0)
(-2.40355 0.230496 0)
(-2.41639 0.208521 0)
(-2.42667 0.183132 0)
(-2.43555 0.154832 0)
(-2.44444 0.124254 0)
(-2.45465 0.0919015 0)
(-2.46726 0.0581638 0)
(-2.48353 0.0235929 0)
(-2.50538 -0.0109786 0)
(-2.53406 -0.0448072 0)
(-2.56402 -0.0761274 0)
(-2.58033 -0.0980832 0)
(-0.399133 1.45976 0)
(-0.829835 1.33858 0)
(-1.1936 1.09098 0)
(-1.41212 0.888915 0)
(-1.56964 0.75006 0)
(-1.69349 0.644025 0)
(-1.79277 0.562194 0)
(-1.87669 0.502933 0)
(-1.95131 0.457989 0)
(-2.01684 0.420486 0)
(-2.07332 0.390244 0)
(-2.1232 0.36734 0)
(-2.16846 0.348896 0)
(-2.20892 0.33164 0)
(-2.24369 0.314348 0)
(-2.2728 0.297101 0)
(-2.29737 0.279789 0)
(-2.31876 0.261446 0)
(-2.33786 0.240798 0)
(-2.35511 0.217146 0)
(-2.37102 0.190622 0)
(-2.38642 0.161903 0)
(-2.40241 0.131712 0)
(-2.41999 0.100475 0)
(-2.43988 0.0683192 0)
(-2.46309 0.0354823 0)
(-2.49175 0.00265835 0)
(-2.52703 -0.0292331 0)
(-2.5627 -0.0586936 0)
(-2.5817 -0.0796499 0)
(-0.566162 2.2955 0)
(-1.07522 1.92512 0)
(-1.43624 1.37733 0)
(-1.56334 1.01261 0)
(-1.64238 0.847272 0)
(-1.71918 0.726662 0)
(-1.78038 0.626779 0)
(-1.83409 0.558589 0)
(-1.88953 0.509513 0)
(-1.94127 0.464092 0)
(-1.98482 0.426255 0)
(-2.02417 0.399312 0)
(-2.06303 0.378471 0)
(-2.10004 0.357653 0)
(-2.13243 0.335931 0)
(-2.15984 0.314789 0)
(-2.18416 0.294963 0)
(-2.20751 0.27523 0)
(-2.23083 0.253617 0)
(-2.25413 0.22913 0)
(-2.27738 0.20203 0)
(-2.301 0.173235 0)
(-2.32574 0.143595 0)
(-2.35215 0.113451 0)
(-2.38044 0.0826756 0)
(-2.41123 0.0511956 0)
(-2.44677 0.0196905 0)
(-2.48887 -0.0105242 0)
(-2.53034 -0.0379237 0)
(-2.55222 -0.057702 0)
(9.9959 0.138566 0)
(9.98222 0.275476 0)
(9.95804 0.412876 0)
(9.92441 0.552731 0)
(9.88223 0.696718 0)
(9.83189 0.84639 0)
(9.77362 1.00325 0)
(9.70768 1.16878 0)
(9.63433 1.34442 0)
(9.55386 1.53166 0)
(9.46654 1.73198 0)
(9.37262 1.94692 0)
(9.27238 2.17812 0)
(9.16608 2.42731 0)
(9.05396 2.69639 0)
(8.93624 2.98751 0)
(8.81312 3.30311 0)
(8.68474 3.64608 0)
(8.55117 4.01991 0)
(8.41242 4.42899 0)
(8.26842 4.87895 0)
(8.11908 5.37721 0)
(7.96437 5.93396 0)
(7.80458 6.56353 0)
(7.641 7.28696 0)
(7.4787 8.13685 0)
(7.33117 9.16715 0)
(7.28901 10.4715 0)
(7.75244 12.1948 0)
(7.94606 14.9136 0)
(9.99638 0.143535 0)
(9.98431 0.285348 0)
(9.96299 0.427629 0)
(9.93339 0.572374 0)
(9.89637 0.721275 0)
(9.85235 0.875889 0)
(9.8016 1.03772 0)
(9.74445 1.20825 0)
(9.68124 1.38892 0)
(9.61236 1.5812 0)
(9.53819 1.78656 0)
(9.45915 2.00654 0)
(9.37567 2.24273 0)
(9.28823 2.49686 0)
(9.19736 2.77081 0)
(9.10364 3.0667 0)
(9.0077 3.38695 0)
(8.91032 3.73439 0)
(8.8124 4.11247 0)
(8.71513 4.52545 0)
(8.62012 4.97872 0)
(8.52974 5.4793 0)
(8.44774 6.03648 0)
(8.38039 6.66281 0)
(8.33892 7.37546 0)
(8.34551 8.19777 0)
(8.43916 9.15972 0)
(8.676 10.2943 0)
(9.32512 11.5453 0)
(9.81924 12.6246 0)
(9.99688 0.14798 0)
(9.98648 0.294177 0)
(9.96812 0.440805 0)
(9.9427 0.589879 0)
(9.91102 0.743092 0)
(9.8735 0.901995 0)
(9.83048 1.06808 0)
(9.78235 1.24282 0)
(9.72953 1.42762 0)
(9.67249 1.62393 0)
(9.61173 1.83318 0)
(9.54782 2.05686 0)
(9.48136 2.29651 0)
(9.41307 2.5538 0)
(9.34373 2.83051 0)
(9.27426 3.12865 0)
(9.20576 3.45049 0)
(9.13958 3.79864 0)
(9.07739 4.17622 0)
(9.02141 4.58699 0)
(8.97466 5.03551 0)
(8.94143 5.52745 0)
(8.928 6.06975 0)
(8.94391 6.67077 0)
(9.00365 7.33986 0)
(9.12938 8.08554 0)
(9.35206 8.90947 0)
(9.68103 9.80014 0)
(10.2454 10.7055 0)
(10.9307 11.4142 0)
(9.99739 0.151851 0)
(9.98871 0.301856 0)
(9.9734 0.452238 0)
(9.95227 0.605013 0)
(9.92604 0.761867 0)
(9.89517 0.924334 0)
(9.86004 1.09388 0)
(9.82109 1.27195 0)
(9.77881 1.45991 0)
(9.73376 1.65916 0)
(9.68656 1.87106 0)
(9.6379 2.09703 0)
(9.58855 2.33853 0)
(9.53942 2.5971 0)
(9.49155 2.87437 0)
(9.44617 3.17216 0)
(9.40478 3.49246 0)
(9.36918 3.83752 0)
(9.34168 4.20992 0)
(9.32525 4.61262 0)
(9.32381 5.049 0)
(9.34266 5.52289 0)
(9.38902 6.03836 0)
(9.47281 6.59936 0)
(9.60717 7.20857 0)
(9.80889 7.86557 0)
(10.1006 8.56313 0)
(10.4908 9.28642 0)
(11.0459 10.0252 0)
(11.8354 10.6663 0)
(9.99792 0.155099 0)
(9.99098 0.308293 0)
(9.97878 0.461792 0)
(9.962 0.6176 0)
(9.94131 0.777382 0)
(9.91718 0.942644 0)
(9.89003 1.11482 0)
(9.86033 1.29529 0)
(9.82866 1.48539 0)
(9.79565 1.68644 0)
(9.762 1.89971 0)
(9.72853 2.12653 0)
(9.69615 2.36822 0)
(9.66595 2.62615 0)
(9.63916 2.90178 0)
(9.61727 3.19663 0)
(9.60207 3.51236 0)
(9.59571 3.85072 0)
(9.60089 4.21365 0)
(9.62099 4.60316 0)
(9.66031 5.02135 0)
(9.72438 5.47021 0)
(9.82024 5.95133 0)
(9.95682 6.46538 0)
(10.1451 7.01123 0)
(10.3982 7.58497 0)
(10.7332 8.17843 0)
(11.1615 8.7769 0)
(11.7062 9.36884 0)
(12.4552 9.8795 0)
(9.99845 0.157682 0)
(9.99328 0.313401 0)
(9.98421 0.469341 0)
(9.97182 0.627473 0)
(9.95671 0.789433 0)
(9.93935 0.956685 0)
(9.92018 1.13061 0)
(9.89974 1.31254 0)
(9.87864 1.50373 0)
(9.85757 1.70541 0)
(9.83733 1.91876 0)
(9.81881 2.14496 0)
(9.80306 2.38519 0)
(9.79127 2.64063 0)
(9.78484 2.91248 0)
(9.78543 3.20196 0)
(9.79499 3.5103 0)
(9.8159 3.83876 0)
(9.85099 4.18854 0)
(9.90376 4.56076 0)
(9.97847 4.95631 0)
(10.0803 5.37565 0)
(10.2157 5.81851 0)
(10.392 6.28341 0)
(10.618 6.76708 0)
(10.9034 7.26374 0)
(11.2593 7.76417 0)
(11.6936 8.25284 0)
(12.2069 8.71311 0)
(12.8787 9.10359 0)
(9.99898 0.15956 0)
(9.99558 0.317105 0)
(9.98964 0.474769 0)
(9.98165 0.634485 0)
(9.9721 0.797839 0)
(9.96147 0.966246 0)
(9.95024 1.14103 0)
(9.93895 1.32344 0)
(9.92827 1.51465 0)
(9.91894 1.71579 0)
(9.9118 1.92792 0)
(9.90782 2.15207 0)
(9.90812 2.38925 0)
(9.91398 2.64041 0)
(9.92689 2.90649 0)
(9.94858 3.18837 0)
(9.98109 3.48687 0)
(10.0268 3.8027 0)
(10.0886 4.13643 0)
(10.1697 4.48834 0)
(10.2741 4.85833 0)
(10.4065 5.24569 0)
(10.572 5.64885 0)
(10.7766 6.06499 0)
(11.0266 6.48962 0)
(11.3284 6.91608 0)
(11.6881 7.33503 0)
(12.1097 7.73309 0)
(12.587 8.0958 0)
(13.1889 8.40273 0)
(9.99951 0.1607 0)
(9.99786 0.319336 0)
(9.99504 0.477982 0)
(9.9914 0.638509 0)
(9.98736 0.802449 0)
(9.98337 0.971155 0)
(9.97993 1.14588 0)
(9.97761 1.32778 0)
(9.9771 1.51795 0)
(9.97916 1.71739 0)
(9.98468 1.92703 0)
(9.99465 2.14776 0)
(10.0102 2.38037 0)
(10.0328 2.62561 0)
(10.0637 2.88412 0)
(10.1048 3.15646 0)
(10.1582 3.44305 0)
(10.226 3.74411 0)
(10.3109 4.05964 0)
(10.4159 4.38924 0)
(10.5445 4.73207 0)
(10.7005 5.0866 0)
(10.8879 5.45043 0)
(11.1111 5.82007 0)
(11.3744 6.19062 0)
(11.6814 6.55554 0)
(12.0349 6.90659 0)
(12.4365 7.23351 0)
(12.8786 7.52524 0)
(13.4186 7.77056 0)
(10 0.161073 0)
(10.0001 0.32004 0)
(10.0004 0.478897 0)
(10.001 0.639444 0)
(10.0023 0.803145 0)
(10.0048 0.97128 0)
(10.009 1.14502 0)
(10.0154 1.32544 0)
(10.0247 1.51351 0)
(10.0377 1.71012 0)
(10.0553 1.91607 0)
(10.0784 2.13207 0)
(10.1084 2.35872 0)
(10.1464 2.59654 0)
(10.1939 2.84592 0)
(10.2526 3.1071 0)
(10.3244 3.38014 0)
(10.4113 3.66486 0)
(10.5158 3.96076 0)
(10.6405 4.26698 0)
(10.788 4.58213 0)
(10.9615 4.9042 0)
(11.1639 5.2304 0)
(11.3981 5.55703 0)
(11.6667 5.87937 0)
(11.9715 6.19158 0)
(12.3134 6.48684 0)
(12.6921 6.75736 0)
(13.0999 6.99487 0)
(13.5853 7.19257 0)
(10.0005 0.160658 0)
(10.0023 0.319175 0)
(10.0055 0.477455 0)
(10.0103 0.637215 0)
(10.0169 0.799842 0)
(10.0257 0.966537 0)
(10.0371 1.13838 0)
(10.0519 1.31635 0)
(10.0705 1.50131 0)
(10.0939 1.69401 0)
(10.1229 1.89513 0)
(10.1584 2.10519 0)
(10.2016 2.32463 0)
(10.2537 2.55374 0)
(10.3161 2.79268 0)
(10.3904 3.04141 0)
(10.4783 3.29969 0)
(10.5815 3.56701 0)
(10.7021 3.84253 0)
(10.8423 4.12505 0)
(11.0041 4.41285 0)
(11.1899 4.70372 0)
(11.4015 4.99476 0)
(11.6409 5.28243 0)
(11.9092 5.56244 0)
(12.2071 5.82984 0)
(12.5342 6.07914 0)
(12.8891 6.30448 0)
(13.2648 6.49987 0)
(13.7028 6.66118 0)
(10.001 0.159439 0)
(10.0044 0.316712 0)
(10.0105 0.473616 0)
(10.0193 0.631776 0)
(10.0309 0.792495 0)
(10.0457 0.956885 0)
(10.0642 1.12594 0)
(10.0868 1.30052 0)
(10.1143 1.48139 0)
(10.1474 1.66918 0)
(10.1869 1.8644 0)
(10.2338 2.06745 0)
(10.2891 2.27859 0)
(10.3539 2.49791 0)
(10.4295 2.72536 0)
(10.5174 2.96068 0)
(10.6188 3.20338 0)
(10.7355 3.45273 0)
(10.869 3.70765 0)
(11.021 3.96673 0)
(11.1931 4.22814 0)
(11.3867 4.48961 0)
(11.6031 4.74838 0)
(11.8432 5.0012 0)
(12.1075 5.24438 0)
(12.3956 5.47385 0)
(12.7063 5.68529 0)
(13.038 5.87439 0)
(13.3843 6.03694 0)
(13.7817 6.17045 0)
(10.0015 0.15741 0)
(10.0065 0.312635 0)
(10.0153 0.467361 0)
(10.0279 0.62311 0)
(10.0443 0.781093 0)
(10.0648 0.942333 0)
(10.0899 1.10772 0)
(10.1199 1.27803 0)
(10.1557 1.45389 0)
(10.1978 1.63583 0)
(10.247 1.82422 0)
(10.3041 2.01932 0)
(10.3702 2.22122 0)
(10.4462 2.42987 0)
(10.5333 2.64504 0)
(10.6327 2.8663 0)
(10.7454 3.09298 0)
(10.8729 3.32418 0)
(11.0164 3.55871 0)
(11.1769 3.79508 0)
(11.3558 4.03144 0)
(11.5537 4.26563 0)
(11.7714 4.49511 0)
(12.0092 4.71707 0)
(12.2667 4.92838 0)
(12.5433 5.1258 0)
(12.8374 5.30603 0)
(13.1471 5.46593 0)
(13.4671 5.60259 0)
(13.8296 5.71453 0)
(10.0019 0.154568 0)
(10.0084 0.306944 0)
(10.0199 0.458693 0)
(10.0361 0.611228 0)
(10.057 0.765665 0)
(10.0828 0.922934 0)
(10.114 1.08383 0)
(10.151 1.24901 0)
(10.1943 1.41903 0)
(10.2446 1.59426 0)
(10.3025 1.77499 0)
(10.3689 1.96133 0)
(10.4445 2.15325 0)
(10.5303 2.35056 0)
(10.6271 2.5529 0)
(10.736 2.75971 0)
(10.8579 2.97022 0)
(10.9937 3.18343 0)
(11.1444 3.39812 0)
(11.3108 3.61279 0)
(11.4935 3.82569 0)
(11.693 4.03483 0)
(11.9094 4.23799 0)
(12.1425 4.43274 0)
(12.3918 4.61657 0)
(12.6561 4.78691 0)
(12.9339 4.94128 0)
(13.2233 5.07744 0)
(13.5196 5.19341 0)
(13.852 5.28834 0)
(10.0024 0.150919 0)
(10.0102 0.299651 0)
(10.0241 0.447634 0)
(10.0437 0.596169 0)
(10.0688 0.746275 0)
(10.0996 0.898786 0)
(10.1365 1.0544 0)
(10.1797 1.21368 0)
(10.2299 1.37707 0)
(10.2876 1.54486 0)
(10.3533 1.7172 0)
(10.4278 1.89411 0)
(10.5116 2.07546 0)
(10.6057 2.26096 0)
(10.7106 2.45013 0)
(10.8272 2.64235 0)
(10.9562 2.83679 0)
(11.0982 3.03243 0)
(11.254 3.22805 0)
(11.4238 3.42224 0)
(11.6081 3.61338 0)
(11.8069 3.7997 0)
(12.0201 3.9793 0)
(12.2471 4.15017 0)
(12.4872 4.31029 0)
(12.7391 4.45768 0)
(13.0012 4.59051 0)
(13.2719 4.70718 0)
(13.5472 4.80637 0)
(13.8534 4.88765 0)
(10.0027 0.146475 0)
(10.0119 0.290782 0)
(10.0281 0.434229 0)
(10.0508 0.578001 0)
(10.0798 0.723019 0)
(10.1151 0.870023 0)
(10.1571 1.01962 0)
(10.2061 1.17228 0)
(10.2625 1.32835 0)
(10.3267 1.48803 0)
(10.3992 1.65139 0)
(10.4807 1.81835 0)
(10.5715 1.9887 0)
(10.6724 2.16207 0)
(10.7839 2.33794 0)
(10.9065 2.51563 0)
(11.0408 2.6943 0)
(11.1872 2.87296 0)
(11.3459 3.05045 0)
(11.5173 3.22545 0)
(11.7014 3.39655 0)
(11.8979 3.56219 0)
(12.1064 3.72078 0)
(12.3264 3.87069 0)
(12.5568 4.01033 0)
(12.7965 4.13818 0)
(13.044 4.25292 0)
(13.2975 4.35343 0)
(13.554 4.43884 0)
(13.8376 4.50898 0)
(10.0031 0.141256 0)
(10.0134 0.280375 0)
(10.0317 0.418537 0)
(10.0573 0.556811 0)
(10.0898 0.696021 0)
(10.1293 0.836817 0)
(10.1759 0.979717 0)
(10.23 1.12511 0)
(10.2918 1.27325 0)
(10.3617 1.42426 0)
(10.4401 1.57814 0)
(10.5275 1.73475 0)
(10.6242 1.8938 0)
(10.7306 2.05489 0)
(10.8472 2.21747 0)
(10.9744 2.38085 0)
(11.1124 2.54421 0)
(11.2614 2.70661 0)
(11.4216 2.86697 0)
(11.593 3.02414 0)
(11.7754 3.17685 0)
(11.9684 3.32381 0)
(12.1714 3.4637 0)
(12.3838 3.5952 0)
(12.6045 3.71708 0)
(12.8324 3.82822 0)
(13.0661 3.92764 0)
(13.3042 4.01459 0)
(13.5439 4.08851 0)
(13.8076 4.14941 0)
(10.0034 0.135284 0)
(10.0148 0.268478 0)
(10.035 0.400634 0)
(10.0632 0.53271 0)
(10.0988 0.665432 0)
(10.142 0.799367 0)
(10.1927 0.934947 0)
(10.2513 1.07249 0)
(10.3179 1.21217 0)
(10.3927 1.35405 0)
(10.4761 1.49806 0)
(10.5684 1.64402 0)
(10.6697 1.79161 0)
(10.7805 1.9404 0)
(10.901 2.08983 0)
(11.0314 2.23923 0)
(11.1717 2.38783 0)
(11.3221 2.53476 0)
(11.4825 2.67905 0)
(11.6526 2.81969 0)