# vtk DataFile Version 2.0

ASCII

DATASET UNSTRUCTURED_GRID

POINTS 11 double 

1.00000000000000000e+00  0.00000000000000000e+00  0.00000000000000000e+00
1.00000000000000000e+00  1.00000000000000006e-01  0.00000000000000000e+00
1.00000000000000000e+00  2.00000000000000011e-01  0.00000000000000000e+00
1.00000000000000000e+00  2.99999999999999989e-01  0.00000000000000000e+00
1.00000000000000000e+00  4.00000000000000022e-01  0.00000000000000000e+00
1.00000000000000000e+00  5.00000000000000000e-01  0.00000000000000000e+00
1.00000000000000000e+00  5.99999999999999978e-01  0.00000000000000000e+00
1.00000000000000000e+00  6.99999999999999956e-01  0.00000000000000000e+00
1.00000000000000000e+00  8.00000000000000044e-01  0.00000000000000000e+00
1.00000000000000000e+00  9.00000000000000022e-01  0.00000000000000000e+00
1.00000000000000000e+00  1.00000000000000000e+00  0.00000000000000000e+00

CELLS 0 0


CELL_TYPES 0


POINT_DATA 11

VECTORS VertexNormals double

0.00000000000000000e+00 0.00000000000000000e+00 0
0.00000000000000000e+00 0.00000000000000000e+00 0
0.00000000000000000e+00 0.00000000000000000e+00 0
0.00000000000000000e+00 0.00000000000000000e+00 0
0.00000000000000000e+00 0.00000000000000000e+00 0
0.00000000000000000e+00 0.00000000000000000e+00 0
0.00000000000000000e+00 0.00000000000000000e+00 0
0.00000000000000000e+00 0.00000000000000000e+00 0
0.00000000000000000e+00 0.00000000000000000e+00 0
0.00000000000000000e+00 0.00000000000000000e+00 0
0.00000000000000000e+00 0.00000000000000000e+00 0

SCALARS Temperature double
LOOKUP_TABLE default
0.00000000000000000e+00
0.00000000000000000e+00
0.00000000000000000e+00
0.00000000000000000e+00
0.00000000000000000e+00
0.00000000000000000e+00
0.00000000000000000e+00
0.00000000000000000e+00
0.00000000000000000e+00
0.00000000000000000e+00
0.00000000000000000e+00

SCALARS Flux double
LOOKUP_TABLE default
-3.07459476084732319e+00
9.46649091771867734e-01
1.47478307727644897e+00
1.49261367961470626e+00
1.53886255518650028e+00
1.54570997197163429e+00
1.53776069137135663e+00
1.50390595949326000e+00
1.41193723537184068e+00
1.22152788549224622e+00
-1.57346020380661389e+00

