# vtk DataFile Version 2.0

ASCII

DATASET UNSTRUCTURED_GRID

POINTS 11 double 

1.00000000000000000e+00  0.00000000000000000e+00  0.00000000000000000e+00
1.00000000000000000e+00  1.00000000000000006e-01  0.00000000000000000e+00
1.00000000000000000e+00  2.00000000000000011e-01  0.00000000000000000e+00
1.00000000000000000e+00  2.99999999999999989e-01  0.00000000000000000e+00
1.00000000000000000e+00  4.00000000000000022e-01  0.00000000000000000e+00
1.00000000000000000e+00  5.00000000000000000e-01  0.00000000000000000e+00
1.00000000000000000e+00  5.99999999999999978e-01  0.00000000000000000e+00
1.00000000000000000e+00  6.99999999999999956e-01  0.00000000000000000e+00
1.00000000000000000e+00  8.00000000000000044e-01  0.00000000000000000e+00
1.00000000000000000e+00  9.00000000000000022e-01  0.00000000000000000e+00
1.00000000000000000e+00  1.00000000000000000e+00  0.00000000000000000e+00

CELLS 0 0


CELL_TYPES 0


POINT_DATA 11

VECTORS VertexNormals double

0.00000000000000000e+00 0.00000000000000000e+00 0
0.00000000000000000e+00 0.00000000000000000e+00 0
0.00000000000000000e+00 0.00000000000000000e+00 0
0.00000000000000000e+00 0.00000000000000000e+00 0
0.00000000000000000e+00 0.00000000000000000e+00 0
0.00000000000000000e+00 0.00000000000000000e+00 0
0.00000000000000000e+00 0.00000000000000000e+00 0
0.00000000000000000e+00 0.00000000000000000e+00 0
0.00000000000000000e+00 0.00000000000000000e+00 0
0.00000000000000000e+00 0.00000000000000000e+00 0
0.00000000000000000e+00 0.00000000000000000e+00 0

SCALARS Temperature double
LOOKUP_TABLE default
0.00000000000000000e+00
0.00000000000000000e+00
0.00000000000000000e+00
0.00000000000000000e+00
0.00000000000000000e+00
0.00000000000000000e+00
0.00000000000000000e+00
0.00000000000000000e+00
0.00000000000000000e+00
0.00000000000000000e+00
0.00000000000000000e+00

SCALARS Flux double
LOOKUP_TABLE default
-3.07459476127702258e+00
9.46649091693093303e-01
1.47478307724927449e+00
1.49261367959186142e+00
1.53886255516774706e+00
1.54570997195186854e+00
1.53776069134900761e+00
1.50390595946686267e+00
1.41193723533822424e+00
1.22152788544397661e+00
-1.57346020405342668e+00

