# vtk DataFile Version 2.0

ASCII

DATASET UNSTRUCTURED_GRID

POINTS 21 double 

1.00000000000000000e+00  0.00000000000000000e+00  0.00000000000000000e+00
1.00000000000000000e+00  5.00000000000000028e-02  0.00000000000000000e+00
1.00000000000000000e+00  1.00000000000000006e-01  0.00000000000000000e+00
1.00000000000000000e+00  1.49999999999999994e-01  0.00000000000000000e+00
1.00000000000000000e+00  2.00000000000000011e-01  0.00000000000000000e+00
1.00000000000000000e+00  2.50000000000000000e-01  0.00000000000000000e+00
1.00000000000000000e+00  2.99999999999999989e-01  0.00000000000000000e+00
1.00000000000000000e+00  3.49999999999999978e-01  0.00000000000000000e+00
1.00000000000000000e+00  4.00000000000000022e-01  0.00000000000000000e+00
1.00000000000000000e+00  4.50000000000000011e-01  0.00000000000000000e+00
1.00000000000000000e+00  5.00000000000000000e-01  0.00000000000000000e+00
1.00000000000000000e+00  5.50000000000000044e-01  0.00000000000000000e+00
1.00000000000000000e+00  5.99999999999999978e-01  0.00000000000000000e+00
1.00000000000000000e+00  6.50000000000000022e-01  0.00000000000000000e+00
1.00000000000000000e+00  6.99999999999999956e-01  0.00000000000000000e+00
1.00000000000000000e+00  7.50000000000000000e-01  0.00000000000000000e+00
1.00000000000000000e+00  8.00000000000000044e-01  0.00000000000000000e+00
1.00000000000000000e+00  8.49999999999999978e-01  0.00000000000000000e+00
1.00000000000000000e+00  9.00000000000000022e-01  0.00000000000000000e+00
1.00000000000000000e+00  9.49999999999999956e-01  0.00000000000000000e+00
1.00000000000000000e+00  1.00000000000000000e+00  0.00000000000000000e+00

CELLS 0 0


CELL_TYPES 0


POINT_DATA 21

VECTORS VertexNormals double

0.00000000000000000e+00 0.00000000000000000e+00 0
0.00000000000000000e+00 0.00000000000000000e+00 0
0.00000000000000000e+00 0.00000000000000000e+00 0
0.00000000000000000e+00 0.00000000000000000e+00 0
0.00000000000000000e+00 0.00000000000000000e+00 0
0.00000000000000000e+00 0.00000000000000000e+00 0
0.00000000000000000e+00 0.00000000000000000e+00 0
0.00000000000000000e+00 0.00000000000000000e+00 0
0.00000000000000000e+00 0.00000000000000000e+00 0
0.00000000000000000e+00 0.00000000000000000e+00 0
0.00000000000000000e+00 0.00000000000000000e+00 0
0.00000000000000000e+00 0.00000000000000000e+00 0
0.00000000000000000e+00 0.00000000000000000e+00 0
0.00000000000000000e+00 0.00000000000000000e+00 0
0.00000000000000000e+00 0.00000000000000000e+00 0
0.00000000000000000e+00 0.00000000000000000e+00 0
0.00000000000000000e+00 0.00000000000000000e+00 0
0.00000000000000000e+00 0.00000000000000000e+00 0
0.00000000000000000e+00 0.00000000000000000e+00 0
0.00000000000000000e+00 0.00000000000000000e+00 0
0.00000000000000000e+00 0.00000000000000000e+00 0

SCALARS Temperature double
LOOKUP_TABLE default
3.04000000000000004e+00
3.04750000717891378e+00
3.07000000141473794e+00
3.10749999836036084e+00
3.15999999900778850e+00
3.22750000007162408e+00
3.31000000046988818e+00
3.40750000033597056e+00
3.52000000011954839e+00
3.64750000009175368e+00
3.79000000013263527e+00
3.94750000007012813e+00
4.12000000002879840e+00
4.30750000012406176e+00
4.51000000014878122e+00
4.72750000016033933e+00
4.96000000086610005e+00
5.20750000205677122e+00
5.47000000083891358e+00
5.74749999679824164e+00
6.04000000000000004e+00

SCALARS Flux double
LOOKUP_TABLE default
-3.07459476129537679e+00
-8.46397809449023986e-01
9.46649091708641421e-01
1.47905610863379189e+00
1.47478307727739111e+00
1.48805260545816043e+00
1.49261367961486169e+00
1.51937824210499994e+00
1.53886255518101511e+00
1.54746975362115324e+00
1.54570997195313931e+00
1.54412604092135708e+00
1.53776069134022597e+00
1.53045520264983925e+00
1.50390595945348604e+00
1.44379034907189219e+00
1.41193723532786652e+00
1.50952932135700246e+00
1.22152788544281599e+00
-1.30578050209254060e-01
-1.57346020400662301e+00

