# vtk DataFile Version 2.0

ASCII

DATASET UNSTRUCTURED_GRID

POINTS 21 double 

1.00000000000000000e+00  0.00000000000000000e+00  0.00000000000000000e+00
1.00000000000000000e+00  5.00000000000000028e-02  0.00000000000000000e+00
1.00000000000000000e+00  1.00000000000000006e-01  0.00000000000000000e+00
1.00000000000000000e+00  1.49999999999999994e-01  0.00000000000000000e+00
1.00000000000000000e+00  2.00000000000000011e-01  0.00000000000000000e+00
1.00000000000000000e+00  2.50000000000000000e-01  0.00000000000000000e+00
1.00000000000000000e+00  2.99999999999999989e-01  0.00000000000000000e+00
1.00000000000000000e+00  3.49999999999999978e-01  0.00000000000000000e+00
1.00000000000000000e+00  4.00000000000000022e-01  0.00000000000000000e+00
1.00000000000000000e+00  4.50000000000000011e-01  0.00000000000000000e+00
1.00000000000000000e+00  5.00000000000000000e-01  0.00000000000000000e+00
1.00000000000000000e+00  5.50000000000000044e-01  0.00000000000000000e+00
1.00000000000000000e+00  5.99999999999999978e-01  0.00000000000000000e+00
1.00000000000000000e+00  6.50000000000000022e-01  0.00000000000000000e+00
1.00000000000000000e+00  6.99999999999999956e-01  0.00000000000000000e+00
1.00000000000000000e+00  7.50000000000000000e-01  0.00000000000000000e+00
1.00000000000000000e+00  8.00000000000000044e-01  0.00000000000000000e+00
1.00000000000000000e+00  8.49999999999999978e-01  0.00000000000000000e+00
1.00000000000000000e+00  9.00000000000000022e-01  0.00000000000000000e+00
1.00000000000000000e+00  9.49999999999999956e-01  0.00000000000000000e+00
1.00000000000000000e+00  1.00000000000000000e+00  0.00000000000000000e+00

CELLS 0 0


CELL_TYPES 0


POINT_DATA 21

VECTORS VertexNormals double

0.00000000000000000e+00 0.00000000000000000e+00 0
0.00000000000000000e+00 0.00000000000000000e+00 0
0.00000000000000000e+00 0.00000000000000000e+00 0
0.00000000000000000e+00 0.00000000000000000e+00 0
0.00000000000000000e+00 0.00000000000000000e+00 0
0.00000000000000000e+00 0.00000000000000000e+00 0
0.00000000000000000e+00 0.00000000000000000e+00 0
0.00000000000000000e+00 0.00000000000000000e+00 0
0.00000000000000000e+00 0.00000000000000000e+00 0
0.00000000000000000e+00 0.00000000000000000e+00 0
0.00000000000000000e+00 0.00000000000000000e+00 0
0.00000000000000000e+00 0.00000000000000000e+00 0
0.00000000000000000e+00 0.00000000000000000e+00 0
0.00000000000000000e+00 0.00000000000000000e+00 0
0.00000000000000000e+00 0.00000000000000000e+00 0
0.00000000000000000e+00 0.00000000000000000e+00 0
0.00000000000000000e+00 0.00000000000000000e+00 0
0.00000000000000000e+00 0.00000000000000000e+00 0
0.00000000000000000e+00 0.00000000000000000e+00 0
0.00000000000000000e+00 0.00000000000000000e+00 0
0.00000000000000000e+00 0.00000000000000000e+00 0

SCALARS Temperature double
LOOKUP_TABLE default
3.16999999999999993e+00
3.17750000717918146e+00
3.20000000141479735e+00
3.23749999836014579e+00
3.28999999900734741e+00
3.35750000007099469e+00
3.44000000046910159e+00
3.53750000033505518e+00
3.65000000011853754e+00
3.77750000009068465e+00
3.92000000013154359e+00
4.07750000006905022e+00
4.25000000002777067e+00
4.43750000012311929e+00
4.64000000014795955e+00
4.85750000015966954e+00
5.09000000086560433e+00
5.33750000205647268e+00
5.60000000083885130e+00
5.87749999679838098e+00
6.16999999999999993e+00

SCALARS Flux double
LOOKUP_TABLE default
-3.07459476131490161e+00
-8.46397809459519812e-01
9.46649091705647372e-01
1.47905610863289483e+00
1.47478307727639457e+00
1.48805260545731755e+00
1.49261367961411828e+00
1.51937824210416972e+00
1.53886255517994108e+00
1.54746975361975481e+00
1.54570997195145154e+00
1.54412604091960803e+00
1.53776069133851800e+00
1.53045520264822832e+00
1.50390595945183247e+00
1.44379034906984316e+00
1.41193723532554527e+00
1.50952932135522455e+00
1.22152788543974200e+00
-1.30578050218811859e-01
-1.57346020402355169e+00

