/*--------------------------------*- C++ -*----------------------------------*\
  =========                 |
  \\      /  F ield         | OpenFOAM: The Open Source CFD Toolbox
   \\    /   O peration     | Website:  https://openfoam.org
    \\  /    A nd           | Version:  7
     \\/     M anipulation  |
\*---------------------------------------------------------------------------*/
FoamFile
{
    version     2.0;
    format      ascii;
    class       volScalarField;
    location    "8.38";
    object      T;
}
// * * * * * * * * * * * * * * * * * * * * * * * * * * * * * * * * * * * * * //

dimensions      [0 0 0 1 0 0 0];

internalField   nonuniform List<scalar> 
12013
(
300.134
300.404
300.682
300.963
301.246
301.528
301.809
302.087
302.359
302.627
302.887
303.141
303.387
303.624
303.854
304.076
304.289
304.495
304.692
304.882
305.065
305.241
305.41
305.573
305.73
305.881
306.027
306.168
306.305
306.438
306.567
306.693
306.817
306.938
307.058
307.177
307.296
307.416
307.537
307.661
307.788
307.921
308.059
308.204
308.359
308.524
308.703
308.896
309.108
309.339
309.593
309.874
310.185
310.53
310.912
311.338
311.811
312.338
312.924
313.577
314.303
315.109
316.006
317.001
318.107
319.332
320.692
322.199
323.869
325.72
327.773
330.05
332.581
335.399
338.544
342.069
346.044
350.565
355.78
361.931
369.482
300.134
300.405
300.682
300.963
301.246
301.529
301.81
302.088
302.361
302.628
302.889
303.142
303.388
303.626
303.856
304.078
304.291
304.497
304.695
304.885
305.067
305.243
305.413
305.575
305.732
305.884
306.03
306.171
306.308
306.44
306.57
306.696
306.819
306.941
307.061
307.18
307.299
307.419
307.54
307.664
307.791
307.923
308.061
308.206
308.361
308.526
308.705
308.898
309.109
309.34
309.594
309.875
310.185
310.529
310.911
311.336
311.809
312.335
312.92
313.571
314.296
315.101
315.995
316.988
318.09
319.313
320.667
322.169
323.832
325.674
327.716
329.979
332.492
335.284
338.394
341.87
345.771
350.174
355.179
360.91
367.482
300.134
300.405
300.683
300.964
301.248
301.531
301.812
302.09
302.363
302.631
302.892
303.146
303.392
303.63
303.861
304.082
304.296
304.502
304.7
304.89
305.073
305.249
305.418
305.581
305.738
305.89
306.036
306.177
306.314
306.447
306.576
306.702
306.825
306.947
307.067
307.186
307.305
307.425
307.546
307.669
307.796
307.928
308.066
308.211
308.365
308.531
308.708
308.901
309.112
309.342
309.596
309.876
310.185
310.528
310.909
311.333
311.804
312.328
312.911
313.559
314.28
315.082
315.971
316.959
318.054
319.269
320.613
322.103
323.751
325.574
327.592
329.825
332.297
335.036
338.074
341.449
345.204
349.387
354.044
359.206
364.832
300.134
300.406
300.684
300.966
301.25
301.534
301.816
302.094
302.368
302.636
302.898
303.152
303.399
303.637
303.868
304.09
304.304
304.51
304.708
304.899
305.082
305.258
305.428
305.591
305.748
305.9
306.046
306.187
306.324
306.457
306.586
306.712
306.836
306.957
307.077
307.196
307.315
307.434
307.555
307.679
307.805
307.937
308.074
308.219
308.373
308.538
308.715
308.907
309.117
309.346
309.599
309.877
310.185
310.527
310.906
311.327
311.796
312.317
312.896
313.54
314.255
315.05
315.933
316.911
317.996
319.196
320.525
321.995
323.618
325.411
327.391
329.575
331.984
334.642
337.571
340.799
344.351
348.249
352.502
357.091
361.945
300.134
300.407
300.686
300.969
301.253
301.538
301.821
302.1
302.374
302.643
302.906
303.161
303.408
303.648
303.879
304.101
304.316
304.523
304.721
304.912
305.096
305.272
305.442
305.605
305.763
305.914
306.061
306.202
306.339
306.472
306.601
306.727
306.851
306.972
307.092
307.211
307.329
307.449
307.569
307.692
307.819
307.95
308.087
308.231
308.384
308.548
308.725
308.916
309.124
309.353
309.603
309.88
310.186
310.525
310.901
311.319
311.784
312.3
312.874
313.511
314.219
315.005
315.876
316.842
317.91
319.092
320.398
321.839
323.428
325.178
327.105
329.222
331.547
334.096
336.885
339.931
343.243
346.825
350.666
354.733
358.959
300.135
300.408
300.688
300.972
301.258
301.544
301.828
302.108
302.384
302.654
302.917
303.173
303.421
303.662
303.894
304.117
304.333
304.54
304.739
304.931
305.115
305.292
305.462
305.625
305.783
305.935
306.082
306.223
306.36
306.493
306.622
306.748
306.872
306.993
307.112
307.231
307.35
307.468
307.589
307.711
307.837
307.968
308.104
308.248
308.4
308.563
308.738
308.928
309.135
309.361
309.61
309.884
310.187
310.523
310.895
311.309
311.768
312.277
312.844
313.472
314.17
314.943
315.8
316.748
317.795
318.952
320.227
321.631
323.175
324.87
326.728
328.761
330.981
333.399
336.025
338.864
341.918
345.179
348.629
352.232
355.936
300.135
300.41
300.692
300.977
301.264
301.552
301.837
302.119
302.396
302.667
302.932
303.189
303.439
303.68
303.913
304.138
304.354
304.562
304.763
304.955
305.14
305.317
305.488
305.652
305.81
305.962
306.109
306.251
306.388
306.521
306.65
306.776
306.9
307.021
307.14
307.258
307.376
307.495
307.615
307.737
307.862
307.992
308.127
308.27
308.421
308.582
308.756
308.944
309.149
309.373
309.619
309.89
310.189
310.521
310.888
311.295
311.747
312.249
312.805
313.423
314.107
314.864
315.702
316.627
317.648
318.773
320.009
321.367
322.855
324.483
326.259
328.193
330.292
332.562
335.008
337.629
340.42
343.369
346.456
349.65
352.912
300.136
300.413
300.696
300.983
301.272
301.561
301.849
302.132
302.411
302.685
302.951
303.21
303.461
303.704
303.939
304.165
304.382
304.592
304.793
304.986
305.172
305.35
305.522
305.686
305.845
305.998
306.145
306.287
306.424
306.557
306.687
306.813
306.936
307.057
307.176
307.294
307.411
307.529
307.648
307.77
307.894
308.023
308.157
308.298
308.448
308.608
308.779
308.965
309.168
309.389
309.631
309.898
310.193
310.518
310.879
311.279
311.722
312.214
312.758
313.361
314.029
314.766
315.581
316.479
317.467
318.552
319.743
321.046
322.469
324.018
325.701
327.523
329.488
331.599
333.856
336.256
338.789
341.443
344.199
347.032
349.912
300.137
300.416
300.702
300.991
301.283
301.574
301.864
302.15
302.431
302.707
302.975
303.237
303.49
303.735
303.971
304.199
304.418
304.629
304.831
305.026
305.213
305.392
305.564
305.73
305.889
306.042
306.19
306.333
306.47
306.603
306.733
306.859
306.982
307.102
307.221
307.338
307.455
307.573
307.691
307.812
307.935
308.062
308.195
308.335
308.483
308.64
308.81
308.993
309.192
309.409
309.647
309.909
310.198
310.517
310.87
311.261
311.693
312.172
312.702
313.288
313.935
314.649
315.436
316.301
317.251
318.291
319.428
320.668
322.016
323.478
325.058
326.759
328.583
330.529
332.596
334.777
337.064
339.443
341.899
344.411
346.957
300.139
300.42
300.708
301.001
301.295
301.59
301.882
302.171
302.456
302.734
303.006
303.27
303.525
303.773
304.011
304.241
304.462
304.675
304.879
305.075
305.264
305.444
305.618
305.784
305.944
306.098
306.247
306.389
306.527
306.661
306.79
306.916
307.039
307.159
307.277
307.394
307.511
307.627
307.745
307.864
307.986
308.112
308.243
308.381
308.527
308.682
308.848
309.028
309.223
309.436
309.669
309.925
310.207
310.518
310.861
311.241
311.661
312.125
312.637
313.203
313.827
314.513
315.268
316.095
317.001
317.99
319.067
320.237
321.504
322.871
324.341
325.915
327.594
329.374
331.253
333.224
335.279
337.405
339.589
341.816
344.067
300.14
300.425
300.717
301.013
301.311
301.609
301.905
302.198
302.486
302.768
303.043
303.31
303.569
303.819
304.061
304.293
304.517
304.732
304.938
305.136
305.326
305.509
305.684
305.851
306.013
306.167
306.316
306.46
306.598
306.732
306.861
306.987
307.11
307.23
307.347
307.464
307.579
307.695
307.811
307.929
308.05
308.174
308.303
308.439
308.582
308.734
308.897
309.072
309.263
309.47
309.697
309.946
310.22
310.521
310.854
311.221
311.626
312.073
312.565
313.108
313.705
314.36
315.078
315.863
316.72
317.653
318.664
319.759
320.939
322.206
323.563
325.008
326.541
328.158
329.856
331.628
333.466
335.36
337.299
339.271
341.261
300.142
300.431
300.727
301.027
301.33
301.632
301.933
302.23
302.523
302.809
303.088
303.359
303.622
303.876
304.121
304.357
304.584
304.801
305.01
305.211
305.403
305.587
305.764
305.933
306.096
306.252
306.402
306.546
306.685
306.819
306.948
307.074
307.196
307.316
307.433
307.549
307.663
307.778
307.893
308.009
308.128
308.25
308.377
308.51
308.65
308.798
308.957
309.128
309.313
309.515
309.734
309.975
310.24
310.53
310.85
311.203
311.591
312.018
312.489
313.005
313.572
314.192
314.871
315.61
316.414
317.285
318.227
319.243
320.332
321.498
322.739
324.056
325.446
326.905
328.431
330.016
331.654
333.336
335.054
336.797
338.556
300.145
300.438
300.739
301.045
301.353
301.661
301.967
302.27
302.567
302.859
303.143
303.419
303.686
303.945
304.194
304.434
304.664
304.885
305.097
305.301
305.496
305.682
305.861
306.033
306.197
306.354
306.505
306.65
306.789
306.924
307.054
307.179
307.302
307.421
307.537
307.652
307.766
307.879
307.992
308.107
308.224
308.343
308.467
308.597
308.733
308.878
309.032
309.198
309.377
309.571
309.783
310.015
310.268
310.547
310.853
311.189
311.559
311.965
312.41
312.898
313.432
314.015
314.65
315.34
316.088
316.896
317.765
318.699
319.697
320.76
321.888
323.079
324.331
325.64
327.003
328.415
329.869
331.36
332.878
334.417
335.969
300.148
300.447
300.754
301.066
301.38
301.695
302.007
302.316
302.62
302.918
303.208
303.49
303.763
304.027
304.281
304.526
304.761
304.986
305.202
305.409
305.607
305.797
305.978
306.152
306.318
306.477
306.629
306.775
306.916
307.051
307.181
307.306
307.428
307.547
307.663
307.777
307.889
308.001
308.112
308.225
308.339
308.456
308.577
308.703
308.836
308.976
309.125
309.284
309.457
309.643
309.846
310.067
310.309
310.574
310.865
311.183
311.533
311.915
312.334
312.791
313.29
313.833
314.423
315.061
315.751
316.494
317.29
318.142
319.049
320.011
321.028
322.098
323.218
324.387
325.599
326.851
328.138
329.454
330.793
332.149
333.515
300.151
300.457
300.772
301.091
301.413
301.735
302.055
302.372
302.684
302.989
303.286
303.575
303.855
304.125
304.386
304.636
304.876
305.107
305.328
305.539
305.741
305.934
306.119
306.295
306.463
306.624
306.778
306.926
307.067
307.202
307.333
307.459
307.58
307.698
307.813
307.926
308.037
308.147
308.257
308.367
308.479
308.593
308.71
308.832
308.96
309.095
309.238
309.391
309.556
309.734
309.927
310.137
310.366
310.617
310.891
311.19
311.517
311.875
312.265
312.69
313.153
313.654
314.197
314.784
315.414
316.091
316.814
317.585
318.403
319.268
320.179
321.134
322.131
323.168
324.241
325.346
326.481
327.639
328.817
330.01
331.211
300.155
300.47
300.793
301.121
301.452
301.783
302.113
302.439
302.759
303.073
303.379
303.676
303.964
304.242
304.51
304.767
305.014
305.25
305.477
305.693
305.9
306.097
306.285
306.465
306.636
306.8
306.955
307.104
307.247
307.383
307.514
307.64
307.761
307.878
307.992
308.104
308.213
308.321
308.429
308.537
308.645
308.756
308.87
308.987
309.11
309.239
309.376
309.522
309.679
309.848
310.03
310.228
310.444
310.679
310.935
311.214
311.518
311.85
312.211
312.603
313.028
313.487
313.983
314.517
315.089
315.701
316.352
317.045
317.777
318.549
319.359
320.207
321.089
322.005
322.95
323.923
324.92
325.937
326.97
328.016
329.07
300.16
300.484
300.817
301.156
301.498
301.84
302.18
302.517
302.848
303.173
303.489
303.796
304.093
304.38
304.656
304.922
305.177
305.42
305.653
305.876
306.088
306.29
306.483
306.666
306.841
307.007
307.165
307.316
307.459
307.597
307.728
307.854
307.975
308.092
308.205
308.315
308.422
308.528
308.633
308.738
308.844
308.951
309.06
309.173
309.291
309.414
309.544
309.682
309.83
309.989
310.16
310.346
310.547
310.765
311.003
311.261
311.542
311.847
312.178
312.537
312.924
313.341
313.79
314.272
314.787
315.336
315.919
316.536
317.187
317.872
318.588
319.336
320.113
320.918
321.747
322.6
323.472
324.362
325.266
326.181
327.104
300.166
300.502
300.847
301.198
301.552
301.907
302.26
302.609
302.953
303.29
303.618
303.937
304.245
304.543
304.83
305.105
305.369
305.621
305.862
306.091
306.31
306.518
306.715
306.903
307.082
307.251
307.412
307.564
307.71
307.848
307.98
308.106
308.226
308.342
308.454
308.563
308.669
308.772
308.875
308.976
309.078
309.181
309.286
309.394
309.506
309.622
309.745
309.875
310.014
310.162
310.322
310.495
310.681
310.883
311.101
311.339
311.596
311.874
312.175
312.5
312.85
313.226
313.63
314.061
314.521
315.01
315.527
316.074
316.649
317.253
317.883
318.539
319.22
319.924
320.649
321.393
322.154
322.93
323.719
324.517
325.323
300.172
300.522
300.881
301.246
301.615
301.985
302.354
302.718
303.077
303.428
303.77
304.102
304.424
304.735
305.033
305.32
305.594
305.856
306.106
306.344
306.57
306.784
306.988
307.181
307.363
307.536
307.7
307.855
308.002
308.142
308.274
308.4
308.521
308.636
308.747
308.854
308.957
309.058
309.158
309.256
309.354
309.453
309.553
309.655
309.761
309.871
309.986
310.107
310.237
310.374
310.522
310.681
310.852
311.037
311.237
311.453
311.686
311.938
312.21
312.502
312.816
313.152
313.512
313.896
314.303
314.736
315.193
315.674
316.179
316.708
317.259
317.832
318.426
319.039
319.67
320.317
320.979
321.654
322.339
323.034
323.736
300.18
300.546
300.921
301.304
301.69
302.077
302.463
302.845
303.221
303.589
303.948
304.296
304.634
304.959
305.271
305.571
305.858
306.131
306.391
306.639
306.873
307.095
307.305
307.504
307.692
307.869
308.036
308.193
308.342
308.483
308.616
308.743
308.863
308.977
309.087
309.192
309.293
309.392
309.488
309.582
309.676
309.77
309.865
309.962
310.061
310.164
310.271
310.384
310.503
310.63
310.766
310.911
311.067
311.235
311.416
311.611
311.821
312.047
312.291
312.552
312.831
313.13
313.448
313.787
314.146
314.526
314.927
315.348
315.789
316.25
316.73
317.228
317.743
318.275
318.822
319.383
319.957
320.542
321.136
321.739
322.348
300.189
300.574
300.969
301.371
301.777
302.185
302.591
302.994
303.39
303.778
304.156
304.523
304.878
305.221
305.549
305.864
306.165
306.451
306.723
306.981
307.225
307.456
307.674
307.879
308.072
308.253
308.424
308.585
308.736
308.878
309.012
309.138
309.258
309.371
309.479
309.582
309.681
309.777
309.87
309.96
310.05
310.139
310.229
310.319
310.412
310.507
310.606
310.71
310.819
310.935
311.059
311.191
311.332
311.483
311.646
311.821
312.009
312.21
312.426
312.657
312.905
313.168
313.448
313.745
314.06
314.392
314.741
315.107
315.491
315.891
316.306
316.738
317.184
317.643
318.116
318.601
319.096
319.601
320.115
320.636
321.164
300.2
300.606
301.024
301.449
301.879
302.311
302.741
303.167
303.587
303.998
304.398
304.787
305.163
305.525
305.872
306.204
306.521
306.822
307.107
307.377
307.632
307.872
308.098
308.31
308.509
308.696
308.87
309.034
309.187
309.331
309.466
309.592
309.711
309.824
309.93
310.031
310.127
310.219
310.309
310.395
310.48
310.564
310.648
310.732
310.818
310.906
310.997
311.092
311.191
311.296
311.407
311.526
311.653
311.788
311.933
312.089
312.255
312.434
312.624
312.828
313.045
313.275
313.52
313.78
314.053
314.342
314.645
314.962
315.294
315.639
315.998
316.37
316.754
317.15
317.557
317.975
318.401
318.837
319.279
319.729
320.184
300.212
300.644
301.088
301.54
301.998
302.457
302.915
303.369
303.816
304.253
304.68
305.094
305.493
305.878
306.246
306.598
306.932
307.249
307.55
307.833
308.099
308.35
308.584
308.804
309.01
309.201
309.38
309.547
309.703
309.848
309.984
310.11
310.228
310.339
310.444
310.542
310.635
310.724
310.809
310.892
310.972
311.05
311.128
311.206
311.285
311.365
311.448
311.534
311.623
311.718
311.817
311.923
312.036
312.156
312.284
312.422
312.568
312.725
312.892
313.07
313.259
313.46
313.673
313.898
314.135
314.384
314.646
314.92
315.205
315.503
315.812
316.131
316.461
316.801
317.151
317.509
317.876
318.25
318.63
319.017
319.409
300.227
300.688
301.163
301.647
302.136
302.628
303.118
303.604
304.082
304.55
305.006
305.449
305.875
306.285
306.677
307.05
307.404
307.74
308.056
308.354
308.633
308.895
309.139
309.367
309.579
309.776
309.959
310.13
310.287
310.434
310.57
310.696
310.813
310.923
311.025
311.12
311.21
311.295
311.376
311.454
311.529
311.602
311.674
311.745
311.817
311.89
311.964
312.041
312.121
312.205
312.293
312.387
312.486
312.592
312.705
312.825
312.953
313.089
313.235
313.39
313.554
313.728
313.912
314.106
314.311
314.525
314.75
314.986
315.231
315.486
315.751
316.025
316.308
316.599
316.898
317.205
317.519
317.84
318.166
318.498
318.835
300.244
300.74
301.25
301.77
302.297
302.826
303.353
303.876
304.39
304.894
305.384
305.858
306.315
306.753
307.171
307.568
307.945
308.3
308.633
308.947
309.239
309.513
309.767
310.003
310.222
310.425
310.612
310.785
310.945
311.092
311.228
311.354
311.47
311.577
311.677
311.769
311.856
311.937
312.013
312.086
312.156
312.223
312.289
312.353
312.418
312.483
312.55
312.618
312.688
312.762
312.84
312.922
313.008
313.101
313.199
313.303
313.414
313.532
313.658
313.792
313.934
314.084
314.242
314.409
314.585
314.769
314.962
315.164
315.374
315.592
315.819
316.053
316.295
316.544
316.8
317.062
317.331
317.605
317.885
318.169
318.458
300.264
300.8
301.351
301.914
302.484
303.056
303.626
304.191
304.747
305.29
305.818
306.329
306.819
307.289
307.736
308.159
308.559
308.935
309.288
309.617
309.924
310.209
310.473
310.718
310.943
311.151
311.343
311.518
311.68
311.828
311.963
312.088
312.202
312.307
312.403
312.492
312.574
312.651
312.723
312.79
312.854
312.915
312.975
313.033
313.091
313.148
313.207
313.266
313.328
313.392
313.459
313.53
313.606
313.685
313.77
313.86
313.956
314.058
314.166
314.281
314.402
314.531
314.667
314.81
314.961
315.118
315.284
315.456
315.636
315.822
316.016
316.216
316.422
316.635
316.854
317.078
317.307
317.542
317.781
318.024
318.271
300.287
300.87
301.469
302.081
302.7
303.322
303.942
304.555
305.158
305.747
306.317
306.868
307.396
307.9
308.378
308.829
309.254
309.653
310.025
310.371
310.692
310.989
311.263
311.515
311.747
311.96
312.154
312.332
312.494
312.641
312.776
312.899
313.01
313.112
313.205
313.29
313.367
313.439
313.506
313.568
313.626
313.681
313.734
313.786
313.836
313.886
313.937
313.989
314.042
314.097
314.155
314.216
314.28
314.348
314.421
314.498
314.58
314.667
314.76
314.858
314.962
315.072
315.189
315.311
315.44
315.575
315.716
315.863
316.016
316.176
316.341
316.512
316.688
316.869
317.056
317.248
317.444
317.644
317.848
318.056
318.268
300.313
300.951
301.606
302.274
302.951
303.63
304.307
304.975
305.631
306.27
306.889
307.484
308.052
308.593
309.105
309.586
310.037
310.458
310.85
311.213
311.547
311.856
312.139
312.398
312.635
312.851
313.048
313.226
313.388
313.535
313.667
313.787
313.895
313.993
314.082
314.162
314.235
314.301
314.362
314.418
314.471
314.52
314.566
314.611
314.655
314.698
314.742
314.786
314.831
314.878
314.927
314.978
315.033
315.091
315.153
315.218
315.288
315.362
315.442
315.525
315.614
315.708
315.808
315.912
316.022
316.138
316.258
316.384
316.515
316.651
316.792
316.938
317.089
317.244
317.404
317.567
317.735
317.906
318.081
318.259
318.44
300.344
301.044
301.764
302.499
303.241
303.986
304.727
305.458
306.174
306.869
307.54
308.183
308.796
309.376
309.923
310.435
310.913
311.357
311.767
312.146
312.493
312.812
313.103
313.368
313.608
313.826
314.023
314.201
314.362
314.506
314.635
314.751
314.855
314.948
315.032
315.107
315.174
315.235
315.29
315.341
315.387
315.43
315.47
315.509
315.546
315.583
315.619
315.656
315.694
315.734
315.775
315.818
315.864
315.913
315.966
316.021
316.081
316.144
316.211
316.283
316.359
316.439
316.524
316.614
316.708
316.807
316.91
317.018
317.13
317.247
317.368
317.493
317.622
317.755
317.892
318.032
318.176
318.322
318.472
318.625
318.78
300.38
301.153
301.948
302.758
303.577
304.397
305.211
306.012
306.794
307.552
308.28
308.976
309.635
310.256
310.839
311.382
311.886
312.351
312.779
313.172
313.53
313.857
314.153
314.422
314.664
314.882
315.078
315.254
315.411
315.551
315.676
315.787
315.886
315.974
316.052
316.121
316.182
316.237
316.286
316.331
316.371
316.408
316.443
316.475
316.507
316.537
316.568
316.599
316.63
316.663
316.698
316.734
316.773
316.815
316.859
316.906
316.957
317.011
317.069
317.13
317.196
317.265
317.338
317.415
317.496
317.581
317.67
317.763
317.86
317.96
318.064
318.172
318.283
318.398
318.515
318.636
318.76
318.886
319.015
319.146
319.28
300.422
301.28
302.161
303.058
303.964
304.869
305.766
306.646
307.502
308.327
309.117
309.867
310.575
311.238
311.856
312.429
312.957
313.442
313.885
314.289
314.656
314.987
315.286
315.555
315.796
316.012
316.205
316.376
316.528
316.663
316.782
316.888
316.98
317.062
317.134
317.197
317.252
317.301
317.345
317.384
317.419
317.45
317.48
317.507
317.533
317.559
317.585
317.61
317.637
317.664
317.694
317.725
317.758
317.793
317.831
317.872
317.916
317.963
318.013
318.066
318.123
318.183
318.247
318.314
318.384
318.458
318.536
318.617
318.701
318.788
318.879
318.972
319.069
319.168
319.27
319.375
319.482
319.591
319.703
319.816
319.932
300.47
301.426
302.407
303.405
304.41
305.412
306.401
307.368
308.304
309.203
310.058
310.864
311.621
312.325
312.976
313.576
314.125
314.626
315.08
315.491
315.862
316.195
316.493
316.759
316.996
317.207
317.394
317.559
317.704
317.832
317.945
318.043
318.129
318.204
318.27
318.327
318.377
318.42
318.459
318.493
318.523
318.55
318.575
318.599
318.621
318.643
318.665
318.687
318.71
318.734
318.76
318.787
318.816
318.847
318.881
318.917
318.956
318.997
319.042
319.089
319.14
319.193
319.25
319.309
319.372
319.437
319.505
319.577
319.651
319.728
319.808
319.89
319.974
320.062
320.151
320.242
320.336
320.431
320.529
320.628
320.728
300.526
301.595
302.691
303.804
304.922
306.033
307.126
308.188
309.211
310.186
311.107
311.971
312.774
313.516
314.197
314.819
315.383
315.894
316.354
316.767
317.137
317.467
317.76
318.02
318.249
318.452
318.631
318.788
318.925
319.045
319.15
319.241
319.32
319.389
319.449
319.5
319.545
319.584
319.619
319.649
319.676
319.701
319.723
319.744
319.765
319.785
319.805
319.825
319.846
319.869
319.892
319.918
319.945
319.974
320.005
320.039
320.075
320.113
320.154
320.197
320.244
320.293
320.344
320.398
320.455
320.514
320.576
320.64
320.707
320.776
320.847
320.92
320.995
321.073
321.152
321.233
321.316
321.4
321.485
321.573
321.661
300.591
301.79
303.018
304.262
305.509
306.742
307.948
309.113
310.227
311.281
312.268
313.185
314.03
314.804
315.508
316.144
316.717
317.231
317.69
318.099
318.462
318.783
319.067
319.317
319.537
319.729
319.898
320.045
320.173
320.285
320.382
320.466
320.539
320.603
320.657
320.705
320.747
320.783
320.815
320.844
320.87
320.893
320.916
320.937
320.957
320.977
320.998
321.018
321.04
321.063
321.087
321.113
321.14
321.169
321.2
321.233
321.268
321.305
321.345
321.387
321.431
321.477
321.526
321.576
321.629
321.684
321.741
321.801
321.862
321.925
321.989
322.056
322.124
322.194
322.265
322.338
322.412
322.487
322.563
322.64
322.718
300.665
302.015
303.394
304.788
306.178
307.546
308.874
310.148
311.356
312.486
313.535
314.499
315.379
316.175
316.891
317.533
318.105
318.613
319.063
319.461
319.812
320.12
320.39
320.627
320.834
321.014
321.172
321.309
321.428
321.532
321.622
321.701
321.77
321.829
321.882
321.928
321.968
322.004
322.037
322.067
322.094
322.119
322.144
322.167
322.19
322.213
322.237
322.26
322.285
322.311
322.337
322.365
322.395
322.426
322.459
322.493
322.53
322.568
322.608
322.65
322.693
322.739
322.786
322.835
322.886
322.938
322.993
323.048
323.106
323.164
323.224
323.286
323.348
323.412
323.477
323.543
323.609
323.677
323.745
323.814
323.884
300.751
302.272
303.824
305.387
306.937
308.452
309.911
311.296
312.594
313.796
314.896
315.895
316.796
317.603
318.319
318.953
319.513
320.006
320.439
320.818
321.151
321.441
321.695
321.917
322.11
322.279
322.426
322.554
322.667
322.765
322.851
322.927
322.993
323.052
323.105
323.152
323.195
323.234
323.27
323.303
323.335
323.365
323.395
323.423
323.452
323.48
323.509
323.538
323.568
323.598
323.63
323.663
323.696
323.731
323.768
323.805
323.844
323.885
323.927
323.97
324.014
324.06
324.108
324.156
324.206
324.258
324.31
324.363
324.418
324.473
324.53
324.587
324.645
324.704
324.764
324.824
324.885
324.946
325.008
325.07
325.132
300.848
302.566
304.314
306.066
307.792
309.464
311.057
312.551
313.933
315.193
316.326
317.339
318.239
319.035
319.736
320.352
320.89
321.361
321.772
322.13
322.442
322.714
322.951
323.158
323.339
323.497
323.636
323.758
323.865
323.961
324.045
324.121
324.189
324.251
324.307
324.359
324.407
324.452
324.494
324.534
324.573
324.611
324.648
324.684
324.72
324.756
324.792
324.828
324.865
324.902
324.94
324.978
325.018
325.058
325.099
325.14
325.183
325.227
325.271
325.317
325.363
325.41
325.459
325.508
325.557
325.608
325.659
325.711
325.763
325.816
325.869
325.923
325.977
326.032
326.087
326.142
326.198
326.253
326.309
326.365
326.421
300.959
302.901
304.87
306.831
308.747
310.584
312.309
313.89
315.322
316.606
317.748
318.757
319.643
320.419
321.095
321.683
322.194
322.637
323.022
323.357
323.647
323.901
324.122
324.315
324.485
324.635
324.768
324.887
324.993
325.088
325.175
325.253
325.326
325.393
325.456
325.515
325.57
325.624
325.675
325.724
325.772
325.819
325.865
325.91
325.955
326
326.044
326.089
326.133
326.178
326.222
326.267
326.312
326.358
326.404
326.45
326.496
326.543
326.591
326.639
326.687
326.735
326.784
326.833
326.883
326.932
326.982
327.033
327.083
327.133
327.184
327.234
327.285
327.335
327.386
327.436
327.487
327.537
327.587
327.637
327.686
301.084
303.277
305.494
307.684
309.802
311.775
313.584
315.219
316.678
317.969
319.102
320.091
320.95
321.693
322.335
322.89
323.368
323.781
324.138
324.448
324.718
324.953
325.16
325.342
325.504
325.648
325.777
325.895
326.001
326.099
326.19
326.274
326.353
326.427
326.498
326.566
326.63
326.693
326.753
326.812
326.87
326.926
326.982
327.036
327.09
327.143
327.196
327.248
327.3
327.351
327.402
327.453
327.503
327.554
327.604
327.654
327.704
327.753
327.803
327.853
327.902
327.951
328
328.049
328.098
328.147
328.195
328.243
328.291
328.339
328.386
328.433
328.48
328.526
328.573
328.618
328.663
328.708
328.753
328.797
328.84
301.219
303.688
306.176
308.589
310.849
312.921
314.789
316.451
317.913
319.189
320.294
321.247
322.066
322.769
323.371
323.887
324.331
324.713
325.043
325.329
325.58
325.799
325.993
326.166
326.322
326.462
326.59
326.707
326.816
326.917
327.012
327.102
327.187
327.268
327.346
327.422
327.494
327.565
327.634
327.701
327.767
327.831
327.894
327.956
328.017
328.077
328.136
328.194
328.252
328.308
328.364
328.419
328.474
328.528
328.581
328.634
328.686
328.737
328.788
328.839
328.889
328.938
328.987
329.035
329.083
329.13
329.177
329.223
329.268
329.313
329.358
329.401
329.444
329.487
329.529
329.571
329.611
329.652
329.691
329.73
329.769
301.345
304.083
306.796
309.356
311.712
313.838
315.725
317.382
318.822
320.065
321.131
322.043
322.821
323.484
324.05
324.533
324.947
325.304
325.612
325.881
326.116
326.324
326.509
326.675
326.825
326.963
327.089
327.206
327.316
327.419
327.517
327.609
327.698
327.784
327.866
327.946
328.023
328.099
328.172
328.244
328.314
328.383
328.45
328.516
328.581
328.645
328.708
328.769
328.83
328.889
328.948
329.006
329.062
329.118
329.173
329.227
329.28
329.333
329.385
329.435
329.485
329.535
329.583
329.631
329.678
329.724
329.769
329.814
329.858
329.901
329.943
329.985
330.026
330.066
330.105
330.144
330.182
330.219
330.256
330.292
330.327
379.608
387.539
394.223
400.062
405.254
409.908
414.084
417.816
421.117
423.989
426.42
428.387
429.854
430.773
431.077
430.676
429.438
427.168
423.534
417.879
408.556
402.253
397.429
393.483
390.128
387.201
384.602
382.261
380.131
378.175
376.366
374.681
373.104
371.62
370.217
368.885
367.617
366.404
365.242
364.124
363.046
362.003
360.993
360.013
359.058
358.127
357.218
356.328
355.456
354.601
353.76
352.932
352.117
351.313
350.52
349.736
348.961
348.193
347.434
346.682
345.937
345.198
344.465
343.739
343.019
342.305
341.596
340.894
340.197
339.506
338.821
338.142
337.47
336.803
336.143
335.49
334.843
334.204
333.571
332.945
332.328
331.717
331.115
330.521
329.936
329.359
328.792
328.233
327.684
327.145
326.616
326.097
325.588
325.09
324.603
324.127
323.662
323.209
322.767
322.336
321.917
321.509
321.113
320.728
320.355
319.993
319.642
319.303
318.975
318.657
318.35
318.053
317.767
317.49
317.224
316.966
316.718
316.478
316.247
316.023
315.808
315.6
315.399
315.205
315.018
314.837
314.661
314.491
314.327
314.167
314.012
313.861
313.714
313.571
313.432
313.296
313.163
313.033
312.905
312.78
312.658
312.537
312.418
312.302
312.186
312.073
311.96
311.85
311.74
311.631
311.523
311.417
311.311
311.206
311.102
310.999
310.896
310.795
310.694
310.595
310.498
374.875
381.762
387.974
393.566
398.616
403.181
407.301
410.997
414.278
417.141
419.572
421.548
423.034
423.983
424.333
423.999
422.869
420.787
417.535
412.844
406.671
401.336
396.888
393.123
389.869
387.006
384.449
382.139
380.031
378.092
376.296
374.622
373.053
371.576
370.179
368.852
367.588
366.379
365.219
364.104
363.028
361.988
360.979
360
359.046
358.117
357.208
356.32
355.449
354.594
353.753
352.927
352.112
351.308
350.515
349.731
348.957
348.19
347.431
346.679
345.933
345.195
344.463
343.736
343.016
342.302
341.594
340.891
340.195
339.504
338.819
338.14
337.468
336.801
336.141
335.488
334.841
334.202
333.569
332.943
332.326
331.715
331.113
330.519
329.934
329.357
328.79
328.231
327.682
327.143
326.614
326.095
325.587
325.089
324.602
324.126
323.661
323.207
322.765
322.334
321.915
321.508
321.111
320.727
320.354
319.992
319.641
319.302
318.974
318.656
318.349
318.053
317.766
317.49
317.223
316.965
316.717
316.477
316.246
316.023
315.808
315.6
315.399
315.205
315.018
314.836
314.661
314.491
314.327
314.167
314.012
313.861
313.714
313.571
313.432
313.296
313.163
313.033
312.906
312.781
312.658
312.537
312.419
312.302
312.187
312.073
311.961
311.85
311.74
311.631
311.524
311.417
311.311
311.206
311.102
310.999
310.897
310.795
310.695
310.595
310.498
370.798
376.686
382.263
387.45
392.232
396.617
400.613
404.225
407.452
410.285
412.706
414.692
416.209
417.213
417.649
417.446
416.519
414.763
412.074
408.406
403.975
399.676
395.797
392.359
389.307
386.576
384.11
381.867
379.808
377.908
376.141
374.491
372.942
371.48
370.096
368.78
367.525
366.324
365.171
364.061
362.99
361.954
360.949
359.973
359.022
358.095
357.189
356.302
355.433
354.579
353.74
352.914
352.101
351.298
350.506
349.723
348.948
348.182
347.424
346.672
345.927
345.189
344.457
343.731
343.011
342.297
341.589
340.887
340.19
339.499