/*--------------------------------*- C++ -*----------------------------------*\
  =========                 |
  \\      /  F ield         | OpenFOAM: The Open Source CFD Toolbox
   \\    /   O peration     | Website:  https://openfoam.org
    \\  /    A nd           | Version:  7
     \\/     M anipulation  |
\*---------------------------------------------------------------------------*/
FoamFile
{
    version     2.0;
    format      ascii;
    class       volScalarField;
    location    "7.29";
    object      T;
}
// * * * * * * * * * * * * * * * * * * * * * * * * * * * * * * * * * * * * * //

dimensions      [0 0 0 1 0 0 0];

internalField   nonuniform List<scalar> 
12013
(
300.12
300.362
300.61
300.863
301.117
301.371
301.624
301.874
302.121
302.363
302.6
302.831
303.055
303.273
303.484
303.688
303.885
304.075
304.258
304.435
304.605
304.769
304.928
305.08
305.228
305.37
305.508
305.642
305.772
305.898
306.022
306.143
306.262
306.379
306.496
306.612
306.729
306.847
306.968
307.091
307.219
307.352
307.492
307.641
307.799
307.969
308.153
308.352
308.57
308.81
309.073
309.364
309.685
310.042
310.437
310.876
311.364
311.906
312.508
313.177
313.92
314.745
315.66
316.674
317.798
319.044
320.422
321.948
323.637
325.507
327.577
329.872
332.419
335.252
338.411
341.949
345.935
350.466
355.688
361.844
369.398
300.12
300.362
300.611
300.863
301.117
301.371
301.624
301.875
302.122
302.364
302.601
302.832
303.057
303.275
303.486
303.69
303.887
304.077
304.26
304.437
304.608
304.772
304.93
305.083
305.23
305.373
305.511
305.645
305.775
305.901
306.025
306.145
306.264
306.382
306.499
306.615
306.732
306.85
306.97
307.094
307.221
307.355
307.495
307.643
307.801
307.971
308.154
308.354
308.572
308.811
309.074
309.364
309.685
310.041
310.436
310.874
311.361
311.903
312.504
313.172
313.913
314.736
315.649
316.661
317.782
319.023
320.397
321.918
323.599
325.46
327.52
329.801
332.329
335.136
338.261
341.749
345.661
350.073
355.085
360.822
367.395
300.12
300.363
300.611
300.864
301.118
301.373
301.626
301.877
302.124
302.367
302.604
302.835
303.06
303.278
303.49
303.694
303.891
304.082
304.265
304.442
304.613
304.777
304.935
305.088
305.236
305.378
305.516
305.65
305.78
305.907
306.03
306.151
306.27
306.388
306.504
306.62
306.737
306.855
306.976
307.099
307.226
307.359
307.499
307.647
307.805
307.975
308.158
308.357
308.574
308.813
309.075
309.365
309.685
310.04
310.433
310.87
311.356
311.895
312.494
313.159
313.897
314.716
315.625
316.631
317.745
318.978
320.342
321.85
323.517
325.359
327.394
329.644
332.132
334.887
337.939
341.326
345.091
349.283
353.947
359.113
364.742
300.12
300.363
300.612
300.865
301.12
301.375
301.629
301.88
302.128
302.371
302.609
302.841
303.066
303.285
303.496
303.701
303.899
304.089
304.273
304.45
304.621
304.785
304.944
305.097
305.245
305.388
305.526
305.66
305.79
305.916
306.04
306.161
306.28
306.397
306.514
306.63
306.746
306.864
306.984
307.108
307.235
307.368
307.507
307.655
307.812
307.981
308.164
308.362
308.579
308.816
309.077
309.366
309.685
310.038
310.429
310.864
311.347
311.883
312.478
313.138
313.871
314.684
315.584
316.582
317.685
318.905
320.252
321.741
323.383
325.194
327.191
329.392
331.817
334.489
337.433
340.673
344.235
348.141
352.4
356.993
361.849
300.12
300.364
300.614
300.868
301.123
301.379
301.634
301.886
302.134
302.378
302.616
302.848
303.074
303.294
303.506
303.711
303.909
304.1
304.285
304.462
304.633
304.798
304.957
305.11
305.258
305.401
305.539
305.673
305.804
305.93
306.054
306.175
306.294
306.411
306.527
306.643
306.76
306.878
306.997
307.12
307.247
307.38
307.518
307.665
307.822
307.99
308.172
308.37
308.585
308.821
309.081
309.367
309.684
310.035
310.424
310.855
311.333
311.865
312.454
313.108
313.833
314.637
315.526
316.51
317.597
318.798
320.123
321.582
323.19
324.958
326.901
329.035
331.376
333.939
336.742
339.799
343.121
346.711
350.558
354.629
358.856
300.121
300.366
300.616
300.871
301.128
301.384
301.64
301.893
302.142
302.387
302.626
302.859
303.086
303.306
303.519
303.725
303.924
304.116
304.301
304.479
304.65
304.816
304.975
305.129
305.277
305.42
305.558
305.693
305.823
305.95
306.073
306.194
306.313
306.43
306.546
306.662
306.779
306.896
307.016
307.138
307.264
307.396
307.534
307.681
307.837
308.004
308.184
308.38
308.594
308.829
309.086
309.37
309.684
310.031
310.416
310.843
311.316
311.84
312.422
313.068
313.782
314.573
315.447
316.414
317.48
318.655
319.948
321.371
322.933
324.645
326.52
328.57
330.805
333.237
335.875
338.725
341.789
345.057
348.512
352.119
355.825
300.121
300.367
300.619
300.875
301.133
301.391
301.648
301.902
302.153
302.399
302.639
302.874
303.102
303.323
303.537
303.744
303.944
304.136
304.322
304.501
304.673
304.839
304.999
305.153
305.301
305.445
305.584
305.718
305.849
305.975
306.099
306.22
306.339
306.456
306.572
306.688
306.804
306.921
307.04
307.161
307.287
307.418
307.556
307.701
307.856
308.022
308.201
308.395
308.607
308.838
309.093
309.374
309.684
310.027
310.406
310.827
311.293
311.809
312.382
313.015
313.716
314.491
315.346
316.289
317.328
318.471
319.726
321.102
322.608
324.253
326.046
327.995
330.108
332.392
334.85
337.481
340.281
343.238
346.33
349.527
352.791
300.122
300.37
300.623
300.881
301.14
301.4
301.658
301.914
302.167
302.414
302.657
302.893
303.122
303.345
303.56
303.768
303.969
304.163
304.349
304.529
304.702
304.869
305.029
305.184
305.333
305.477
305.616
305.751
305.882
306.009
306.132
306.253
306.372
306.489
306.605
306.72
306.836
306.952
307.071
307.192
307.317
307.447
307.583
307.727
307.881
308.045
308.222
308.414
308.623
308.852
309.103
309.38
309.685
310.022
310.395
310.808
311.265
311.771
312.331
312.95
313.634
314.389
315.22
316.136
317.142
318.246
319.454
320.775
322.214
323.78
325.479
327.316
329.295
331.42
333.688
336.098
338.639
341.3
344.061
346.897
349.779
300.123
300.372
300.628
300.888
301.149
301.411
301.672
301.93
302.184
302.434
302.678
302.916
303.148
303.372
303.589
303.799
304.001
304.196
304.384
304.565
304.739
304.907
305.068
305.224
305.374
305.518
305.658
305.793
305.924
306.051
306.175
306.296
306.414
306.531
306.647
306.762
306.877
306.993
307.111
307.231
307.355
307.484
307.619
307.761
307.913
308.075
308.249
308.438
308.644
308.869
309.116
309.388
309.687
310.017
310.382
310.786
311.232
311.725
312.27
312.872
313.535
314.266
315.07
315.952
316.92
317.977
319.132
320.389
321.754
323.232
324.827
326.542
328.379
330.338
332.416
334.606
336.901
339.287
341.748
344.263
346.81
300.124
300.376
300.634
300.896
301.16
301.425
301.688
301.949
302.206
302.459
302.705
302.946
303.179
303.406
303.625
303.837
304.041
304.238
304.428
304.61
304.786
304.954
305.117
305.273
305.424
305.569
305.71
305.845
305.976
306.104
306.228
306.349
306.467
306.584
306.699
306.814
306.928
307.043
307.16
307.28
307.402
307.53
307.663
307.804
307.953
308.112
308.284
308.47
308.672
308.892
309.134
309.399
309.691
310.013
310.369
310.761
311.195
311.673
312.2
312.781
313.421
314.124
314.895
315.739
316.662
317.668
318.762
319.948
321.231
322.614
324.098
325.686
327.378
329.17
331.059
333.039
335.101
337.233
339.422
341.652
343.904
300.125
300.38
300.641
300.907
301.174
301.442
301.709
301.973
302.233
302.489
302.739
302.982
303.219
303.448
303.67
303.884
304.091
304.289
304.481
304.665
304.843
305.013
305.177
305.334
305.486
305.632
305.773
305.91
306.041
306.169
306.293
306.414
306.533
306.649
306.764
306.878
306.992
307.106
307.222
307.34
307.461
307.587
307.719
307.857
308.003
308.16
308.328
308.51
308.707
308.922
309.157
309.416
309.699
310.012
310.356
310.736
311.154
311.614
312.122
312.679
313.291
313.962
314.697
315.498
316.372
317.32
318.348
319.459
320.654
321.936
323.307
324.765
326.31
327.938
329.646
331.426
333.271
335.171
337.114
339.088
341.08
300.127
300.386
300.65
300.92
301.191
301.463
301.733
302.002
302.266
302.525
302.779
303.026
303.266
303.499
303.724
303.941
304.151
304.352
304.546
304.733
304.912
305.084
305.25
305.409
305.562
305.71
305.851
305.988
306.121
306.249
306.373
306.494
306.613
306.729
306.843
306.957
307.07
307.183
307.298
307.414
307.534
307.658
307.787
307.922
308.066
308.219
308.383
308.56
308.752
308.961
309.189
309.439
309.713
310.014
310.346
310.71
311.111
311.552
312.037
312.568
313.149
313.785
314.479
315.234
316.053
316.941
317.898
318.928
320.033
321.212
322.467
323.796
325.197
326.667
328.202
329.795
331.439
333.127
334.849
336.595
338.355
300.129
300.392
300.661
300.935
301.211
301.488
301.763
302.036
302.305
302.57
302.828
303.079
303.324
303.56
303.789
304.01
304.223
304.428
304.625
304.814
304.996
305.171
305.338
305.499
305.654
305.803
305.946
306.084
306.217
306.346
306.47
306.592
306.71
306.826
306.94
307.052
307.164
307.277
307.39
307.505
307.622
307.744
307.87
308.003
308.143
308.292
308.451
308.623
308.809
309.01
309.23
309.471
309.734
310.023
310.34
310.688
311.07
311.489
311.948
312.45
312.999
313.596
314.246
314.951
315.714
316.537
317.421
318.369
319.381
320.458
321.598
322.8
324.063
325.382
326.754
328.173
329.634
331.129
332.651
334.193
335.746
300.132
300.4
300.674
300.954
301.235
301.518
301.799
302.078
302.353
302.623
302.886
303.143
303.393
303.634
303.868
304.093
304.31
304.519
304.72
304.912
305.097
305.275
305.445
305.608
305.765
305.915
306.06
306.199
306.333
306.462
306.587
306.709
306.827
306.942
307.056
307.168
307.279
307.39
307.501
307.614
307.73
307.849
307.972
308.101
308.237
308.382
308.536
308.701
308.88
309.074
309.285
309.515
309.767
310.042
310.343
310.673
311.034
311.429
311.861
312.331
312.844
313.401
314.005
314.658
315.362
316.118
316.929
317.794
318.714
319.689
320.717
321.798
322.928
324.106
325.326
326.585
327.878
329.199
330.542
331.901
333.269
300.135
300.409
300.69
300.976
301.265
301.554
301.842
302.128
302.41
302.686
302.956
303.219
303.475
303.723
303.962
304.192
304.414
304.628
304.833
305.03
305.218
305.399
305.572
305.738
305.897
306.05
306.196
306.337
306.472
306.602
306.727
306.849
306.967
307.082
307.195
307.306
307.416
307.526
307.635
307.746
307.859
307.975
308.095
308.221
308.352
308.492
308.64
308.799
308.97
309.155
309.356
309.575
309.813
310.073
310.358
310.668
311.007
311.376
311.779
312.217
312.692
313.207
313.764
314.363
315.008
315.697
316.434
317.217
318.047
318.924
319.845
320.81
321.817
322.862
323.943
325.056
326.196
327.359
328.541
329.736
330.939
300.139
300.42
300.709
301.002
301.299
301.596
301.893
302.187
302.477
302.761
303.039
303.31
303.573
303.827
304.073
304.31
304.538
304.757
304.968
305.169
305.362
305.547
305.724
305.893
306.055
306.21
306.358
306.501
306.637
306.768
306.894
307.016
307.134
307.249
307.361
307.471
307.58
307.688
307.796
307.904
308.015
308.127
308.244
308.365
308.492
308.625
308.767
308.919
309.082
309.258
309.448
309.654
309.879
310.123
310.389
310.679
310.994
311.337
311.71
312.114
312.551
313.023
313.532
314.078
314.662
315.287
315.951
316.654
317.398
318.181
319.001
319.858
320.749
321.673
322.626
323.605
324.607
325.628
326.665
327.714
328.77
300.143
300.433
300.731
301.034
301.34
301.647
301.953
302.257
302.556
302.85
303.137
303.417
303.689
303.951
304.205
304.45
304.685
304.911
305.127
305.335
305.533
305.723
305.904
306.077
306.242
306.4
306.55
306.694
306.832
306.965
307.092
307.214
307.332
307.447
307.558
307.667
307.774
307.881
307.986
308.092
308.2
308.309
308.421
308.538
308.659
308.787
308.922
309.066
309.221
309.386
309.565
309.759
309.968
310.196
310.443
310.711
311.003
311.319
311.661
312.03
312.429
312.858
313.319
313.813
314.339
314.899
315.494
316.122
316.783
317.478
318.204
318.96
319.746
320.558
321.394
322.252
323.13
324.024
324.932
325.85
326.775
300.148
300.448
300.757
301.071
301.388
301.706
302.024
302.339
302.65
302.955
303.253
303.543
303.825
304.098
304.361
304.614
304.858
305.092
305.316
305.53
305.734
305.929
306.115
306.293
306.462
306.623
306.776
306.923
307.063
307.196
307.324
307.447
307.565
307.68
307.79
307.898
308.004
308.108
308.211
308.315
308.419
308.524
308.633
308.744
308.86
308.981
309.11
309.245
309.39
309.546
309.713
309.893
310.087
310.298
310.526
310.772
311.039
311.328
311.639
311.975
312.336
312.723
313.137
313.58
314.05
314.55
315.078
315.635
316.219
316.832
317.471
318.135
318.824
319.534
320.266
321.015
321.782
322.562
323.354
324.155
324.963
300.154
300.466
300.787
301.114
301.444
301.776
302.107
302.436
302.76
303.078
303.389
303.691
303.985
304.27
304.544
304.808
305.061
305.304
305.537
305.758
305.97
306.172
306.364
306.546
306.72
306.885
307.041
307.19
307.332
307.468
307.597
307.72
307.838
307.952
308.062
308.169
308.273
308.375
308.476
308.577
308.677
308.779
308.882
308.989
309.099
309.214
309.334
309.462
309.597
309.741
309.896
310.063
310.242
310.435
310.644
310.869
311.111
311.373
311.654
311.957
312.281
312.627
312.997
313.391
313.809
314.251
314.717
315.207
315.721
316.259
316.818
317.399
317.999
318.619
319.256
319.908
320.575
321.253
321.943
322.64
323.344
300.161
300.487
300.823
301.165
301.511
301.858
302.205
302.549
302.889
303.222
303.548
303.865
304.173
304.471
304.758
305.034
305.299
305.553
305.795
306.026
306.246
306.455
306.653
306.842
307.02
307.19
307.35
307.502
307.646
307.783
307.914
308.038
308.157
308.27
308.379
308.485
308.587
308.687
308.786
308.883
308.98
309.077
309.176
309.277
309.381
309.489
309.602
309.72
309.846
309.98
310.122
310.275
310.439
310.615
310.804
311.008
311.227
311.462
311.714
311.985
312.274
312.582
312.91
313.258
313.626
314.015
314.424
314.854
315.303
315.772
316.259
316.764
317.286
317.824
318.377
318.943
319.521
320.109
320.707
321.312
321.924
300.169
300.512
300.865
301.224
301.588
301.954
302.319
302.682
303.039
303.39
303.734
304.068
304.393
304.706
305.008
305.298
305.577
305.842
306.096
306.337
306.566
306.784
306.99
307.185
307.369
307.543
307.708
307.863
308.01
308.149
308.281
308.406
308.525
308.638
308.747
308.851
308.951
309.049
309.145
309.239
309.332
309.425
309.519
309.614
309.712
309.812
309.917
310.027
310.143
310.266
310.396
310.535
310.684
310.843
311.014
311.197
311.394
311.604
311.828
312.068
312.324
312.596
312.885
313.191
313.514
313.854
314.211
314.586
314.977
315.384
315.806
316.244
316.696
317.161
317.639
318.128
318.628
319.136
319.653
320.177
320.707
300.178
300.541
300.914
301.294
301.679
302.066
302.452
302.836
303.215
303.587
303.951
304.305
304.648
304.98
305.299
305.605
305.899
306.178
306.444
306.697
306.937
307.164
307.378
307.581
307.771
307.951
308.12
308.279
308.429
308.571
308.704
308.83
308.949
309.062
309.169
309.272
309.371
309.466
309.559
309.649
309.738
309.827
309.916
310.005
310.097
310.19
310.287
310.389
310.495
310.606
310.725
310.851
310.985
311.128
311.281
311.444
311.619
311.805
312.004
312.216
312.441
312.68
312.933
313.2
313.482
313.778
314.088
314.413
314.751
315.103
315.468
315.846
316.236
316.637
317.049
317.471
317.901
318.34
318.786
319.238
319.696
300.189
300.575
300.971
301.375
301.784
302.196
302.608
303.016
303.42
303.816
304.203
304.58
304.945
305.297
305.636
305.961
306.271
306.566
306.847
307.113
307.364
307.601
307.825
308.035
308.233
308.418
308.593
308.756
308.909
309.053
309.187
309.314
309.434
309.546
309.653
309.754
309.851
309.943
310.033
310.12
310.205
310.289
310.372
310.456
310.541
310.628
310.717
310.809
310.906
311.007
311.114
311.227
311.347
311.475
311.611
311.756
311.91
312.074
312.249
312.435
312.632
312.841
313.061
313.293
313.538
313.794
314.063
314.343
314.635
314.939
315.253
315.578
315.913
316.258
316.612
316.975
317.345
317.722
318.106
318.495
318.889
300.202
300.614
301.037
301.469
301.907
302.348
302.788
303.226
303.657
304.081
304.496
304.898
305.288
305.664
306.025
306.37
306.699
307.012
307.309
307.589
307.853
308.102
308.335
308.554
308.76
308.951
309.131
309.298
309.455
309.601
309.737
309.865
309.984
310.096
310.202
310.301
310.396
310.486
310.572
310.655
310.736
310.815
310.893
310.971
311.05
311.129
311.211
311.295
311.382
311.473
311.569
311.67
311.776
311.89
312.01
312.138
312.273
312.417
312.57
312.732
312.904
313.085
313.276
313.477
313.689
313.91
314.142
314.383
314.634
314.895
315.165
315.444
315.731
316.027
316.331
316.641
316.959
317.283
317.612
317.946
318.285
300.217
300.659
301.114
301.579
302.05
302.524
302.998
303.469
303.933
304.389
304.834
305.266
305.684
306.087
306.472
306.84
307.19
307.522
307.836
308.132
308.41
308.671
308.915
309.144
309.357
309.555
309.74
309.911
310.071
310.219
310.357
310.486
310.605
310.717
310.821
310.919
311.011
311.098
311.18
311.26
311.336
311.41
311.483
311.555
311.627
311.7
311.774
311.85
311.928
312.009
312.094
312.184
312.278
312.378
312.483
312.595
312.714
312.839
312.972
313.113
313.262
313.419
313.584
313.758
313.94
314.13
314.329
314.536
314.752
314.975
315.207
315.446
315.692
315.945
316.205
316.471
316.743
317.02
317.302
317.589
317.88
300.235
300.713
301.204
301.707
302.216
302.729
303.241
303.75
304.252
304.744
305.224
305.69
306.139
306.571
306.984
307.378
307.751
308.104
308.436
308.749
309.042
309.315
309.571
309.808
310.029
310.234
310.424
310.6
310.763
310.914
311.053
311.181
311.301
311.411
311.514
311.609
311.699
311.782
311.862
311.937
312.009
312.078
312.145
312.212
312.277
312.343
312.41
312.478
312.547
312.619
312.695
312.773
312.856
312.943
313.035
313.133
313.236
313.345
313.46
313.582
313.71
313.846
313.988
314.137
314.294
314.457
314.628
314.806
314.99
315.182
315.38
315.584
315.795
316.011
316.233
316.461
316.693
316.931
317.172
317.418
317.667
300.255
300.774
301.309
301.855
302.409
302.966
303.523
304.075
304.62
305.153
305.673
306.176
306.661
307.125
307.568
307.989
308.387
308.762
309.115
309.445
309.753
310.04
310.306
310.554
310.783
310.994
311.189
311.369
311.534
311.686
311.826
311.955
312.073
312.182
312.283
312.376
312.462
312.543
312.618
312.689
312.756
312.82
312.882
312.943
313.002
313.062
313.121
313.181
313.243
313.306
313.372
313.441
313.513
313.589
313.669
313.754
313.843
313.937
314.037
314.142
314.252
314.369
314.491
314.619
314.754
314.894
315.04
315.192
315.35
315.514
315.684
315.858
316.038
316.223
316.413
316.608
316.807
317.01
317.216
317.426
317.64
300.279
300.846
301.43
302.027
302.632
303.24
303.848
304.451
305.044
305.624
306.188
306.732
307.256
307.756
308.231
308.681
309.106
309.504
309.877
310.225
310.549
310.849
311.127
311.383
311.62
311.837
312.036
312.219
312.386
312.54
312.68
312.808
312.925
313.032
313.13
313.22
313.303
313.38
313.451
313.517
313.58
313.639
313.696
313.75
313.804
313.857
313.909
313.962
314.016
314.072
314.129
314.189
314.252
314.318
314.387
314.46
314.537
314.618
314.704
314.794
314.889
314.989
315.094
315.205
315.32
315.44
315.565
315.696
315.831
315.972
316.117
316.266
316.42
316.579
316.741
316.907
317.078
317.251
317.428
317.608
317.791
300.306
300.929
301.571
302.226
302.89
303.557
304.223
304.883
305.531
306.163
306.776
307.366
307.931
308.47
308.98
309.461
309.913
310.336
310.73
311.095
311.434
311.747
312.035
312.3
312.542
312.764
312.967
313.152
313.321
313.474
313.613
313.74
313.855
313.959
314.055
314.141
314.22
314.293
314.36
314.421
314.479
314.533
314.585
314.634
314.682
314.728
314.775
314.821
314.869
314.917
314.967
315.018
315.073
315.129
315.189
315.252
315.318
315.388
315.462
315.54
315.622
315.708
315.798
315.893
315.992
316.096
316.203
316.315
316.432
316.552
316.676
316.805
316.937
317.073
317.212
317.355
317.501
317.65
317.801
317.956
318.113
300.338
301.026
301.734
302.456
303.188
303.923
304.656
305.379
306.088
306.778
307.445
308.085
308.696
309.275
309.822
310.335
310.814
311.261
311.675
312.058
312.411
312.735
313.032
313.303
313.551
313.777
313.981
314.167
314.335
314.488
314.625
314.749
314.862
314.963
315.054
315.137
315.212
315.28
315.342
315.399
315.452
315.501
315.548
315.592
315.634
315.676
315.716
315.757
315.798
315.84
315.883
315.928
315.975
316.024
316.076
316.13
316.188
316.248
316.312
316.379
316.45
316.525
316.603
316.685
316.77
316.859
316.952
317.049
317.149
317.253
317.36
317.471
317.585
317.702
317.822
317.945
318.07
318.199
318.329
318.462
318.597
300.375
301.138
301.922
302.723
303.533
304.345
305.152
305.948
306.725
307.479
308.204
308.898
309.556
310.178
310.761
311.306
311.813
312.282
312.715
313.114
313.478
313.812
314.116
314.392
314.642
314.869
315.074
315.259
315.426
315.576
315.71
315.831
315.94
316.037
316.124
316.203
316.273
316.337
316.395
316.447
316.496
316.54
316.582
316.621
316.659
316.696
316.732
316.768
316.804
316.84
316.878
316.917
316.958
317.001
317.046
317.094
317.144
317.197
317.252
317.311
317.373
317.438
317.506
317.578
317.652
317.73
317.811
317.895
317.982
318.073
318.166
318.262
318.361
318.462
318.566
318.672
318.781
318.892
319.005
319.12
319.236
300.418
301.267
302.14
303.031
303.93
304.83
305.721
306.597
307.45
308.273
309.061
309.81
310.518
311.182
311.802
312.378
312.91
313.4
313.849
314.259
314.633
314.973
315.28
315.559
315.81
316.036
316.239
316.421
316.584
316.73
316.861
316.977
317.081
317.174
317.257
317.331
317.397
317.457
317.51
317.559
317.603
317.644
317.682
317.718
317.752
317.785
317.817
317.849
317.881
317.914
317.948
317.983
318.02
318.058
318.098
318.14
318.185
318.232
318.282
318.334
318.389
318.447
318.507
318.57
318.636
318.705
318.776
318.851
318.927
319.007
319.088
319.173
319.259
319.348
319.439
319.532
319.627
319.723
319.822
319.922
320.023
300.467
301.417
302.392
303.385
304.386
305.385
306.371
307.336
308.27
309.167
310.021
310.828
311.585
312.291
312.945
313.548
314.101
314.607
315.068
315.486
315.865
316.207
316.515
316.792
317.041
317.263
317.462
317.64
317.798
317.939
318.065
318.176
318.275
318.363
318.442
318.512
318.574
318.63
318.68
318.726
318.767
318.805
318.841
318.874
318.906
318.937
318.967
318.997
319.027
319.057
319.089
319.122
319.155
319.191
319.228
319.267
319.308
319.352
319.397
319.445
319.495
319.548
319.602
319.66
319.719
319.781
319.845
319.912
319.981
320.051
320.124
320.199
320.276
320.355
320.435
320.517
320.601
320.686
320.772
320.86
320.949
300.524
301.59
302.682
303.793
304.909
306.019
307.11
308.171
309.193
310.168
311.089
311.952
312.756
313.499
314.182
314.807
315.376
315.893
316.359
316.78
317.159
317.499
317.803
318.075
318.318
318.535
318.727
318.899
319.051
319.186
319.306
319.412
319.507
319.591
319.665
319.732
319.791
319.845
319.893
319.937
319.977
320.014
320.049
320.082
320.113
320.144
320.173
320.203
320.233
320.264
320.295
320.327
320.36
320.395
320.431
320.469
320.509
320.55
320.594
320.639
320.686
320.736
320.787
320.84
320.895
320.953
321.012
321.073
321.135
321.2
321.266
321.334
321.403
321.474
321.546
321.619
321.694
321.769
321.846
321.924
322.002
300.59
301.788
303.016
304.26
305.506
306.74
307.946
309.11
310.224
311.276
312.262
313.178
314.023
314.797
315.501
316.14
316.717
317.236
317.702
318.119
318.492
318.824
319.121
319.385
319.619
319.827
320.012
320.176
320.321
320.45
320.565
320.667
320.757
320.838
320.911
320.975
321.034
321.087
321.135
321.179
321.22
321.259
321.295
321.329
321.363
321.395
321.427
321.459
321.491
321.524
321.557
321.591
321.626
321.662
321.699
321.738
321.778
321.819
321.863
321.907
321.954
322.002
322.051
322.102
322.155
322.209
322.265
322.322
322.38
322.44
322.501
322.564
322.627
322.691
322.757
322.823
322.891
322.959
323.027
323.097
323.167
300.666
302.016
303.397
304.793
306.185
307.554
308.883
310.156
311.361
312.489
313.534
314.493
315.369
316.163
316.879
317.521
318.095
318.608
319.064
319.47
319.831
320.152
320.436
320.688
320.912
321.111
321.287
321.443
321.583
321.707
321.817
321.916
322.005
322.085
322.157
322.223
322.282
322.337
322.388
322.435
322.48
322.522
322.562
322.601
322.639
322.676
322.713
322.749
322.786
322.822
322.86
322.897
322.936
322.975
323.015
323.057
323.099
323.142
323.187
323.232
323.279
323.327
323.376
323.427
323.478
323.531
323.584
323.639
323.694
323.751
323.808
323.866
323.925
323.984
324.044
324.105
324.166
324.228
324.29
324.352
324.415
300.752
302.276
303.831
305.397
306.95
308.466
309.924
311.305
312.597
313.794
314.884
315.871
316.759
317.555
318.266
318.898
319.46
319.959
320.4
320.79
321.136
321.442
321.712
321.953
322.165
322.355
322.523
322.674
322.808
322.929
323.038
323.136
323.225
323.307
323.381
323.45
323.514
323.573
323.629
323.682
323.733
323.781
323.828
323.873
323.918
323.962
324.005
324.048
324.09
324.133
324.176
324.219
324.263
324.307
324.351
324.396
324.441
324.488
324.534
324.582
324.63
324.679
324.729
324.779
324.83
324.882
324.934
324.987
325.04
325.094
325.148
325.202
325.257
325.312
325.368
325.423
325.479
325.535
325.591
325.647
325.703
300.849
302.571
304.323
306.078
307.806
309.476
311.067
312.546
313.902
315.134
316.245
317.24
318.127
318.914
319.61
320.225
320.767
321.245
321.667
322.038
322.365
322.655
322.911
323.139
323.342
323.523
323.685
323.831
323.962
324.082
324.191
324.291
324.383
324.468
324.548
324.622
324.692
324.758
324.822
324.882
324.941
324.997
325.052
325.106
325.158
325.21
325.261
325.311
325.361
325.41
325.46
325.509
325.558
325.607
325.656
325.705
325.754
325.803
325.853
325.902
325.952
326.002
326.053
326.103
326.154
326.205
326.256
326.307
326.358
326.409
326.46
326.511
326.562
326.613
326.664
326.715
326.766
326.817
326.867
326.917
326.967
300.958
302.901
304.872
306.834
308.752
310.565
312.249
313.79
315.186
316.438
317.554
318.542
319.413
320.179
320.852
321.441
321.957
322.41
322.808
323.157
323.465
323.738
323.98
324.196
324.39
324.563
324.721
324.864
324.994
325.114
325.225
325.329
325.425
325.516
325.601
325.682
325.76
325.834
325.905
325.974
326.041
326.106
326.169
326.231
326.291
326.351
326.409
326.467
326.523
326.579
326.635
326.69
326.744
326.797
326.85
326.903
326.955
327.007
327.059
327.111
327.162
327.213
327.263
327.313
327.363
327.413
327.463
327.512
327.561
327.609
327.657
327.705
327.752
327.8
327.846
327.892
327.938
327.984
328.029
328.073
328.117
301.075
303.256
305.467
307.642
309.703
311.618
313.369
314.95
316.362
317.613
318.715
319.68
320.524
321.259
321.899
322.457
322.943
323.368
323.74
324.068
324.357
324.614
324.843
325.048
325.233
325.401
325.555
325.696
325.826
325.948
326.061
326.168
326.268
326.364
326.455
326.543
326.626
326.707
326.786
326.862
326.935
327.007
327.077
327.146
327.212
327.278
327.342
327.406
327.467
327.528
327.588
327.647
327.705
327.762
327.818
327.874
327.928
327.982
328.035
328.087
328.139
328.19
328.24
328.29
328.339
328.388
328.436
328.483
328.529
328.575
328.621
328.665
328.709
328.753
328.796
328.838
328.879
328.92
328.961
329
329.039
301.18
303.584
306.006
308.322
310.481
312.457
314.239
315.827
317.23
318.461
319.535
320.469
321.28
321.982
322.591
323.12
323.579
323.981
324.332
324.642
324.916
325.16
325.378
325.576
325.754
325.918
326.068
326.208
326.337
326.459
326.573
326.682
326.785
326.883
326.978
327.068
327.156
327.241
327.323
327.402
327.48
327.556
327.629
327.701
327.772
327.841
327.908
327.974
328.039
328.102
328.165
328.226
328.286
328.345
328.402
328.459
328.515
328.569
328.623
328.676
328.728
328.779
328.829
328.878
328.927
328.974
329.021
329.067
329.112
329.156
329.2
329.242
329.284
329.325
329.366
329.405
329.444
329.482
329.52
329.556
329.592
379.523
387.45
394.127
399.956
405.138
409.781
413.945
417.664
420.952
423.811
426.229
428.182
429.637
430.545
430.839
430.427
429.181
426.904
423.264
417.603
408.275
401.966
397.137
393.187
389.827
386.896
384.292
381.948
379.814
377.854
376.04
374.352
372.771
371.282
369.875
368.539
367.266
366.049
364.881
363.758
362.674
361.625
360.609
359.621
358.658
357.719
356.801
355.902
355.02
354.154
353.301
352.462
351.634
350.816
350.009
349.209
348.419
347.635
346.858
346.088
345.324
344.566
343.814
343.066
342.324
341.588
340.856
340.13
339.408
338.692
337.981
337.276
336.576
335.882
335.194
334.512
333.836
333.167
332.505
331.85
331.202
330.563
329.931
329.308
328.694
328.089
327.494
326.908
326.333
325.768
325.214
324.671
324.139
323.62
323.111
322.616
322.132
321.66
321.202
320.755
320.322
319.9
319.492
319.096
318.712
318.341
317.982
317.635
317.3
316.976
316.664
316.363
316.073
315.793
315.523
315.263
315.013
314.772
314.54
314.317
314.101
313.893
313.693
313.5
313.314
313.134
312.96
312.792
312.629
312.471
312.319
312.171
312.027
311.887
311.751
311.618
311.489
311.363
311.24
311.119
311.001
310.885
310.772
310.66
310.551
310.443
310.337
310.232
310.129
310.027
309.927
309.828
309.73
309.633
309.537
309.442
309.348
309.255
309.164
309.074
308.986
374.788
381.671
387.876
393.46
398.499
403.053
407.161
410.845
414.113
416.962
419.38
421.343
422.817
423.754
424.093
423.75
422.612
420.522
417.263
412.567
406.389
401.049
396.597
392.827
389.568
386.7
384.139
381.825
379.713
377.771
375.971
374.293
372.72
371.238
369.837
368.506
367.237
366.023
364.859
363.738
362.656
361.61
360.595
359.608
358.647
357.709
356.792
355.894
355.012
354.147
353.295
352.456
351.628
350.811
350.004
349.205
348.415
347.631
346.855
346.085
345.321
344.563
343.811
343.064
342.322
341.585
340.854
340.127
339.406
338.69
337.979
337.274
336.574
335.88
335.192
334.51
333.834
333.165
332.503
331.848
331.2
330.561
329.929
329.306
328.692
328.087
327.492
326.906
326.331
325.766
325.212
324.669
324.138
323.618
323.11
322.614
322.13
321.659
321.2
320.754
320.32
319.899
319.49
319.095
318.711
318.34
317.981
317.634
317.299
316.975
316.663
316.362
316.072
315.792
315.523
315.263
315.013
314.772
314.54
314.316
314.101
313.893
313.693
313.5
313.313
313.134
312.96
312.792
312.629
312.471
312.319
312.171
312.027
311.887
311.751
311.618
311.489
311.363
311.24
311.119
311.001
310.885
310.772
310.66
310.551
310.443
310.337
310.232
310.129
310.028
309.927
309.828
309.73
309.633
309.537
309.442
309.349
309.256
309.164
309.074
308.986
370.707
376.591
382.163
387.341
392.114
396.488
400.472
404.072
407.286
410.105
412.513
414.486
415.991
416.983
417.408
417.195
416.259
414.496
411.8
408.126
403.691
399.387
395.504
392.061
389.004
386.269
383.799
381.552
379.49
377.585
375.815
374.161
372.608
371.142
369.754
368.434
367.174
365.968
364.81
363.695
362.618
361.576
360.564
359.581
358.623
357.687
356.772
355.876
354.997
354.132
353.282
352.444
351.618
350.801
349.995
349.197
348.407
347.624
346.848
346.079
345.315
344.558
343.805
343.059
342.317
341.58
340.849
340.123
339.402
338.686
337.975
337.27
336.57