/*--------------------------------*- C++ -*----------------------------------*\
  =========                 |
  \\      /  F ield         | OpenFOAM: The Open Source CFD Toolbox
   \\    /   O peration     | Website:  https://openfoam.org
    \\  /    A nd           | Version:  7
     \\/     M anipulation  |
\*---------------------------------------------------------------------------*/
FoamFile
{
    version     2.0;
    format      ascii;
    class       volScalarField;
    location    "2.08";
    object      T;
}
// * * * * * * * * * * * * * * * * * * * * * * * * * * * * * * * * * * * * * //

dimensions      [0 0 0 1 0 0 0];

internalField   nonuniform List<scalar> 
12013
(
300.026
300.078
300.132
300.189
300.248
300.31
300.374
300.442
300.512
300.587
300.664
300.745
300.83
300.919
301.013
301.111
301.213
301.321
301.434
301.552
301.676
301.806
301.942
302.085
302.234
302.391
302.556
302.729
302.911
303.101
303.301
303.512
303.733
303.966
304.211
304.469
304.742
305.029
305.333
305.653
305.992
306.351
306.731
307.134
307.561
308.014
308.496
309.009
309.554
310.134
310.753
311.413
312.116
312.868
313.67
314.528
315.446
316.429
317.48
318.607
319.816
321.112
322.504
323.998
325.605
327.334
329.195
331.202
333.367
335.707
338.24
340.988
343.976
347.235
350.804
354.733
359.088
363.963
369.5
375.939
383.738
300.026
300.078
300.132
300.189
300.248
300.31
300.374
300.442
300.512
300.587
300.664
300.745
300.83
300.919
301.013
301.111
301.213
301.321
301.434
301.552
301.676
301.806
301.942
302.085
302.235
302.392
302.556
302.729
302.911
303.101
303.302
303.512
303.733
303.966
304.211
304.47
304.742
305.03
305.333
305.654
305.992
306.351
306.731
307.134
307.561
308.015
308.496
309.009
309.554
310.134
310.752
311.412
312.115
312.866
313.668
314.526
315.443
316.424
317.475
318.601
319.808
321.102
322.492
323.984
325.588
327.312
329.169
331.17
333.328
335.659
338.181
340.913
343.882
347.115
350.649
354.527
358.806
363.56
368.885
374.902
381.716
300.026
300.078
300.132
300.189
300.248
300.31
300.374
300.442
300.513
300.587
300.664
300.745
300.83
300.92
301.013
301.111
301.214
301.321
301.434
301.552
301.676
301.806
301.942
302.085
302.235
302.392
302.557
302.73
302.911
303.102
303.302
303.513
303.734
303.967
304.212
304.47
304.743
305.03
305.334
305.654
305.993
306.352
306.732
307.134
307.561
308.015
308.496
309.008
309.553
310.133
310.751
311.409
312.112
312.862
313.663
314.519
315.435
316.415
317.463
318.586
319.79
321.081
322.465
323.952
325.549
327.265
329.111
331.099
333.241
335.553
338.049
340.75
343.677
346.855
350.314
354.089
358.219
362.749
367.722
373.163
379.029
300.026
300.078
300.132
300.189
300.248
300.31
300.374
300.442
300.513
300.587
300.664
300.745
300.83
300.92
301.013
301.111
301.214
301.321
301.434
301.552
301.676
301.806
301.943
302.086
302.235
302.392
302.557
302.73
302.912
303.103
303.303
303.513
303.735
303.968
304.213
304.472
304.744
305.031
305.335
305.655
305.994
306.353
306.733
307.135
307.562
308.015
308.496
309.008
309.552
310.131
310.748
311.406
312.107
312.856
313.655
314.509
315.422
316.399
317.443
318.562
319.76
321.045
322.422
323.899
325.484
327.186
329.016
330.983
333.1
335.379
337.836
340.486
343.348
346.442
349.788
353.412
357.334
361.574
366.137
371.001
376.09
300.026
300.078
300.132
300.189
300.248
300.31
300.374
300.442
300.513
300.587
300.664
300.745
300.831
300.92
301.013
301.111
301.214
301.322
301.435
301.553
301.677
301.807
301.943
302.086
302.236
302.393
302.558
302.731
302.913
303.104
303.304
303.515
303.736
303.969
304.215
304.473
304.746
305.033
305.336
305.657
305.996
306.354
306.734
307.136
307.563
308.015
308.496
309.007
309.55
310.128
310.744
311.4
312.1
312.846
313.643
314.494
315.403
316.375
317.414
318.526
319.717
320.992
322.357
323.821
325.389
327.072
328.877
330.815
332.895
335.13
337.531
340.111
342.885
345.866
349.069
352.504
356.181
360.1
364.246
368.582
373.04
300.026
300.078
300.132
300.189
300.248
300.31
300.374
300.442
300.513
300.587
300.664
300.745
300.831
300.92
301.013
301.111
301.214
301.322
301.435
301.553
301.678
301.808
301.944
302.087
302.237
302.394
302.559
302.733
302.914
303.105
303.306
303.517
303.738
303.971
304.217
304.475
304.748
305.035
305.339
305.659
305.998
306.356
306.735
307.137
307.563
308.015
308.495
309.005
309.547
310.124
310.738
311.392
312.089
312.833
313.626
314.472
315.376
316.342
317.374
318.477
319.656
320.918
322.269
323.714
325.26
326.916
328.689
330.588
332.621
334.797
337.127
339.62
342.284
345.13
348.162
351.386
354.799
358.39
362.139
366.007
369.943
300.026
300.078
300.132
300.189
300.248
300.31
300.374
300.442
300.513
300.587
300.664
300.746
300.831
300.92
301.014
301.112
301.215
301.323
301.436
301.554
301.678
301.809
301.945
302.088
302.238
302.396
302.561
302.734
302.916
303.107
303.308
303.519
303.741
303.974
304.22
304.478
304.751
305.038
305.342
305.662
306
306.359
306.737
307.139
307.564
308.015
308.494
309.003
309.544
310.118
310.73
311.381
312.075
312.814
313.603
314.443
315.34
316.298
317.32
318.411
319.577
320.822
322.153
323.574
325.093
326.715
328.447
330.297
332.271
334.377
336.621
339.009
341.547
344.239
347.086
350.085
353.229
356.502
359.883
363.34
366.831
300.026
300.078
300.132
300.189
300.248
300.31
300.374
300.442
300.513
300.587
300.664
300.746
300.831
300.92
301.014
301.112
301.215
301.323
301.436
301.555
301.679
301.81
301.946
302.09
302.24
302.398
302.563
302.737
302.919
303.11
303.311
303.522
303.744
303.977
304.223
304.482
304.754
305.042
305.345
305.665
306.004
306.361
306.74
307.141
307.565
308.015
308.493
309
309.538
310.111
310.719
311.367
312.056
312.79
313.572
314.406
315.294
316.241
317.25
318.327
319.475
320.7
322.006
323.398
324.882
326.463
328.146
329.938
331.842
333.865
336.011
338.282
340.681
343.208
345.859
348.63
351.51
354.483
357.529
360.621
363.729
300.025
300.078
300.132
300.189
300.248
300.31
300.374
300.442
300.513
300.587
300.665
300.746
300.831
300.921
301.014
301.113
301.216
301.324
301.437
301.556
301.681
301.811
301.948
302.092
302.242
302.4
302.566
302.739
302.922
303.113
303.314
303.526
303.748
303.981
304.227
304.486
304.759
305.046
305.349
305.669
306.007
306.365
306.742
307.142
307.566
308.015
308.49
308.995
309.531
310.1
310.705
311.348
312.032
312.76
313.534
314.358
315.235
316.169
317.163
318.222
319.349
320.548
321.825
323.182
324.625
326.157
327.784
329.508
331.334
333.264
335.301
337.445
339.696
342.052
344.506
347.053
349.68
352.374
355.115
357.885
360.658
300.025
300.078
300.132
300.189
300.248
300.31
300.374
300.442
300.513
300.587
300.665
300.746
300.832
300.921
301.015
301.113
301.217
301.325
301.438
301.557
301.682
301.813
301.95
302.094
302.245
302.403
302.569
302.743
302.925
303.117
303.319
303.53
303.753
303.986
304.232
304.491
304.764
305.051
305.354
305.674
306.012
306.368
306.745
307.144
307.566
308.013
308.487
308.989
309.522
310.087
310.687
311.325
312.002
312.721
313.486
314.298
315.162
316.081
317.057
318.094
319.196
320.365
321.607
322.924
324.319
325.796
327.358
329.008
330.747
332.577
334.497
336.508
338.607
340.79
343.051
345.381
347.77
350.206
352.673
355.155
357.633
300.025
300.078
300.132
300.189
300.248
300.31
300.374
300.442
300.513
300.587
300.665
300.746
300.832
300.922
301.016
301.114
301.218
301.326
301.44
301.559
301.684
301.815
301.952
302.096
302.248
302.406
302.572
302.747
302.93
303.122
303.324
303.535
303.758
303.992
304.238
304.497
304.77
305.057
305.36
305.679
306.016
306.372
306.748
307.146
307.566
308.011
308.482
308.981
309.509
310.07
310.664
311.295
311.964
312.673
313.427
314.226
315.074
315.974
316.929
317.941
319.013
320.149
321.351
322.622
323.964
325.38
326.871
328.44
330.086
331.809
333.609
335.484
337.431
339.443
341.516
343.641
345.809
348.008
350.228
352.453
354.671
300.025
300.078
300.132
300.188
300.248
300.309
300.374
300.442
300.513
300.587
300.665
300.747
300.832
300.922
301.016
301.115
301.219
301.327
301.441
301.561
301.686
301.817
301.955
302.1
302.251
302.41
302.577
302.751
302.935
303.127
303.329
303.542
303.764
303.999
304.245
304.504
304.777
305.064
305.367
305.685
306.022
306.377
306.751
307.147
307.565
308.007
308.475
308.97
309.494
310.048
310.636
311.258
311.917
312.616
313.356
314.139
314.969
315.848
316.778
317.761
318.8
319.897
321.055
322.275
323.559
324.909
326.325
327.807
329.356
330.97
332.648
334.387
336.183
338.031
339.925
341.858
343.821
345.805
347.801
349.798
351.785
300.025
300.077
300.132
300.188
300.248
300.309
300.374
300.442
300.513
300.587
300.665
300.747
300.833
300.923
301.017
301.116
301.22
301.329
301.443
301.563
301.688
301.82
301.958
302.103
302.255
302.414
302.581
302.757
302.941
303.134
303.336
303.549
303.772
304.006
304.253
304.512
304.785
305.072
305.374
305.692
306.027
306.381
306.754
307.147
307.563
308.002
308.466
308.956
309.474
310.022
310.601
311.214
311.862
312.547
313.271
314.037
314.846
315.701
316.602
317.554
318.556
319.611
320.721
321.886
323.108
324.387
325.723
327.117
328.567
330.071
331.627
333.232
334.883
336.574
338.3
340.054
341.829
343.618
345.413
347.205
348.986
300.025
300.077
300.132
300.188
300.247
300.309
300.374
300.442
300.513
300.587
300.665
300.747
300.833
300.923
301.018
301.117
301.221
301.33
301.445
301.565
301.691
301.823
301.962
302.107
302.26
302.419
302.587
302.763
302.947
303.141
303.344
303.557
303.78
304.015
304.262
304.521
304.793
305.08
305.381
305.699
306.033
306.385
306.756
307.147
307.56
307.995
308.454
308.938
309.45
309.989
310.559
311.161
311.796
312.466
313.173
313.918
314.704
315.532
316.403
317.319
318.281
319.291
320.349
321.456
322.613
323.819
325.074
326.377
327.727
329.122
330.559
332.036
333.548
335.091
336.659
338.249
339.852
341.465
343.079
344.688
346.286
300.025
300.077
300.132
300.188
300.247
300.309
300.374
300.442
300.513
300.587
300.666
300.748
300.834
300.924
301.019
301.118
301.223
301.332
301.447
301.568
301.694
301.827
301.966
302.112
302.265
302.425
302.593
302.77
302.955
303.149
303.352
303.565
303.789
304.024
304.271
304.53
304.803
305.089
305.39
305.706
306.039
306.389
306.758
307.146
307.554
307.985
308.439
308.916
309.42
309.951
310.51
311.099
311.719
312.373
313.06
313.783
314.543
315.341
316.179
317.057
317.976
318.938
319.942
320.989
322.078
323.21
324.383
325.597
326.849
328.137
329.46
330.813
332.194
333.599
335.022
336.461
337.908
339.361
340.813
342.259
343.694
300.025
300.077
300.132
300.188
300.247
300.309
300.374
300.442
300.513
300.587
300.666
300.748
300.834
300.925
301.02
301.12
301.224
301.334
301.45
301.571
301.698
301.831
301.971
302.117
302.271
302.432
302.6
302.777
302.963
303.157
303.361
303.575
303.8
304.035
304.282
304.541
304.813
305.098
305.398
305.713
306.044
306.392
306.758
307.143
307.547
307.972
308.42
308.89
309.385
309.905
310.452
311.027
311.632
312.266
312.932
313.631
314.363
315.13
315.932
316.77
317.644
318.556
319.504
320.49
321.511
322.569
323.661
324.786
325.943
327.129
328.342
329.579
330.838
332.114
333.405
334.705
336.012
337.32
338.627
339.927
341.217
300.025
300.077
300.131
300.188
300.247
300.309
300.374
300.442
300.513
300.587
300.666
300.748
300.835
300.925
301.021
301.121
301.226
301.336
301.452
301.574
301.701
301.835
301.976
302.123
302.277
302.439
302.608
302.786
302.972
303.167
303.372
303.586
303.811
304.046
304.293
304.552
304.824
305.108
305.407
305.721
306.05
306.395
306.757
307.138
307.537
307.957
308.397
308.859
309.344
309.853
310.386
310.946
311.532
312.147
312.79
313.462
314.165
314.898
315.663
316.46
317.288
318.149
319.041
319.964
320.919
321.903
322.915
323.955
325.021
326.11
327.22
328.349
329.494
330.652
331.821
332.996
334.175
335.355
336.531
337.701
338.861
300.025
300.077
300.131
300.188
300.247
300.309
300.373
300.441
300.513
300.587
300.666
300.748
300.835
300.926
301.022
301.122
301.228
301.339
301.455
301.577
301.706
301.84
301.981
302.129
302.284
302.446
302.617
302.795
302.982
303.178
303.383
303.598
303.823
304.058
304.305
304.564
304.835
305.118
305.416
305.727
306.054
306.396
306.755
307.131
307.525
307.937
308.37
308.822
309.296
309.793
310.312
310.855
311.422
312.015
312.633
313.278
313.95
314.649
315.376
316.13
316.912
317.721
318.557
319.42
320.308
321.221
322.157
323.115
324.094
325.091
326.105
327.134
328.175
329.225
330.283
331.345
332.409
333.473
334.532
335.586
336.631
300.025
300.077
300.131
300.187
300.246
300.308
300.373
300.441
300.512
300.587
300.666
300.749
300.836
300.927
301.023
301.124
301.23
301.341
301.458
301.581
301.71
301.845
301.987
302.135
302.291
302.455
302.626
302.805
302.992
303.189
303.394
303.61
303.835
304.071
304.317
304.576
304.846
305.128
305.424
305.734
306.058
306.396
306.751
307.121
307.509
307.914
308.338
308.78
309.242
309.725
310.229
310.754
311.301
311.871
312.464
313.081
313.721
314.385
315.073
315.784
316.519
317.278
318.059
318.862
319.686
320.531
321.394
322.276
323.173
324.085
325.01
325.947
326.892
327.844
328.801
329.762
330.723
331.682
332.638
333.588
334.53
300.025
300.077
300.131
300.187
300.246
300.308
300.372
300.44
300.512
300.587
300.666
300.749
300.836
300.927
301.024
301.125
301.232
301.344
301.461
301.585
301.714
301.85
301.993
302.142
302.299
302.463
302.635
302.815
303.003
303.2
303.407
303.622
303.848
304.083
304.33
304.588
304.857
305.138
305.432
305.739
306.06
306.394
306.744
307.109
307.49
307.887
308.301
308.732
309.182
309.65
310.138
310.644
311.171
311.717
312.284
312.871
313.48
314.108
314.757
315.427
316.116
316.825
317.553
318.299
319.062
319.842
320.637
321.446
322.268
323.102
323.945
324.797
325.655
326.518
327.385
328.254
329.122
329.988
330.851
331.709
332.56
300.025
300.077
300.13
300.187
300.245
300.307
300.372
300.44
300.511
300.586
300.665
300.748
300.836
300.928
301.025
301.126
301.234
301.346
301.464
301.588
301.719
301.855
301.999
302.149
302.307
302.472
302.645
302.825
303.014
303.212
303.419
303.635
303.86
304.096
304.342
304.599
304.867
305.147
305.439
305.743
306.06
306.39
306.735
307.093
307.467
307.855
308.259
308.679
309.116
309.569
310.039
310.527
311.032
311.554
312.095
312.653
313.229
313.823
314.434
315.063
315.708
316.369
317.046
317.737
318.443
319.162
319.893
320.635
321.388
322.149
322.917
323.692
324.472
325.255
326.04
326.827
327.612
328.395
329.175
329.95
330.719
300.025
300.076
300.13
300.186
300.245
300.306
300.371
300.439
300.51
300.586
300.665
300.748
300.836
300.928
301.025
301.127
301.235
301.348
301.467
301.592
301.723
301.861
302.005
302.156
302.315
302.48
302.654
302.836
303.025
303.224
303.431
303.647
303.873
304.108
304.354
304.61
304.877
305.154
305.444
305.745
306.058
306.384
306.722
307.074
307.44
307.819
308.213
308.621
309.043
309.481
309.934
310.402
310.885
311.384
311.899
312.428
312.973
313.533
314.107
314.696
315.298
315.914
316.543
317.183
317.835
318.498
319.17
319.85
320.539
321.234
321.935
322.64
323.349
324.06
324.772
325.484
326.195
326.904
327.61
328.312
329.008
300.025
300.076
300.129
300.185
300.244
300.305
300.37
300.438
300.509
300.584
300.664
300.747
300.835
300.928
301.025
301.128
301.236
301.35
301.469
301.595
301.727
301.865
302.011
302.163
302.322
302.489
302.663
302.846
303.036
303.235
303.442
303.659
303.885
304.12
304.364
304.619
304.884
305.16
305.447
305.744
306.053
306.374
306.707
307.051
307.409
307.779
308.161
308.557
308.966
309.388
309.823
310.272
310.734
311.209
311.698
312.199
312.714
313.241
313.78
314.331
314.893
315.466
316.049
316.642
317.244
317.855
318.472
319.097
319.727
320.362
321.002
321.644
322.289
322.936
323.582
324.229
324.873
325.516
326.156
326.792
327.423
300.025
300.076
300.129
300.184
300.243
300.304
300.368
300.436
300.508
300.583
300.662
300.746
300.834
300.927
301.025
301.128
301.237
301.351
301.471
301.598
301.73
301.869
302.016
302.168
302.329
302.496
302.671
302.854
303.046
303.245
303.453
303.669
303.895
304.129
304.373
304.627
304.89
305.163
305.447
305.741
306.045
306.361
306.687
307.024
307.373
307.733
308.105
308.488
308.883
309.289
309.707
310.137
310.578
311.031
311.494
311.969
312.454
312.95
313.455
313.971
314.495
315.029
315.57
316.119
316.675
317.238
317.806
318.379
318.957
319.538
320.122
320.708
321.296
321.884
322.472
323.06
323.645
324.229
324.81
325.387
325.96
300.025
300.075
300.128
300.183
300.241
300.303
300.367
300.434
300.506
300.581
300.66
300.744
300.832
300.925
301.024
301.127
301.236
301.351
301.472
301.599
301.733
301.873
302.019
302.173
302.334
302.502
302.678
302.862
303.054
303.253
303.461
303.678
303.903
304.137
304.379
304.631
304.893
305.163
305.444
305.734
306.033
306.343
306.663
306.993
307.333
307.683
308.044
308.414
308.795
309.186
309.587
309.998
310.419
310.85
311.289
311.738
312.196
312.662
313.137
313.619
314.109
314.605
315.108
315.617
316.131
316.65
317.173
317.7
318.23
318.763
319.297
319.833
320.369
320.905
321.441
321.976
322.509
323.04
323.568
324.092
324.613
300.025
300.075
300.127
300.182
300.24
300.301
300.364
300.432
300.503
300.578
300.657
300.741
300.83
300.923
301.021
301.125
301.235
301.35
301.472
301.599
301.733
301.874
302.022
302.176
302.338
302.507
302.683
302.867
303.059
303.259
303.467
303.683
303.908
304.141
304.382
304.632
304.891
305.159
305.436
305.722
306.017
306.32
306.634
306.956
307.287
307.628
307.977
308.335
308.703
309.079
309.463
309.857
310.258
310.667
311.085
311.509
311.941
312.38
312.825
313.277
313.734
314.197
314.664
315.136
315.613
316.092
316.575
317.06
317.547
318.036
318.526
319.016
319.507
319.997
320.486
320.974
321.46
321.943
322.424
322.902
323.376
300.024
300.074
300.126
300.181
300.238
300.298
300.362
300.429
300.5
300.575
300.654
300.737
300.826
300.919
301.018
301.122
301.232
301.348
301.47
301.598
301.732
301.874
302.022
302.177
302.339
302.508
302.685
302.87
303.062
303.261
303.469
303.685
303.908
304.14
304.38
304.628
304.885
305.149
305.422
305.704
305.994
306.292
306.598
306.912
307.235
307.566
307.904
308.251
308.605
308.966
309.335
309.711
310.094
310.484
310.88
311.282
311.69
312.103
312.522
312.945
313.373
313.804
314.24
314.679
315.12
315.564
316.01
316.458
316.907
317.357
317.807
318.257
318.706
319.155
319.602
320.048
320.492
320.933
321.372
321.808
322.241
300.024
300.073
300.125
300.179
300.235
300.295
300.358
300.425
300.496
300.57
300.649
300.733
300.821
300.914
301.013
301.117
301.227
301.343
301.466
301.594
301.729
301.871
302.019
302.174
302.337
302.507
302.684
302.868
303.06
303.259
303.466
303.681
303.904
304.134
304.372
304.618
304.871
305.133
305.402
305.679
305.963
306.255
306.554
306.861
307.175
307.496
307.824
308.159
308.5
308.848
309.202
309.562
309.927
310.298
310.674
311.055
311.441
311.83
312.224
312.622
313.022
313.426
313.832
314.241
314.651
315.063
315.477
315.891
316.305
316.72
317.134
317.548
317.961
318.373
318.783
319.191
319.597
320.001
320.402
320.801
321.196
300.024
300.072
300.123
300.176
300.233
300.292
300.354
300.42
300.49
300.565
300.643
300.726
300.815
300.908
301.006
301.111
301.221
301.337
301.459
301.587
301.723
301.864
302.013
302.168
302.331
302.5
302.677
302.861
303.053
303.251
303.458
303.671
303.892
304.121
304.357
304.6
304.85
305.108
305.373
305.645
305.923
306.209
306.501
306.8
307.106
307.417
307.735
308.058
308.387
308.721
309.061
309.405
309.754
310.108
310.465
310.827
311.192
311.56
311.931
312.305
312.681
313.059
313.439
313.82
314.202
314.585
314.969
315.353
315.736
316.119
316.502
316.883
317.263
317.642
318.019
318.393
318.766
319.136
319.503
319.868
320.229
300.023
300.071
300.121
300.174
300.229
300.288
300.349
300.415
300.484
300.558
300.636
300.719
300.806
300.899
300.998
301.101
301.211
301.327
301.449
301.578
301.712
301.854
302.002
302.158
302.32
302.489
302.665
302.849
303.039
303.237
303.442
303.654
303.873
304.099
304.332
304.572
304.819
305.072
305.333
305.599
305.872
306.151
306.437
306.728
307.024
307.326
307.634
307.946
308.263
308.584
308.91
309.24
309.573
309.91
310.25
310.593
310.939
311.287
311.637
311.989
312.343
312.698
313.053
313.41
313.766
314.123
314.48
314.836
315.192
315.546
315.9
316.252
316.603
316.952
317.299
317.643
317.985
318.325
318.662
318.996
319.327
300.023
300.07
300.119
300.171
300.225
300.283
300.344
300.408
300.477
300.55
300.627
300.709
300.796
300.888
300.986
301.09
301.199
301.314
301.436
301.564
301.698
301.839
301.987
302.141
302.303
302.471
302.646
302.828
303.018
303.214
303.417
303.626
303.843
304.066
304.296
304.533
304.775
305.024
305.28
305.541
305.807
306.08
306.357
306.64
306.928
307.221
307.517
307.819
308.124
308.433
308.745
309.061
309.379
309.701
310.024
310.35
310.678
311.007
311.338
311.669
312.002
312.335
312.668
313.002
313.335
313.668
314
314.332
314.662
314.991
315.318
315.644
315.968
316.29
316.609
316.927
317.241
317.553
317.863
318.169
318.472
300.022
300.068
300.116
300.167
300.221
300.277
300.337
300.401
300.468
300.54
300.617
300.698
300.784
300.875
300.972
301.075
301.183
301.298
301.418
301.545
301.679
301.819
301.966
302.119
302.279
302.446
302.619
302.8
302.987
303.181
303.381
303.588
303.802
304.022
304.248
304.48
304.718
304.962
305.211
305.466
305.726
305.991
306.261
306.535
306.814
307.096
307.383
307.673
307.966
308.263
308.562
308.864
309.168
309.474
309.781
310.09
310.401
310.712
311.024
311.337
311.65
311.963
312.275
312.587
312.899
313.209
313.519
313.827
314.134
314.439
314.743
315.044
315.343
315.641
315.935
316.228
316.517
316.804
317.088
317.369
317.647
300.022
300.067
300.114
300.163
300.215
300.271
300.329
300.392
300.458
300.529
300.604
300.684
300.769
300.86
300.955
301.057
301.164
301.277
301.397
301.522
301.654
301.793
301.938
302.09
302.248
302.413
302.584
302.762
302.946
303.137
303.335
303.538
303.748
303.963
304.185
304.412
304.644
304.882
305.125
305.373
305.625
305.882
306.144
306.409
306.678
306.95
307.226
307.504
307.786
308.069
308.355
308.643
308.932
309.223
309.515
309.808
310.101
310.395
310.69
310.984
311.278
311.571
311.864
312.156
312.446
312.736
313.024
313.311
313.595
313.878
314.159
314.438
314.714
314.988
315.26
315.529
315.795
316.059
316.319
316.577
316.831
300.021
300.065
300.11
300.159
300.21
300.264
300.321
300.382
300.447
300.516
300.59
300.669
300.752
300.841
300.936
301.035
301.141
301.253
301.371
301.494
301.625
301.761
301.904
302.053
302.209
302.371
302.54
302.714
302.895
303.082
303.276
303.475
303.679
303.89
304.106
304.327
304.553
304.784
305.02
305.26
305.504
305.752
306.004
306.259
306.518
306.779
307.043
307.309
307.578
307.848
308.12
308.394
308.668
308.944
309.22
309.496
309.773
310.049
310.326
310.602
310.877
311.151
311.425
311.697
311.967
312.237
312.504
312.77
313.033
313.295
313.554
313.811
314.066
314.318
314.567
314.814
315.058
315.3
315.538
315.774
316.006
300.021
300.063
300.107
300.154
300.203
300.256
300.312
300.371
300.435
300.503
300.575
300.652
300.734
300.821
300.913
301.011
301.115
301.225
301.34
301.462
301.59
301.724
301.864
302.01
302.163
302.321
302.486
302.657
302.834
303.016
303.205
303.398
303.598
303.802
304.011
304.226
304.444
304.668
304.895
305.126
305.361
305.599
305.841
306.085
306.332
306.582
306.833
307.086
307.341
307.598
307.855
308.114
308.373
308.632
308.892
309.151
309.41
309.669
309.927
310.185
310.441
310.697
310.95
311.203
311.454
311.702
311.95
312.195
312.437
312.678
312.916
313.152
313.386
313.617
313.845
314.071
314.293
314.513
314.731
314.945
315.157
300.02
300.061
300.103
300.149
300.197
300.248
300.302
300.36
300.422
300.488
300.558
300.633
300.713
300.798
300.889
300.985
301.086
301.194
301.307
301.426
301.55
301.681
301.818
301.961
302.11
302.265
302.425
302.591
302.763
302.94
303.123
303.311
303.503
303.701
303.903
304.109
304.32
304.534
304.752
304.974
305.198
305.426
305.656
305.888
306.123
306.36
306.598
306.837
307.078
307.319
307.561
307.803
308.046
308.288
308.53
308.772
309.014
309.254
309.494
309.732
309.969
310.205
310.439
310.671
310.902
311.13
311.357
311.581
311.804
312.024
312.241
312.456
312.669
312.879
313.086
313.291
313.494
313.693
313.89
314.084
314.275
300.019
300.058
300.1
300.143
300.19
300.239
300.292
300.348
300.408
300.472
300.541
300.614
300.692
300.775
300.863
300.957
301.056
301.161
301.271
301.387
301.509
301.636
301.769
301.908
302.053
302.203
302.359
302.52
302.687
302.858
303.034
303.215
303.401
303.591
303.785
303.983
304.184
304.389
304.597
304.808
305.021
305.237
305.455
305.674
305.895
306.118
306.341
306.566
306.791
307.016
307.242
307.467
307.693
307.918
308.142
308.365
308.588
308.81
309.03
309.249
309.466
309.682
309.896
310.108
310.319
310.527
310.733
310.937
311.139
311.338
311.535
311.729
311.921
312.111
312.298
312.482
312.664
312.843
313.02
313.194
313.365
300.018
300.056
300.096
300.139
300.183
300.231
300.282
300.337
300.395
300.458
300.524
300.596
300.672
300.753
300.839
300.93
301.026
301.128
301.236
301.349
301.467
301.591
301.721
301.856
301.996
302.142
302.293
302.449
302.609
302.775
302.945
303.119
303.297
303.479
303.665
303.854
304.046
304.24
304.438
304.637
304.839
305.042
305.247
305.453
305.66
305.868
306.077
306.286
306.495
306.705
306.913
307.122
307.33
307.537
307.744
307.949
308.153
308.355
308.557
308.756
308.954
309.15
309.344
309.536
309.727
309.915
310.101
310.284
310.465
310.644
310.821
310.995
311.167
311.336
311.503
311.668
311.83
311.989
312.146
312.3
312.452
300.018
300.055
300.093
300.134
300.178
300.224
300.274
300.327
300.384
300.444
300.51
300.579
300.653
300.732
300.816
300.905
300.999
301.099
301.204
301.314
301.429
301.55
301.676
301.808
301.944
302.086
302.232
302.383
302.539
302.699
302.862
303.03
303.201
303.375
303.552
303.733
303.915
304.1
304.287
304.476
304.667
304.858
305.051
305.245
305.439
305.633
305.828
306.022
306.217
306.411
306.604
306.797
306.988
307.179
307.368
307.556
307.742
307.927
308.11
308.292
308.471
308.649
308.824
308.998
309.169
309.338
309.505
309.669
309.832
309.992
310.149
310.304
310.457
310.607
310.755
310.901
311.044
311.184
311.323
311.459
311.592
300.017
300.053
300.091
300.131
300.173
300.218
300.267
300.319
300.375
300.434
300.498
300.566
300.639
300.716
300.799
300.886
300.979
301.076
301.179
301.287
301.4
301.519
301.642
301.771
301.904
302.043
302.185
302.332
302.484
302.638
302.797
302.959
303.124
303.292
303.463
303.636
303.811
303.989
304.167
304.347
304.529
304.711
304.893
305.077
305.26
305.443
305.626
305.809
305.991
306.172
306.353
306.532
306.71
306.887
307.062
307.236
307.408
307.578
307.746
307.913
308.077
308.239
308.399
308.557
308.712
308.866
309.017
309.166
309.312
309.456
309.597
309.737
309.873
310.008
310.14
310.27
310.397
310.522
310.645
310.765
310.883
300.017
300.052
300.089
300.129
300.171
300.215
300.263
300.315
300.37
300.428
300.491
300.559
300.631
300.707
300.789
300.875
300.967
301.063
301.165
301.272
301.384
301.501
301.624
301.751
301.883
302.019
302.16
302.304
302.453
302.605
302.761
302.92
303.082
303.246
303.413
303.582
303.753
303.926
304.1
304.275
304.451
304.628
304.805
304.982
305.159
305.336
305.512
305.688
305.863
306.037
306.209
306.381
306.551
306.72
306.886
307.052
307.215
307.376
307.536
307.693
307.848
308.001
308.152
308.3
308.446
308.59
308.731
308.87
309.007
309.141
309.273
309.402
309.529
309.654
309.777
309.897
310.014
310.13
310.243
310.353
310.462
394.064
402.133
408.911
414.806
420.021
424.664
428.798
432.457
435.653
438.389
440.652
442.418
443.654
444.31
444.322
443.598
442.012
439.369
435.342
429.277
419.535
412.809
407.556
403.173
399.369
395.982
392.909
390.082
387.451
384.981
382.642
380.415
378.281
376.228
374.243
372.317
370.444
368.617
366.831
365.08
363.361
361.671
360.007
358.366
356.746
355.144
353.561
351.993
350.442
348.907
347.388
345.885
344.4
342.933
341.485
340.059
338.655
337.275
335.921
334.594
333.297
332.03
330.796
329.595
328.428
327.298
326.203
325.146
324.126
323.144
322.2
321.293
320.423
319.589
318.791
318.029
317.3
316.604
315.94
315.307
314.703
314.127
313.577
313.053
312.553
312.076
311.62
311.184
310.768
310.368
309.986
309.619
309.267
308.928
308.602
308.289
307.986
307.693
307.411
307.138
306.873
306.617
306.368
306.127
305.892
305.665
305.444
305.228
305.019
304.816
304.618
304.426
304.239
304.057
303.88
303.708
303.541
303.378
303.221
303.068
302.92
302.776
302.637
302.503
302.372
302.247
302.125
302.008
301.895
301.787
301.682
301.582
301.486
301.394
301.305
301.221
301.141
301.064
300.991
300.922
300.856
300.793
300.734
300.678
300.626
300.576
300.53
300.486
300.445
300.407
300.371
300.337
300.306
300.278
300.251
300.226
300.204
300.183
300.163
300.146
300.13
389.306
396.339
402.653
408.308
413.385
417.944
422.025
425.65
428.827
431.554
433.818
435.594
436.849
437.535
437.591
436.935
435.455
432.999
429.351
424.25
417.656
411.898
407.021
402.818
399.116
395.792
392.762
389.966
387.357
384.903
382.578
380.36
378.235
376.188
374.208
372.287
370.418
368.594
366.81
365.061
363.345
361.657
359.994
358.354
356.734
355.134
353.551
351.984
350.434
348.899
347.38
345.877
344.392
342.924
341.477
340.05
338.646
337.266
335.912
334.585
333.287
332.021
330.786
329.585
328.419
327.289
326.194
325.137
324.118
323.136
322.192
321.285
320.415
319.582
318.785
318.022
317.294
316.599
315.935
315.302
314.698
314.123
313.574
313.05
312.55
312.073
311.617
311.182
310.765
310.367
309.984
309.618
309.266
308.927
308.601
308.288
307.985
307.693
307.41
307.137
306.873
306.616
306.368
306.126
305.892
305.665
305.443
305.228
305.019
304.816
304.618
304.426
304.239
304.057
303.88
303.708
303.541
303.379
303.221
303.068
302.92
302.776
302.637
302.503
302.373
302.247
302.125
302.008
301.895
301.787
301.682
301.582
301.486
301.394
301.306
301.221
301.141
301.064
300.991
300.922
300.856
300.793
300.734
300.679
300.626
300.576
300.53
300.486
300.445
300.407
300.371
300.337
300.306
300.278
300.251
300.226
300.204
300.183
300.164
300.146
300.13
385.19
391.23
396.918
402.176
406.994
411.379
415.342
418.888
422.016
424.717
426.974
428.763
430.051
430.793
430.936
430.411
429.133
427.002
423.917
419.837
414.984
410.26
405.95
402.074
398.572
395.38
392.441
389.71
387.15
384.733
382.437
380.242
378.134
376.102
374.134
372.223
370.362
368.545
366.766
365.023
363.31
361.625
359.965
358.328
356.71
355.112
353.53
351.964
350.415
348.88
347.361
345.859
344.373
342.906
341.458
340.031
338.627
337.247
335.892
334.566
333.268
332.001
330.767
329.566
328.4
327.27
326.177