/*--------------------------------*- C++ -*----------------------------------*\
  =========                 |
  \\      /  F ield         | OpenFOAM: The Open Source CFD Toolbox
   \\    /   O peration     | Website:  https://openfoam.org
    \\  /    A nd           | Version:  7
     \\/     M anipulation  |
\*---------------------------------------------------------------------------*/
FoamFile
{
    version     2.0;
    format      ascii;
    class       surfaceScalarField;
    location    "5";
    object      phi;
}
// * * * * * * * * * * * * * * * * * * * * * * * * * * * * * * * * * * * * * //

dimensions      [0 3 -1 0 0 0 0];

internalField   nonuniform List<scalar> 
5457
(
0.198418
0.00158237
0.19648
0.00193734
0.194192
0.00228804
0.191509
0.00268353
0.188428
0.00308113
0.184951
0.00347669
0.181072
0.00387848
0.176779
0.00429391
0.17205
0.00472811
0.166865
0.0051851
0.161197
0.00566837
0.155016
0.00618089
0.148291
0.00672482
0.14099
0.00730118
0.133081
0.00790934
0.124534
0.00854628
0.115329
0.00920573
0.105452
0.00987702
0.0949077
0.0105439
0.0837243
0.0111834
0.0719598
0.0117645
0.0597115
0.0122483
0.0471228
0.0125887
0.0343826
0.0127402
0.0216874
0.0126951
0.0090372
0.0126503
-0.00291648
0.0119537
-0.00847231
0.00555583
-0.0080431
-0.000429214
-0.0080431
0.199928
0.0016542
0.199176
0.00268976
0.197965
0.00349894
0.196332
0.00431666
0.194272
0.00514112
0.191782
0.00596668
0.188855
0.00680538
0.185478
0.00767068
0.181633
0.00857291
0.177298
0.00952039
0.172446
0.0105204
0.167048
0.0115791
0.161071
0.0127014
0.154482
0.01389
0.147247
0.0151443
0.139335
0.0164592
0.130717
0.0178235
0.121377
0.019217
0.111312
0.0206086
0.100542
0.0219531
0.0891179
0.0231889
0.0771303
0.0242359
0.0647243
0.0249947
0.0521168
0.0253478
0.0396563
0.0251556
0.0281061
0.0242005
0.0185954
0.0214643
0.00879751
0.0153537
0.00118365
0.00718465
-0.00685945
0.199781
0.00187362
0.199087
0.00338357
0.197946
0.00463984
0.196409
0.00585322
0.194483
0.00706719
0.192164
0.00828566
0.189447
0.00952273
0.186321
0.0107961
0.182774
0.0121207
0.178785
0.0135092
0.174333
0.0149724
0.169392
0.01652
0.163934
0.0181599
0.157926
0.019897
0.151338
0.0217324
0.144137
0.0236608
0.136291
0.0256688
0.127778
0.0277308
0.118581
0.0298054
0.108703
0.0318309
0.0981713
0.0337207
0.087049
0.0353581
0.0754523
0.0365914
0.0635751
0.037225
0.0517331
0.0369975
0.0403977
0.0355359
0.0297394
0.0321227
0.0191663
0.0259268
0.00959778
0.0167532
0.00273834
0.199703
0.00217054
0.199008
0.00407886
0.197887
0.00576033
0.196376
0.00736409
0.194488
0.00895526
0.192222
0.0105516
0.189575
0.0121704
0.186539
0.013832
0.183105
0.0155551
0.179258
0.0173555
0.174983
0.0192473
0.170261
0.0212425
0.165069
0.0233514
0.159385
0.0255811
0.153184
0.027934
0.146438
0.0304059
0.139124
0.0329831
0.131217
0.035638
0.122698
0.0383245
0.113557
0.0409718
0.1038
0.0434776
0.0934577
0.0457007
0.0825965
0.0474527
0.0713336
0.0484879
0.0598416
0.0484896
0.0483174
0.0470601
0.0368113
0.0436288
0.0251881
0.03755
0.0133357
0.0286056
0.016074
0.199667
0.00250312
0.198964
0.0047821
0.197863
0.00686161
0.196381
0.00884573
0.194533
0.010804
0.192318
0.0127662
0.189734
0.0147541
0.186776
0.0167905
0.183434
0.0188967
0.179698
0.0210912
0.175556
0.0233901
0.170991
0.0258075
0.165987
0.0283551
0.160527
0.0310412
0.154591
0.0338694
0.148161
0.0368363
0.141215
0.0399288
0.133734
0.0431194
0.125697
0.0463612
0.117088
0.0495811
0.107894
0.052671
0.0981154
0.0554797
0.0877654
0.0578027
0.0768793
0.059374
0.0655092
0.0598597
0.0537084
0.0588609
0.0414542
0.0558829
0.0285879
0.0504164
0.0148524
0.042341
0.0309264
0.199653
0.00285031
0.198949
0.00548614
0.197871
0.00793953
0.196427
0.0102899
0.194627
0.0126039
0.192473
0.0149196
0.189964
0.0172637
0.187093
0.0196612
0.183854
0.0221359
0.180237
0.0247083
0.17623
0.0273965
0.171822
0.0302161
0.166997
0.0331798
0.161741
0.036297
0.156038
0.0395721
0.149872
0.0430028
0.143224
0.0465769
0.136074
0.0502687
0.128402
0.0540335
0.120183
0.0578007
0.111388
0.0614654
0.10199
0.0648785
0.0919553
0.0678369
0.0812544
0.0700748
0.0698545
0.0712596
0.057717
0.0709984
0.0447607
0.0688392
0.0308491
0.064328
0.0158731
0.0573171
0.0467995
0.19965
0.00320025
0.198954
0.00618211
0.197904
0.00898913
0.196505
0.0116896
0.194763
0.0143461
0.192681
0.0170016
0.190257
0.0196872
0.187488
0.0224308
0.184366
0.0252579
0.180883
0.0281912
0.177029
0.0312504
0.172792
0.0344526
0.16816
0.0378118
0.163119
0.0413385
0.157653
0.0450383
0.151745
0.0489102
0.145378
0.0529443
0.138529
0.0571181
0.13117
0.0613917
0.12327
0.0657015
0.114783
0.0699521
0.105655
0.0740064
0.095817
0.0776748
0.0851864
0.0807055
0.0736683
0.0827777
0.0611615
0.0835052
0.0475552
0.0824455
0.0327585
0.0791246
0.0167828
0.0732928
0.0635824
0.199655
0.00354559
0.198975
0.00686221
0.197959
0.0100049
0.19661
0.0130382
0.194934
0.0160221
0.192934
0.0190021
0.190608
0.0220132
0.187952
0.025086
0.184963
0.0282478
0.181631
0.0315232
0.177947
0.0349337
0.173902
0.0384978
0.169483
0.0422312
0.164675
0.0461458
0.159464
0.0502491
0.153832
0.0545425
0.147757
0.0590195
0.141212
0.0636627
0.134164
0.0684399
0.126567
0.0732982
0.118362
0.0781572
0.109469
0.0828992
0.0997867
0.0873576
0.0891874
0.0913048
0.0775251
0.0944399
0.0646472
0.0963831
0.0504172
0.0966755
0.034768
0.0947739
0.0177897
0.090271
0.0813721
0.199664
0.00388141
0.199006
0.00752
0.19803
0.0109811
0.196739
0.0143296
0.195137
0.0176241
0.193227
0.0209119
0.191009
0.024231
0.188481
0.0276145
0.185637
0.0310917
0.182471
0.0346888
0.178976
0.038429
0.175141
0.0423326
0.170955
0.046417
0.166405
0.0506961
0.161474
0.05518
0.156143
0.0598737
0.150387
0.0647757
0.144174
0.0698756
0.137462
0.0751513
0.130196
0.0805647
0.122298
0.086055
0.113667
0.0915304
0.104168
0.0968562
0.0936338
0.101839
0.0818645
0.106209
0.0686491
0.109598
0.0538016
0.111523
0.0372362
0.111339
0.0190832
0.108424
0.100455
0.199677
0.00420418
0.199047
0.00815023
0.198116
0.0119124
0.196887
0.0155579
0.195367
0.019145
0.193556
0.0227224
0.191456
0.0263308
0.189066
0.0300052
0.18638
0.0337768
0.183396
0.0376735
0.180104
0.0417201
0.176498
0.0459387
0.172567
0.0503485
0.168297
0.0549661
0.163672
0.0598047
0.158672
0.0648738
0.15327
0.0701782
0.147429
0.0757163
0.141101
0.0814789
0.134221
0.0874453
0.126696
0.0935793
0.118405
0.0998214
0.109184
0.106078
0.0988192
0.112204
0.0870522
0.117976
0.0735894
0.123061
0.058148
0.126964
0.0405515
0.128936
0.0209011
0.128074
0.121356
0.199693
0.00451125
0.199095
0.0087486
0.198213
0.012794
0.197053
0.0167176
0.19562
0.0205783
0.193916
0.0244262
0.191943
0.0283038
0.1897
0.032248
0.187185
0.0362918
0.184395
0.0404644
0.181322
0.0447922
0.177962
0.0492991
0.174304
0.0540064
0.170337
0.0589333
0.166045
0.0640967
0.161408
0.0695111
0.156398
0.0751884
0.150977
0.0811373
0.145093
0.0873628
0.138674
0.0938645
0.131619
0.100634
0.12379
0.107651
0.114996
0.114872
0.104982
0.122217
0.0934185
0.12954
0.0798974
0.136582
0.0639672
0.142895
0.0452342
0.147669
0.0236113
0.149697
0.144968
0.199711
0.00480055
0.199148
0.0093116
0.19832
0.0136216
0.197234
0.0178038
0.195894
0.0219185
0.194303
0.0260166
0.192465
0.0301423
0.190379
0.0343341
0.188044
0.0386265
0.185459
0.0430499
0.182619
0.0476322
0.179519
0.0523987
0.176153
0.0573729
0.172509
0.0625767
0.168575
0.0680305
0.164332
0.0737541
0.159754
0.0797668
0.154803
0.0860876
0.14943
0.0927365
0.14356
0.0997343
0.137091
0.107103
0.129878
0.114864
0.121715
0.123035
0.112314
0.131618
0.101273
0.140582
0.0880445
0.14981
0.0719221
0.159017
0.0520854
0.167506
0.027885
0.173898
0.172853
0.19973
0.00507048
0.199205
0.00983637
0.198435
0.0143915
0.197427
0.0188124
0.196185
0.0231605
0.194713
0.0274877
0.193016
0.0318396
0.191094
0.036256
0.188948
0.0407723
0.186578
0.0454202
0.183982
0.0502287
0.181156
0.0552245
0.178096
0.0604328
0.174795
0.0658778
0.171242
0.0715834
0.167422
0.0775741
0.163313
0.0838759
0.158883
0.0905177
0.154086
0.0975332
0.148857
0.104963
0.143101
0.112859
0.136679
0.121285
0.129392
0.130322
0.120941
0.140069
0.110882
0.150641
0.0985422
0.16215
0.0828999
0.174659
0.0624343
0.187971
0.0351237
0.201208
0.207976
0.199751
0.00531977
0.199266
0.0103206
0.198557
0.015101
0.19763
0.01974
0.19649
0.0243003
0.195142
0.028835
0.193592
0.0333904
0.19184
0.0380074
0.18989
0.0427222
0.187743
0.0475674
0.185399
0.0525726
0.182858
0.0577658
0.180117
0.0631733
0.177174
0.0688212
0.174021
0.0747361
0.170649
0.0809462
0.167042
0.0874829
0.163177
0.0943831
0.159018
0.101692
0.154516
0.109466
0.149594
0.117781
0.144142
0.126737
0.137992
0.136472
0.130885
0.147176
0.122405
0.15912
0.111859
0.172697
0.0980156
0.188503
0.0785347
0.207452
0.0486617
0.231081
0.256638
0.199772
0.00554747
0.19933
0.0107625
0.198684
0.0157474
0.19784
0.0205835
0.196806
0.0253347
0.195586
0.0300547
0.194186
0.0347905
0.19261
0.0395837
0.190861
0.044471
0.188943
0.0494854
0.186859
0.0546571
0.18461
0.0600145
0.182199
0.0655847
0.179625
0.0713951
0.176887
0.0774737
0.173982
0.0838511
0.170903
0.0905623
0.167637
0.0976491
0.164165
0.105163
0.160459
0.113172
0.156474
0.121766
0.152145
0.131066
0.147371
0.141246
0.141994
0.152553
0.13575
0.165364
0.128169
0.180278
0.118309
0.198362
0.103919
0.221842
0.0776856
0.257315
0.334324
0.00365955
-0.00365955
0.00716957
-0.00351002
0.0100742
-0.0029046
0.0123707
-0.0022965
0.0141576
-0.00178694
0.0155393
-0.00138167
0.016606
-0.00106668
0.0174323
-0.000826344
0.0180785
-0.000646154
0.0185922
-0.000513746
0.0190114
-0.000419215
0.0193661
-0.000354719
0.0196799
-0.000313763
0.0199704
-0.000290479
0.0202494
-0.000278996
0.0205224
-0.000273016
0.0207882
-0.000265792
0.0210389
-0.000250706
0.0212615
-0.000222587
0.0214409
-0.000179409
0.0215644
-0.000123502
0.0216257
-6.1347e-05
0.0216294
-3.65925e-06
0.021576
5.34145e-05
0.0214686
0.000107382
0.0213004
0.000168191
0.0210676
0.000232859
0.0207689
0.00029862
0.0204378
0.00033111
0.000254319
0.0033793
-0.00703884
0.00663163
-0.00676236
0.00937021
-0.00564318
0.0116021
-0.0045284
0.013421
-0.00360585
0.0149181
-0.00287877
0.0161687
-0.00231727
0.0172324
-0.00189002
0.0181553
-0.00156905
0.018973
-0.00133149
0.0197132
-0.00115943
0.0203974
-0.0010389
0.0210423
-0.000958661
0.0216608
-0.000908974
0.0222624
-0.000880577
0.0228532
-0.000863874
0.023436
-0.000848581
0.0240096
-0.000824276
0.0245692
-0.000782215
0.0251079
-0.000718075
0.0256186
-0.00063417
0.0260962
-0.000538994
0.0265345
-0.000441942
0.0269334
-0.000345534
0.0272902
-0.00024935
0.0275989
-0.000140512
0.0278455
-1.37588e-05
0.0280146
0.000129529
0.0281324
0.000213331
0.000191521
0.00284146
-0.0098803
0.00546848
-0.00938938
0.00762807
-0.00780277
0.00936754
-0.00626786
0.0107832
-0.00502148
0.011953
-0.00404857
0.012938
-0.00330229
0.013784
-0.00273599
0.0145245
-0.00230963
0.0151854
-0.00199236
0.0157865
-0.00176049
0.0163433
-0.00159571
0.0168681
-0.00148344
0.0173704
-0.0014113
0.0178577
-0.00136788
0.0183354
-0.00134157
0.0188066
-0.00131982
0.0192718
-0.00128947
0.0197284
-0.00123882
0.0201716
-0.0011612
0.0205959
-0.00105847
0.0209981
-0.000941215
0.0213795
-0.000823298
0.0217465
-0.000712578
0.0221048
-0.000607695
0.0224606
-0.000496235
0.0228165
-0.000369684
0.0231681
-0.000222098
0.0234739
-9.25022e-05
-5.80838e-06
0.00224453
-0.0121248
0.00413594
-0.0112808
0.00559824
-0.00926507
0.0067369
-0.00740653
0.00764747
-0.00593205
0.00838981
-0.00479091
0.00900729
-0.00391977
0.00953066
-0.00325937
0.00998006
-0.00275903
0.0103709
-0.00238324
0.0107154
-0.002105
0.0110233
-0.00190358
0.0113024
-0.00176256
0.0115594
-0.00166823
0.0117998
-0.0016083
0.0120288
-0.00157058
0.0122507
-0.0015417
0.012468
-0.0015068
0.0126808
-0.00145164
0.0128862
-0.00136662
0.0130792
-0.00125148
0.0132551
-0.00111707
0.0134129
-0.000981071
0.0135573
-0.00085701
0.0136959
-0.000746331
0.0138361
-0.000636397
0.0139776
-0.000511186
0.0141186
-0.000363093
0.0142295
-0.000203381
-6.78647e-05
0.00154813
-0.013673
0.00262439
-0.012357
0.00332677
-0.00996746
0.00380682
-0.00788658
0.00415008
-0.0062753
0.00439656
-0.00503739
0.00457009
-0.00409331
0.00468903
-0.0033783
0.00476197
-0.00283198
0.00479693
-0.00241819
0.00480036
-0.00210843
0.00477768
-0.00188091
0.00473355
-0.00171843
0.00467236
-0.00160704
0.00459883
-0.00153476
0.00451832
-0.00149008
0.00443654
-0.00145991
0.00435836
-0.00142863
0.00428624
-0.00137953
0.00421878
-0.00129915
0.00414979
-0.0011825
0.0040697
-0.00103697
0.00396823
-0.0008796
0.00383855
-0.000727326
0.00367959
-0.000587373
0.00349852
-0.000455324
0.00330344
-0.000316111
0.00307264
-0.000132292
0.00281554
5.37172e-05
9.85092e-05
0.000745493
-0.0144185
0.000933869
-0.0125454
0.000837892
-0.00987148
0.000633192
-0.00768188
0.000351853
-0.00599397
3.5622e-05
-0.00472116
-0.000304912
-0.00375277
-0.000662744
-0.00302047
-0.00103256
-0.00246216
-0.00140867
-0.00204209
-0.00178674
-0.00173036
-0.00216335
-0.00150429
-0.00253543
-0.00134636
-0.00289992
-0.00124254
-0.00325341
-0.00118128
-0.00359174
-0.00115174
-0.00391066
-0.001141
-0.00420724
-0.00113205
-0.00448138
-0.00110539
-0.00473618
-0.00104435
-0.0049774
-0.00094127
-0.00521189
-0.000802489
-0.00544634
-0.000645155
-0.00568758
-0.000486083
-0.00593984
-0.000335116
-0.00621628
-0.000178882
-0.00652916
-3.22635e-06
-0.00681675
0.000155292
-0.00700304
0.000240011
0.000230924
-0.000207514
-0.0142109
-0.000924867
-0.0118281
-0.00182212
-0.00897423
-0.00276789
-0.00673611
-0.00371832
-0.00504353
-0.00463628
-0.0038032
-0.00550464
-0.00288442
-0.0063259
-0.00219921
-0.00709441
-0.00169364
-0.00780791
-0.00132859
-0.00846667
-0.0010716
-0.00907299
-0.00089797
-0.00963071
-0.00078865
-0.0101445
-0.000728732
-0.0106189
-0.000706862
-0.0110573
-0.000713394
-0.0114616
-0.000736697
-0.0118341
-0.000759541
-0.0121791
-0.000760361
-0.0125034
-0.000720102
-0.0128151
-0.000629509
-0.0131221
-0.000495478
-0.0134287
-0.000338627
-0.0137397
-0.000175018
-0.0140568
-1.8047e-05
-0.0143535
0.000117847
-0.0145929
0.000236133
-0.0147799
0.000342264
-0.0149368
0.000396966
0.000376146
-0.00121655
-0.0129944
-0.00293607
-0.0101085
-0.00467379
-0.00723651
-0.00636509
-0.00504481
-0.00795657
-0.00345205
-0.00941286
-0.0023469
-0.0107135
-0.00158377
-0.0118651
-0.00104761
-0.0128812
-0.000677511
-0.0137794
-0.000430397
-0.0145769
-0.000274102
-0.0152889
-0.000185959
-0.0159289
-0.000148661
-0.0165091
-0.000148502
-0.0170401
-0.000175917
-0.0175293
-0.000224231
-0.0179806
-0.00028534
-0.018397
-0.000343192
-0.0187834
-0.000373937
-0.019148
-0.000355475
-0.0195007
-0.000276805
-0.0198509
-0.000145297
-0.0202004
1.08786e-05
-0.0205276
0.0001522
-0.0208048
0.000259161
-0.0210363
0.000349343
-0.0212389
0.000438694
-0.0214151
0.000518474
-0.0215711
0.000552997
0.000535547
-0.00240858
-0.0105858
-0.00524358
-0.00727355
-0.00789797
-0.00458212
-0.01031
-0.00263275
-0.0124648
-0.00129729
-0.0143763
-0.000435382
-0.0160401
7.99975e-05
-0.0174405
0.000352838
-0.0185931
0.000475011
-0.0195487
0.000525208
-0.0203558
0.00053301
-0.0210516
0.000509844
-0.021664
0.000463778
-0.0222153
0.000402797
-0.0227231
0.000331889
-0.0231989
0.000251591
-0.0236479
0.000163627
-0.0240711
8.00041e-05
-0.0244699
2.48458e-05
-0.0248492
2.38501e-05
-0.0252143
8.8256e-05
-0.0255595
0.000199935
-0.0258732
0.000324538
-0.026155
0.000434068
-0.0264104
0.000514493
-0.0266349
0.000573846
-0.0268272
0.00063098
-0.0269928
0.000684102
-0.0271464
0.00070657
0.000700064
-0.00397478
-0.00661103
-0.00827713
-0.0029712
-0.0121739
-0.000685392
-0.0154095
0.000602927
-0.0179608
0.00125396
-0.0199317
0.00153552
-0.0214687
0.00161703
-0.0227075
0.00159163
-0.0237465
0.00151396
-0.0246337
0.00141243
-0.0254041
0.0013034
-0.0260828
0.0011886
-0.0266878
0.00106877
-0.0272346
0.000949578
-0.027737
0.000834286
-0.0282027
0.000717314
-0.0286311
0.000592019
-0.0290181
0.000467035
-0.0293651
0.000371849
-0.0296824
0.000341099
-0.0299841
0.00038993
-0.0302837
0.000499611
-0.0305847
0.000625473
-0.0308739
0.000723319
-0.0311339
0.000774424
-0.0313542
0.000794212
-0.0315365
0.000813227
-0.0316928
0.000840478
-0.0318431
0.000856819
0.000861999
-0.00624419
-0.000366838
-0.0117142
0.00249882
-0.0160056
0.00360604
-0.0192811
0.00387836
-0.0218251
0.00379796
-0.0238383
0.00354879
-0.0254509
0.00322957
-0.0267555
0.00289623
-0.0278225
0.002581
-0.0287159
0.00230583
-0.0294852
0.00207271
-0.0301606
0.00186395
-0.0307587
0.00166685
-0.031295
0.00148588
-0.0317866
0.00132593
-0.0322436
0.00117433
-0.0326624
0.00101074
-0.0330327
0.000837413
-0.0333541
0.000693204
-0.0336438
0.000630797
-0.033928
0.000674153
-0.0342248
0.000796391
-0.0345332
0.000933859
-0.0348334
0.00102355
-0.0350992
0.00104023
-0.0353151
0.00101007
-0.0354858
0.000983925
-0.0356317
0.000986375
-0.0357762
0.00100139
0.0010188
-0.00788009
0.00751325
-0.0141748
0.0087935
-0.0189433
0.00837458
-0.0225708
0.00750589
-0.0253157
0.00654282
-0.0274006
0.0056337
-0.0290193
0.00484824
-0.0303026
0.0041795
-0.0313332
0.00361162
-0.0321851
0.00315773
-0.0329214
0.00280907
-0.0335749
0.00251736
-0.0341541
0.00224614
-0.0346709
0.0020026
-0.0351474
0.00180251
-0.0355988
0.00162571
-0.0360161
0.00142806
-0.0363772
0.00119845
-0.0366748
0.000990832
-0.0369333
0.000889295
-0.0371935
0.000934328
-0.0374836
0.00108654
-0.0378018
0.00125207
-0.0381182
0.00133995
-0.0383933
0.00131528
-0.0386036
0.00122042
-0.0387586
0.00113889
-0.03889
0.00111781
-0.039026
0.00113735
0.00116803
-0.00943399
0.0169472
-0.0171305
0.0164901
-0.0224673
0.0137113
-0.0261889
0.0112275
-0.0288797
0.0092336
-0.0308403
0.00759434
-0.0323249
0.00633284
-0.0334955
0.00535002
-0.03442
0.00453612
-0.0351733
0.00391103
-0.03584
0.00347584
-0.0364548
0.00313216
-0.0370043
0.00279563
-0.0374872
0.00248552
-0.0379359
0.00225122
-0.0383776
0.00206735
-0.0387961
0.00184662
-0.0391473
0.00154967
-0.0394102
0.00125372
-0.0396199
0.001099
-0.0398424
0.00115682
-0.0401223
0.00136642
-0.0404556
0.00158538
-0.0407971
0.00168142
-0.0410871
0.00160531
-0.0412901
0.00142336
-0.0414215
0.0012703
-0.0415315
0.00122787
-0.041656
0.00126184
0.00130813
-0.0125055
0.0294527
-0.0218069
0.0257915
-0.0271134
0.0190178
-0.0303297
0.0144439
-0.0326582
0.0115621
-0.0342486
0.0091847
-0.0354129
0.00749717
-0.0363755
0.00631259
-0.0371315
0.00529215
-0.0377222
0.00450177
-0.0382786
0.0040322
-0.0388466
0.00370022
-0.0393617
0.00331068
-0.0397917
0.00291553
-0.0401907
0.0026502
-0.0406167
0.00249339
-0.0410455
0.00227541
-0.0413924
0.00189659
-0.0416081
0.00146938
-0.0417439
0.00123475
-0.0419096
0.00132255
-0.0421766
0.0016334
-0.0425352
0.00194397
-0.0429161
0.0020624
-0.0432304
0.00191953
-0.0434227
0.00161573
-0.0435173
0.0013649
-0.0435949
0.00130545
-0.043706
0.0013729
0.00143961
-0.0178352
0.0472879
-0.0290677
0.037024
-0.0335939
0.0235441
-0.0350455
0.0158954
-0.0366941
0.0132107
-0.0375918
0.0100824
-0.0381763
0.00808168
-0.0388966
0.00703285
-0.0394945
0.00589012
-0.0398435
0.00485076
-0.0402213
0.00440999
-0.0407468
0.00422571
-0.0412408
0.00380467
-0.0415988
0.00327351
-0.0419158
0.00296721
-0.0423247
0.00290232
-0.0427901
0.00274083
-0.0431532
0.00225971
-0.043307
0.00162311
-0.0433273
0.00125505
-0.0434058
0.00140111
-0.0436575
0.00188506
-0.0440575
0.00234399
-0.0444995
0.00250434
-0.0448516
0.00227166
-0.0450286
0.00179276
-0.0450645
0.00140082
-0.0450915
0.00133238
-0.0451896
0.00147104
0.00156794
0.207447
0.00576023
0.207034
0.0111751
0.206432
0.01635
0.205647
0.021368
0.204688
0.0262939
0.203561
0.0311821
0.202271
0.03608
0.200825
0.0410294
0.199229
0.0460672
0.197488
0.0512267
0.195607
0.0565379
0.193592
0.0620293
0.191449
0.0677282
0.189182
0.073662
0.186796
0.0798592
0.184296
0.0863512
0.181685
0.0931738
0.178964
0.10037
0.176133
0.107994
0.173191
0.116114
0.170134
0.124823
0.166957
0.134244
0.163654
0.144548
0.160228
0.155979
0.156701
0.168891
0.153167
0.183812
0.149991
0.201538
0.14885
0.222983
0.160534
0.245631
0.2588
0.236057
0.21249
0.00595265
0.212118
0.011548
0.211574
0.0168935
0.210868
0.0220739
0.210008
0.0271544
0.209
0.0321896
0.207853
0.0372271
0.206574
0.0423086
0.20517
0.0474709
0.20365
0.0527467
0.202022
0.0581659
0.200295
0.0637562
0.198479
0.0695442
0.196585
0.0755566
0.194623
0.0818208
0.192607
0.088367
0.190552
0.0952291
0.188474
0.102448
0.186396
0.110072
0.184346
0.118165
0.182363
0.126805
0.18051
0.136097
0.178884
0.146174
0.177658
0.157206
0.177152
0.169396
0.178022
0.182942
0.181683
0.197878
0.190736
0.21393
0.206191
0.230177
0.245695
0.219296
0.217658
0.00612259
0.217329
0.011877
0.21685
0.0173722
0.21623
0.0226936
0.215478
0.0279068
0.214601
0.0330662
0.213609
0.0382193
0.21251
0.0434072
0.211315
0.0486663
0.210033
0.0540283
0.208677
0.0595221
0.207259
0.0651743
0.205793
0.0710099
0.204296
0.0770536
0.202787
0.0833306
0.201286
0.0898677
0.19982
0.0966946
0.198423
0.103845
0.197135
0.11136
0.196013
0.119287
0.195135
0.127684
0.194613
0.136618
0.19462
0.146168
0.195416
0.156409
0.197414
0.167398
0.201223
0.179133
0.207614
0.191487
0.217247
0.204297
0.229844
0.21758
0.228759
0.24678
0.222951
0.00626805
0.22267
0.0121583
0.222262
0.0177804
0.221735
0.0232199
0.2211
0.0285424
0.220364
0.0338018
0.219539
0.0390449
0.218634
0.0443123
0.217661
0.0496389
0.216634
0.0550556
0.215566
0.0605896
0.214475
0.0662654
0.213379
0.072106
0.212299
0.078133
0.211262
0.084368
0.210297
0.0908329
0.209441
0.0975507
0.208739
0.104547
0.208251
0.111848
0.208053
0.119485
0.208247
0.12749
0.208973
0.135892
0.210425
0.144715
0.212867
0.153967
0.216644
0.163621
0.222177
0.1736
0.229914
0.18375
0.240427
0.193783
0.254634
0.203373
0.210266
0.273128
0.228374
0.00638717
0.228144
0.0123883
0.227812
0.018113
0.227385
0.0236462
0.226875
0.0290531
0.226289
0.034387
0.225641
0.0396935
0.224941
0.045012
0.224204
0.0503763
0.223444
0.0558153
0.222679
0.0613542
0.22193
0.0670151
0.221218
0.072818
0.22057
0.0787809
0.220017
0.0849204
0.219598
0.0912527
0.219356
0.0977928
0.219347
0.104556
0.21964
0.111554
0.220325
0.118801
0.221513
0.126302
0.223349
0.134055
0.226019
0.142045
0.229754
0.150233
0.234832
0.158543
0.241583
0.166849
0.250385
0.174947
0.261685
0.182483
0.275956
0.189102
0.193718
0.292503
0.233929
0.00647828
0.233754
0.0125638
0.233502
0.0183652
0.233181
0.0239666
0.232802
0.029432
0.232376
0.0348136
0.231913
0.0401559
0.231429
0.0454967
0.230937
0.0508679
0.230456
0.0562964
0.230005
0.0618051
0.229607
0.0674131
0.229288
0.0731368
0.229079
0.07899
0.229016
0.0849842
0.22914
0.0911286
0.229502
0.0974304
0.230164
0.103893
0.2312
0.110518
0.232702
0.117299
0.234781
0.124223
0.237573
0.131263
0.241242
0.138377
0.24598
0.145495
0.252008
0.152515
0.259568
0.15929
0.268902
0.165614
0.280188
0.171197
0.293523
0.175768
0.178812
0.308429
0.23962
0.00653987
0.239502
0.0126819
0.239334
0.018533
0.239125
0.0241757
0.238884
0.0296727
0.238623
0.0350747
0.238354
0.0404246
0.238093
0.0457583
0.237855
0.0511057
0.23766
0.0564913
0.23753
0.0619353
0.237489
0.0674537
0.237567
0.0730589
0.237797
0.0787603
0.238217
0.084564
0.238873
0.0904727
0.239818
0.0964853
0.241115
0.102596
0.242838
0.108795
0.245076
0.115062
0.24793
0.121368
0.251521
0.127672
0.255985
0.133913
0.261469
0.14001
0.268132
0.145853
0.276122
0.151299
0.28556
0.156176
0.296491
0.160266
0.308904
0.163354
0.165175
0.322541
0.245448
0.00657068
0.24539
0.0127402
0.24531
0.0186129
0.245216
0.0242693
0.245119
0.0297703
0.245029
0.0351649
0.244959
0.0404938
0.244927
0.0457912
0.244948
0.0510844
0.245043
0.0563956
0.245237
0.0617419
0.245555
0.067136
0.246027
0.0725866
0.246689
0.0780986
0.24758
0.0836728
0.248747
0.0893059
0.250242
0.0949899
0.252127
0.100711
0.254472
0.10645
0.257356
0.112178
0.260868
0.117856
0.265108
0.123432
0.270179
0.128842
0.276188
0.134001
0.283236
0.138806
0.291402
0.143133
0.300734
0.146844
0.31122
0.149779
0.322795
0.15178
0.152716
0.335254
0.251418
0.0065697
0.251422
0.0127367
0.251432
0.0186022
0.251457
0.0242441
0.251507
0.0297211
0.251591
0.0350801
0.251725
0.0403599
0.251924
0.045592
0.252207
0.0508017
0.252595
0.0560083
0.253111
0.0612259
0.253783
0.0664641
0.254641
0.0717278
0.255722
0.0770178
0.257065
0.0823304
0.258713
0.0876571
0.260719
0.0929842
0.263138
0.0982923
0.266033
0.103555
0.269473
0.108738
0.27353
0.113799
0.27828
0.118682
0.2838
0.123323
0.290158
0.127643
0.297411
0.131553
0.305592
0.134951
0.314705
0.137731
0.324702
0.139782
0.335485
0.140997
0.141318
0.346882
0.257532
0.00653617
0.257599
0.0126701
0.257702
0.018499
0.257849
0.0240978
0.258047
0.0295227
0.258309
0.0348183
0.258648
0.040021
0.25908
0.04516
0.259623
0.0502579
0.2603
0.0553315
0.261134
0.0603921
0.262152
0.0654461
0.263384
0.0704953
0.264866
0.0755366
0.266634
0.0805626
0.26873
0.0855607
0.271201
0.0905134
0.274096
0.0953972
0.277468
0.100182
0.281375
0.104832
0.285871
0.109302
0.291013
0.11354
0.296849
0.117486
0.303421
0.121072
0.310751
0.124222
0.318843
0.12686
0.327668
0.128906
0.337164
0.130287
0.347224
0.130937
0.130835
0.357707
0.263794
0.00646964
0.263925
0.0125394
0.264122
0.0183021
0.26439
0.0238292
0.264739
0.029174
0.265178
0.0343788
0.265722
0.0394774
0.266386
0.0444965
0.267187
0.0494564
0.268148
0.0543711
0.26929
0.0592493
0.270642
0.0640947
0.272231
0.0689061
0.27409
0.0736779
0.276253
0.0783994
0.278758
0.0830554
0.281646
0.0876258
0.284958
0.0920851
0.288738
0.0964025
0.293028
0.100541
0.297871
0.10446
0.303301
0.10811
0.309349
0.111438
0.316031
0.11439
0.323348
0.116905
0.331282
0.118926
0.33979
0.120398
0.348801
0.121275
0.358218
0.12152
0.121133
0.367921
0.270207
0.00636992
0.270402
0.0123444
0.270693
0.0180113
0.271084
0.0234381
0.271582
0.0286755
0.272198
0.0337628
0.272944
0.0387314
0.273835
0.0436055
0.274889
0.0484029
0.276124
0.0531353
0.277565
0.0578091
0.279234
0.0624255
0.281159
0.0669812
0.283368
0.0714682
0.285894
0.075874
0.288767
0.0801819
0.292023
0.0843704
0.295694
0.088414
0.299814
0.0922824
0.304414
0.0959413
0.309521
0.0993525
0.315156
0.102474
0.321331
0.105263
0.328047
0.107674
0.335289
0.109663
0.343027
0.111188
0.35121
0.112215
0.35977
0.112715
0.368617
0.112673
0.112098
0.377652
0.276774
0.00623711
0.277033
0.0120852
0.277417
0.017627
0.277929
0.0229257
0.278576
0.0280289
0.279366
0.0329731
0.28031
0.0377872
0.281423
0.042493
0.28272
0.0471058
0.28422
0.0516355
0.285943
0.0560861
0.287911
0.0604572
0.290148
0.0647437
0.29268
0.0689362
0.295533
0.0730213
0.298733
0.0769814
0.302308
0.0807955
0.306284
0.0844387
0.310683
0.0878831
0.315526
0.0910978
0.320829
0.0940496
0.3266
0.0967039
0.332838
0.0990255
0.339532
0.10098
0.346658
0.102536
0.35418
0.103666
0.362046
0.104349
0.370191
0.104571
0.378536
0.104327
0.103636
0.386998
0.283498
0.00607159
0.283821
0.0117628
0.284297
0.0171505
0.284929
0.022294
0.285721
0.0272372
0.28668
0.032014
0.287816
0.0366506
0.289143
0.0411667
0.290673
0.0455755
0.292424
0.0498847
0.294413
0.054097
0.296659
0.0582105
0.299184
0.0622188
0.302009
0.0661121
0.305153
0.0698764
0.30864
0.0734947
0.312489
0.0769469
0.316717
0.0802102
0.321341
0.0832595
0.32637
0.0860682
0.331811
0.0886086
0.337663
0.0908527
0.343914
0.0927737
0.350548
0.0943467
0.357534
0.09555
0.364834
0.0963668
0.372396
0.0967861
0.380163
0.0968042
0.388066
0.0964245
0.0956675
0.396035
0.290384
0.00587401
0.290768
0.0113783
0.291335
0.016584
0.292083
0.0215458
0.293016
0.0263045
0.294139
0.030891
0.29546
0.0353291
0.296991
0.0396363
0.298742
0.0438238
0.300729
0.047898
0.302966
0.0518601
0.305469
0.0557072
0.308256
0.0594325
0.311342
0.0630259
0.314744
0.0664739
0.318478
0.0697606
0.322558
0.0728675
0.326994
0.0757744
0.331793
0.0784597
0.33696
0.0809012
0.342493
0.0830765
0.348381
0.0849641
0.354611
0.0865443
0.361157
0.0878
0.36799
0.0887176
0.375068
0.0892881
0.382347
0.089508
0.389771
0.0893798
0.397284
0.0889117
0.0881249
0.404826
0.297435
0.00564522
0.297879
0.0109335
0.298533
0.0159301
0.299394
0.0206851
0.300463
0.0252359
0.301743
0.0296109
0.303241
0.0338313
0.304964
0.0379125
0.306924
0.0418642
0.309131
0.0456914
0.311596
0.0493944
0.314334
0.0529698
0.317355
0.0564107
0.320674
0.0597072
0.324301
0.062847
0.328246
0.0658153
0.332518
0.0685961
0.33712
0.071172
0.342055
0.0735249
0.347319
0.075637
0.352904
0.077491
0.358798
0.0790709
0.364979
0.0803632
0.371422
0.0813568
0.378095
0.0820446
0.38496
0.0824232
0.391974
0.0824942
0.399089
0.082264
0.406258
0.0817433
0.080953
0.41343
0.304654
0.00538629
0.305157
0.0104306
0.305895
0.015192
0.306864
0.0197163
0.308062
0.0240376
0.309492
0.0281813
0.311157
0.0321666
0.313062
0.0360069
0.315216
0.0397107
0.317625
0.0432816
0.3203
0.0467195
0.323249
0.0500208
0.326481
0.0531788
0.330004
0.0561843
0.333825
0.0590263
0.337948
0.0616919
0.342377
0.0641673
0.347111
0.0664381
0.352146
0.0684898
0.357474
0.0703085
0.363084
0.0718814
0.368957
0.0731975
0.375073
0.0742478
0.381403
0.0750265
0.387917
0.0755309
0.394578
0.0757617
0.401349
0.0757238
0.408187
0.0754257
0.415051
0.0748796
0.074105
0.421899
0.312046
0.00509844
0.312605
0.00987179
0.313424
0.0143733
0.314495
0.0186445
0.315817
0.0227159
0.317388
0.0266105
0.319209
0.0303452
0.321284
0.0339319
0.323617
0.0373776
0.326214
0.0406854
0.329078
0.0438547
0.332217
0.0468818
0.335635
0.0497608
0.339336
0.0524834
0.343323
0.05504
0.347595
0.0574196
0.352151
0.0596109
0.356987
0.0616023
0.362094
0.0633826
0.367461
0.0649415
0.373073
0.0662699
0.37891
0.0673608
0.384948
0.0682091
0.391162
0.0688127
0.397521
0.0691721
0.403992
0.0692908
0.41054
0.0691757
0.417129
0.0688364
0.423723
0.0682853
0.0675406
0.430288
0.319615
0.00478299
0.320227
0.00925981
0.321122
0.0134781
0.322292
0.0174749
0.32373
0.0212778
0.325433
0.024907
0.327401
0.0283776
0.329633
0.0316997
0.332131
0.0348794
0.334898
0.0379192
0.337934
0.0408182
0.341243
0.0435733
0.344825
0.0461789
0.34868
0.0486281
0.352807
0.0509127
0.357203
0.0530237
0.361862
0.0549522
0.366775
0.056689
0.371932
0.0582258
0.377318
0.0595555
0.382916
0.0606722
0.388705
0.0615718
0.394662
0.0622524
0.40076
0.0627143
0.406972
0.0629605
0.413266
0.0629961
0.419613
0.062829
0.42598
0.0624693
0.432336
0.0619291
0.0612246
0.438652
0.327365
0.00444129
0.328027
0.00859732
0.328995
0.0125103
0.330257
0.0162132
0.331804
0.0197303
0.333632
0.0230796
0.335735
0.026274
0.338113
0.0293224
0.340762
0.0322299
0.343683
0.0349985
0.346874
0.0376274
0.350333
0.0401138
0.354059
0.042453
0.358048
0.0446393
0.362295
0.0466658
0.366793
0.0485255
0.371534
0.0502115
0.376506
0.051717
0.381695
0.0530362