/*--------------------------------*- C++ -*----------------------------------*\
  =========                 |
  \\      /  F ield         | OpenFOAM: The Open Source CFD Toolbox
   \\    /   O peration     | Website:  https://openfoam.org
    \\  /    A nd           | Version:  7
     \\/     M anipulation  |
\*---------------------------------------------------------------------------*/
FoamFile
{
    version     2.0;
    format      ascii;
    class       surfaceVectorField;
    location    "5";
    object      Uf;
}
// * * * * * * * * * * * * * * * * * * * * * * * * * * * * * * * * * * * * * //

dimensions      [0 1 -1 0 0 0 0];

internalField   nonuniform List<vector> 
5457
(
(9.92088 0.0251096 0)
(9.97125 0.0387458 0)
(9.82401 0.0328268 0)
(9.92859 0.0485851 0)
(9.70961 0.039312 0)
(9.85548 0.0587681 0)
(9.57544 0.0460116 0)
(9.7568 0.0705934 0)
(9.42138 0.052949 0)
(9.63753 0.0830135 0)
(9.24755 0.0601663 0)
(9.49861 0.0959366 0)
(9.05362 0.067811 0)
(9.3393 0.109613 0)
(8.83893 0.0760346 0)
(9.15874 0.124289 0)
(8.60252 0.0849703 0)
(8.95609 0.140167 0)
(8.34327 0.094745 0)
(8.73038 0.157434 0)
(8.05985 0.105487 0)
(8.48041 0.17627 0)
(7.7508 0.117328 0)
(8.20477 0.196857 0)
(7.41456 0.130396 0)
(7.90195 0.219362 0)
(7.0495 0.144811 0)
(7.57031 0.243924 0)
(6.65404 0.160673 0)
(7.20819 0.270634 0)
(6.22672 0.178045 0)
(6.814 0.299502 0)
(5.76644 0.196929 0)
(6.38634 0.330416 0)
(5.27258 0.217234 0)
(5.92418 0.363086 0)
(4.74539 0.238737 0)
(5.42712 0.396978 0)
(4.18622 0.261033 0)
(4.89567 0.431239 0)
(3.59799 0.283489 0)
(4.33166 0.464621 0)
(2.98558 0.305203 0)
(3.73863 0.495426 0)
(2.35614 0.32507 0)
(3.1223 0.521514 0)
(1.71913 0.342549 0)
(2.4911 0.540559 0)
(1.08437 0.361882 0)
(1.85588 0.551675 0)
(0.45186 0.34869 0)
(1.24551 0.563021 0)
(-0.145824 0.102473 0)
(0.608945 0.544889 0)
(-0.423616 -0.207097 0)
(0.0946716 0.259379 0)
(-0.402155 -0.361265 0)
(-0.133654 -0.020523 0)
(-0.119681 -0.393886 0)
(9.99641 0.0516724 0)
(9.99705 0.0405046 0)
(9.95879 0.0708615 0)
(9.97851 0.0674544 0)
(9.89824 0.0879868 0)
(9.93377 0.0898699 0)
(9.81659 0.105985 0)
(9.86453 0.113555 0)
(9.71359 0.124922 0)
(9.77438 0.138515 0)
(9.58909 0.144854 0)
(9.66435 0.164646 0)
(9.44274 0.16609 0)
(9.53397 0.192332 0)
(9.2739 0.188967 0)
(9.3825 0.222031 0)
(9.08166 0.213783 0)
(9.20919 0.254149 0)
(8.8649 0.240816 0)
(9.01316 0.289064 0)
(8.6223 0.270337 0)
(8.79331 0.327153 0)
(8.35239 0.302608 0)
(8.54836 0.368787 0)
(8.05356 0.337858 0)
(8.27683 0.414318 0)
(7.72412 0.376264 0)
(7.97717 0.464048 0)
(7.36237 0.417904 0)
(7.64772 0.518191 0)
(6.96673 0.46271 0)
(7.28683 0.576809 0)
(6.53584 0.510389 0)
(6.89296 0.639728 0)
(6.06884 0.560335 0)
(6.46482 0.70643 0)
(5.5656 0.611523 0)
(6.00161 0.775912 0)
(5.02711 0.662387 0)
(5.50327 0.846526 0)
(4.45589 0.71071 0)
(4.9709 0.915809 0)
(3.85652 0.753541 0)
(4.4072 0.980309 0)
(3.23622 0.787198 0)
(3.81706 1.03546 0)
(2.60584 0.807503 0)
(3.20848 1.07549 0)
(1.98282 0.810468 0)
(2.59341 1.09315 0)
(1.4053 0.776901 0)
(1.99623 1.07709 0)
(0.929771 0.646408 0)
(1.41952 0.978416 0)
(0.439876 0.38435 0)
(0.937588 0.716805 0)
(0.0591825 -0.118603 0)
(0.443811 0.343536 0)
(0.174924 -0.33592 0)
(9.98903 0.0594308 0)
(9.99481 0.0458774 0)
(9.95434 0.0894765 0)
(9.97368 0.0848541 0)
(9.89729 0.118032 0)
(9.92984 0.119174 0)
(9.82046 0.147898 0)
(9.86357 0.153976 0)
(9.72416 0.179422 0)
(9.77736 0.190408 0)
(9.60821 0.212775 0)
(9.67227 0.228637 0)
(9.47234 0.248392 0)
(9.5481 0.269129 0)
(9.31607 0.286774 0)
(9.40432 0.312497 0)
(9.13868 0.328397 0)
(9.24034 0.359326 0)
(8.93925 0.373722 0)
(9.05549 0.410174 0)
(8.71664 0.423206 0)
(8.84889 0.465598 0)
(8.4696 0.477295 0)
(8.61951 0.526152 0)
(8.19668 0.536398 0)
(8.36615 0.592372 0)
(7.89632 0.600841 0)
(8.08752 0.664737 0)
(7.56692 0.670808 0)
(7.7822 0.743616 0)
(7.20684 0.746254 0)
(7.44873 0.829187 0)
(6.81457 0.82678 0)
(7.08569 0.921316 0)
(6.38888 0.91148 0)
(6.69171 1.0194 0)
(5.92905 0.998755 0)
(6.26573 1.12217 0)
(5.43516 1.08609 0)
(5.80713 1.22742 0)
(4.90857 1.16982 0)
(5.31609 1.33174 0)
(4.35245 1.24489 0)
(4.794 1.43019 0)
(3.77261 1.30455 0)
(4.244 1.51588 0)
(3.17875 1.33984 0)
(3.67184 1.57943 0)
(2.58666 1.33812 0)
(3.08635 1.60775 0)
(2.01989 1.27298 0)
(2.50295 1.58159 0)
(1.48697 1.09542 0)
(1.92876 1.46426 0)
(0.958315 0.769184 0)
(1.38527 1.21042 0)
(0.479889 0.202471 0)
(0.829556 0.801057 0)
(0.433738 0.134102 0)
(9.98515 0.0716138 0)
(9.99367 0.0531478 0)
(9.95039 0.11363 0)
(9.97087 0.102291 0)
(9.89436 0.154133 0)
(9.92691 0.147953 0)
(9.81882 0.195573 0)
(9.86185 0.193721 0)
(9.72442 0.238811 0)
(9.77746 0.241277 0)
(9.61112 0.284324 0)
(9.67467 0.291164 0)
(9.47874 0.33272 0)
(9.55343 0.343956 0)
(9.32695 0.384674 0)
(9.41336 0.400372 0)
(9.15523 0.440846 0)
(9.254 0.461139 0)
(8.96291 0.501883 0)
(9.07484 0.526961 0)
(8.74916 0.568427 0)
(8.8752 0.598535 0)
(8.51304 0.641111 0)
(8.65429 0.676561 0)
(8.25346 0.720529 0)
(8.41122 0.761719 0)
(7.96926 0.807188 0)
(8.14499 0.854634 0)
(7.65918 0.901434 0)
(7.85454 0.955816 0)
(7.32192 1.00334 0)
(7.53875 1.06557 0)
(6.95621 1.11257 0)
(7.19646 1.18384 0)
(6.56085 1.22813 0)
(6.82653 1.31007 0)
(6.1349 1.34816 0)
(6.4279 1.44291 0)
(5.67786 1.46959 0)
(5.99968 1.5799 0)
(5.19002 1.58777 0)
(5.54136 1.71708 0)
(4.67289 1.69602 0)
(5.05307 1.84853 0)
(4.12982 1.78515 0)
(4.53599 1.96583 0)
(3.56668 1.84253 0)
(3.99276 2.0573 0)
(2.99208 1.85073 0)
(3.42763 2.10714 0)
(2.41587 1.78249 0)
(2.84766 2.09449 0)
(1.84057 1.60047 0)
(2.25626 1.98875 0)
(1.2594 1.27845 0)
(1.66034 1.75306 0)
(0.666783 0.789559 0)
(1.02398 1.36778 0)
(0.523041 0.787175 0)
(9.98337 0.0844072 0)
(9.99316 0.0612913 0)
(9.94821 0.136837 0)
(9.96958 0.119927 0)
(9.89314 0.188032 0)
(9.92575 0.17624 0)
(9.81906 0.240168 0)
(9.86199 0.232698 0)
(9.72663 0.294467 0)
(9.77964 0.291087 0)
(9.6159 0.351659 0)
(9.6794 0.352273 0)
(9.48671 0.412469 0)
(9.56128 0.416976 0)
(9.33879 0.477675 0)
(9.42497 0.486007 0)
(9.1717 0.548049 0)
(9.27009 0.560203 0)
(8.98492 0.624352 0)
(9.0962 0.640385 0)
(8.77778 0.707341 0)
(8.90274 0.727365 0)
(8.54953 0.797761 0)
(8.68907 0.821953 0)
(8.29935 0.896322 0)
(8.45444 0.924938 0)
(8.02634 1.00365 0)
(8.19807 1.03705 0)
(7.72957 1.1202 0)
(7.91912 1.15891 0)
(7.40805 1.24616 0)
(7.61669 1.29092 0)
(7.06077 1.38126 0)
(7.28985 1.43314 0)
(6.6867 1.52458 0)
(6.93763 1.5851 0)
(6.28486 1.67418 0)
(6.55899 1.74549 0)
(5.85439 1.82678 0)
(6.15288 1.91188 0)
(5.39472 1.97725 0)
(5.71823 2.08016 0)
(4.90577 2.11805 0)
(5.25409 2.24408 0)
(4.38827 2.2386 0)
(4.75975 2.3946 0)
(3.84397 2.32454 0)
(4.23497 2.51919 0)
(3.27546 2.35695 0)
(3.67991 2.60124 0)
(2.68542 2.3106 0)
(3.09575 2.61971 0)
(2.07271 2.15502 0)
(2.48171 2.54733 0)
(1.42939 1.86742 0)
(1.83994 2.35374 0)
(0.742621 1.41959 0)
(1.13138 2.02455 0)
(0.543312 1.51453 0)
(9.98264 0.0974974 0)
(9.99299 0.0697926 0)
(9.94744 0.159774 0)
(9.96925 0.137583 0)
(9.89354 0.221347 0)
(9.92597 0.203926 0)
(9.82134 0.284091 0)
(9.86381 0.270687 0)
(9.73134 0.349347 0)
(9.78386 0.339582 0)
(9.62367 0.418018 0)
(9.68665 0.411696 0)
(9.49819 0.490937 0)
(9.57218 0.487901 0)
(9.35465 0.568972 0)
(9.44021 0.569103 0)
(9.19269 0.653002 0)
(9.29043 0.656232 0)
(9.01183 0.743895 0)
(9.12242 0.750211 0)
(8.81151 0.842513 0)
(8.93571 0.851954 0)
(8.59108 0.949705 0)
(8.72972 0.962363 0)
(8.34985 1.06628 0)
(8.50381 1.08232 0)
(8.08706 1.19296 0)
(8.25728 1.21264 0)
(7.80192 1.3303 0)
(7.98937 1.35404 0)
(7.49359 1.47859 0)
(7.69929 1.50702 0)
(7.16119 1.63768 0)
(7.38617 1.67176 0)
(6.80372 1.80674 0)
(7.04903 1.84791 0)
(6.42011 1.98396 0)
(6.68675 2.03435 0)
(6.00913 2.16613 0)
(6.29802 2.22883 0)
(5.56942 2.3481 0)
(5.8812 2.42747 0)
(5.09948 2.5222 0)
(5.43435 2.62425 0)
(4.59776 2.67756 0)
(4.95513 2.81029 0)
(4.06272 2.79949 0)
(4.44087 2.97322 0)
(3.49272 2.86911 0)
(3.88854 3.09663 0)
(2.88585 2.86293 0)
(3.29525 3.15991 0)
(2.23804 2.75395 0)
(2.65692 3.13792 0)
(1.54246 2.52106 0)
(1.97486 3.00321 0)
(0.793657 2.13137 0)
(1.20725 2.74063 0)
(0.556743 2.29186 0)
(9.9825 0.110626 0)
(9.99302 0.0783611 0)
(9.9477 0.182324 0)
(9.96954 0.155037 0)
(9.89522 0.253816 0)
(9.92722 0.230885 0)
(9.82524 0.326766 0)
(9.86697 0.307508 0)
(9.73813 0.402553 0)
(9.78978 0.386521 0)
(9.63403 0.482232 0)
(9.69605 0.469146 0)
(9.51285 0.566755 0)
(9.58579 0.556395 0)
(9.37438 0.65709 0)
(9.4588 0.649268 0)
(9.21828 0.75421 0)
(9.3148 0.748784 0)
(9.04414 0.859081 0)
(9.15346 0.855959 0)
(8.85145 0.972659 0)
(8.97434 0.971797 0)
(8.63962 1.09588 0)
(8.7769 1.09729 0)
(8.40802 1.22964 0)
(8.56058 1.23341 0)
(8.15595 1.37475 0)
(8.32469 1.38107 0)
(7.88264 1.53186 0)
(8.06852 1.54108 0)
(7.58727 1.70138 0)
(7.79125 1.71404 0)
(7.2689 1.88329 0)
(7.49196 1.9003 0)
(6.92643 2.07697 0)
(7.16954 2.0997 0)
(6.55851 2.28085 0)
(6.82266 2.31139 0)
(6.16348 2.49205 0)
(6.44959 2.53349 0)
(5.73914 2.70583 0)
(6.04811 2.76264 0)
(5.28275 2.91499 0)
(5.61526 2.99346 0)
(4.79085 3.10915 0)
(5.14726 3.21784 0)
(4.25932 3.2742 0)
(4.63941 3.42427 0)
(3.68342 3.39186 0)
(4.08608 3.59715 0)
(3.05807 3.4397 0)
(3.48135 3.71655 0)
(2.37776 3.39182 0)
(2.81839 3.75814 0)
(1.63793 3.2262 0)
(2.09918 3.69401 0)
(0.839141 2.90088 0)
(1.27894 3.50452 0)
(0.573367 3.11375 0)
(9.98273 0.123581 0)
(9.99316 0.0868171 0)
(9.94873 0.204308 0)
(9.97027 0.172092 0)
(9.89794 0.285251 0)
(9.92926 0.256974 0)
(9.83051 0.367964 0)
(9.87123 0.342986 0)
(9.74671 0.45385 0)
(9.79715 0.431677 0)
(9.64668 0.544075 0)
(9.70735 0.524349 0)
(9.53038 0.639705 0)
(9.60181 0.622133 0)
(9.39762 0.741797 0)
(9.48038 0.726123 0)
(9.24813 0.851411 0)
(9.34286 0.837421 0)
(9.08153 0.969603 0)
(9.18894 0.957129 0)
(8.89736 1.09742 0)
(9.01824 1.08634 0)
(8.6951 1.23588 0)
(8.83029 1.22613 0)
(8.47413 1.38598 0)
(8.62454 1.37757 0)
(8.23376 1.54862 0)
(8.40036 1.54168 0)
(7.97322 1.7246 0)
(8.15701 1.71937 0)
(7.69161 1.91444 0)
(7.89363 1.91142 0)
(7.38785 2.11834 0)
(7.6092 2.11835 0)
(7.06062 2.33596 0)
(7.30242 2.34028 0)
(6.70821 2.56611 0)
(6.97165 2.57675 0)
(6.32837 2.80648 0)
(6.61473 2.82642 0)
(5.91812 3.05304 0)
(6.22873 3.08669 0)
(5.47347 3.29952 0)
(5.80976 3.35316 0)
(4.98933 3.53665 0)
(5.35268 3.61898 0)
(4.45937 3.75141 0)
(4.85091 3.87399 0)
(3.87625 3.92647 0)
(4.29646 4.10394 0)
(3.23236 4.03987 0)
(3.68059 4.2897 0)
(2.52086 4.06501 0)
(2.99355 4.40679 0)
(1.7384 3.97617 0)
(2.23741 4.42461 0)
(0.889485 3.7188 0)
(1.36338 4.31634 0)
(0.598762 3.98495 0)
(9.98321 0.136203 0)
(9.99339 0.09504 0)
(9.95032 0.225571 0)
(9.97131 0.188588 0)
(9.90151 0.315495 0)
(9.93193 0.282048 0)
(9.83694 0.407502 0)
(9.87643 0.376959 0)
(9.75684 0.50301 0)
(9.80579 0.474838 0)
(9.66135 0.603274 0)
(9.7203 0.577047 0)
(9.55046 0.709456 0)
(9.61996 0.684812 0)
(9.42403 0.822698 0)
(9.50465 0.799313 0)
(9.28184 0.944142 0)
(9.37422 0.92173 0)
(9.12356 1.07493 0)
(9.22843 1.05324 0)
(8.94879 1.21619 0)
(9.06695 1.19503 0)
(8.75705 1.36904 0)
(8.88938 1.34827 0)
(8.54776 1.53458 0)
(8.6952 1.51411 0)
(8.32025 1.71383 0)
(8.48382 1.6937 0)
(8.0737 1.90773 0)
(8.2545 1.88809 0)
(7.80714 2.11702 0)
(8.00636 2.09826 0)
(7.51933 2.34215 0)
(7.73826 2.32495 0)
(7.20869 2.58314 0)
(7.44873 2.56867 0)
(6.87311 2.83938 0)
(7.13586 2.82944 0)
(6.50979 3.10926 0)
(6.79702 3.10662 0)
(6.1149 3.38979 0)
(6.4287 3.3986 0)
(5.68334 3.67601 0)
(6.02607 3.70228 0)
(5.20842 3.9602 0)
(5.58272 4.01247 0)
(4.68169 4.23099 0)
(5.09026 4.32096 0)
(4.09322 4.47232 0)
(4.53821 4.61539 0)
(3.43246 4.66255 0)
(3.91464 4.87787 0)
(2.69008 4.77317 0)
(3.20562 5.08359 0)
(1.86181 4.77242 0)
(2.41123 5.19798 0)
(0.95416 4.58975 0)
(1.47625 5.18433 0)
(0.639177 4.91949 0)
(9.98386 0.148368 0)
(9.99368 0.102943 0)
(9.95235 0.24597 0)
(9.9726 0.204394 0)
(9.90578 0.344398 0)
(9.9351 0.305969 0)
(9.84437 0.445197 0)
(9.88241 0.409269 0)
(9.76833 0.549809 0)
(9.81552 0.515815 0)
(9.6778 0.659557 0)
(9.73471 0.627009 0)
(9.57281 0.775685 0)
(9.63999 0.744155 0)
(9.45328 0.899414 0)
(9.5313 0.868513 0)
(9.31902 1.03196 0)
(9.40853 1.00133 0)
(9.16978 1.17455 0)
(9.27151 1.14387 0)
(9.00522 1.32839 0)
(9.11999 1.29738 0)
(8.82492 1.49471 0)
(8.95361 1.46312 0)
(8.62834 1.6747 0)
(8.77194 1.64236 0)
(8.41484 1.86953 0)
(8.57443 1.83635 0)
(8.18361 2.08032 0)
(8.36037 2.04634 0)
(7.9336 2.30804 0)
(8.12889 2.27348 0)
(7.66348 2.55349 0)
(7.8788 2.51886 0)
(7.37144 2.81716 0)
(7.60854 2.78338 0)
(7.05506 3.0991 0)
(7.31598 3.06767 0)
(6.71103 3.39863 0)
(6.99821 3.37194 0)
(6.33481 3.71406 0)
(6.65119 3.69576 0)
(5.92026 4.04208 0)
(6.26941 4.03764 0)
(5.45918 4.37705 0)
(5.84531 4.3945 0)
(4.94096 4.70988 0)
(5.36879 4.76071 0)
(4.35261 5.02653 0)
(4.82668 5.12673 0)
(3.67947 5.30618 0)
(4.20306 5.47705 0)
(2.9074 5.51817 0)
(3.47778 5.78746 0)
(2.02757 5.62301 0)
(2.64492 6.01949 0)
(1.04505 5.52945 0)
(1.63764 6.12392 0)
(0.704432 5.94305 0)
(9.98465 0.159981 0)
(9.99402 0.110462 0)
(9.95473 0.265381 0)
(9.97409 0.2194 0)
(9.91065 0.37182 0)
(9.93868 0.328612 0)
(9.85267 0.480883 0)
(9.88905 0.439775 0)
(9.781 0.594044 0)
(9.82618 0.554432 0)
(9.69581 0.712679 0)
(9.75038 0.674024 0)
(9.59716 0.838105 0)
(9.66167 0.799915 0)
(9.48502 0.971613 0)
(9.56003 0.933433 0)
(9.35927 1.11449 0)
(9.44543 1.07589 0)
(9.21973 1.26802 0)
(9.31776 1.22861 0)
(9.06612 1.43351 0)
(9.17684 1.39291 0)
(8.8981 1.61227 0)
(9.0224 1.57015 0)
(8.71521 1.80562 0)
(8.8541 1.76168 0)
(8.51685 2.01488 0)
(8.67145 1.96889 0)
(8.30225 2.24135 0)
(8.47384 2.1932 0)
(8.07039 2.48629 0)
(8.26044 2.43599 0)
(7.81988 2.75088 0)
(8.03011 2.69869 0)
(7.54884 3.03617 0)
(7.7813 2.98266 0)
(7.25464 3.34296 0)
(7.51183 3.2892 0)
(6.93369 3.67169 0)
(7.21868 3.61947 0)
(6.58094 4.02216 0)
(6.89763 3.97438 0)
(6.18948 4.39313 0)
(6.54274 4.35433 0)
(5.74978 4.78162 0)
(6.14571 4.75881 0)
(5.24912 5.18174 0)
(5.69507 5.18557 0)
(4.67093 5.58282 0)
(5.17506 5.62924 0)
(3.99487 5.96657 0)
(4.56505 6.07883 0)
(3.19836 6.30172 0)
(3.83627 6.51361 0)
(2.26171 6.54067 0)
(2.97074 6.89407 0)
(1.18056 6.56508 0)
(1.87905 7.15782 0)
(0.812758 7.09934 0)
(9.98553 0.170963 0)
(9.9944 0.117546 0)
(9.95738 0.283698 0)
(9.97572 0.233519 0)
(9.91601 0.397634 0)
(9.94258 0.349868 0)
(9.86169 0.51441 0)
(9.89623 0.46835 0)
(9.79469 0.635533 0)
(9.83765 0.590539 0)
(9.71517 0.762427 0)
(9.76713 0.717908 0)
(9.62325 0.896465 0)
(9.68475 0.851873 0)
(9.51894 1.039 0)
(9.59055 0.993816 0)
(9.40221 1.19137 0)
(9.48456 1.1451 0)
(9.27293 1.35494 0)
(9.36673 1.30711 0)
(9.13094 1.53108 0)
(9.23698 1.48122 0)
(8.97596 1.72118 0)
(9.09514 1.66887 0)
(8.80763 1.92669 0)
(8.94096 1.87149 0)
(8.62546 2.14907 0)
(8.77408 2.09062 0)
(8.42876 2.38982 0)
(8.594 2.3278 0)
(8.21661 2.6505 0)
(8.40001 2.58469 0)
(7.98769 2.9327 0)
(8.19113 2.86302 0)
(7.74017 3.23803 0)
(7.96594 3.16464 0)
(7.47149 3.56814 0)
(7.72243 3.49152 0)
(7.17799 3.92467 0)
(7.45775 3.84581 0)
(6.85456 4.30911 0)
(7.16784 4.22985 0)
(6.49391 4.72262 0)
(6.84688 4.64609 0)
(6.08577 5.16551 0)
(6.48652 5.09697 0)
(5.61571 5.6363 0)
(6.07474 5.58446 0)
(5.06363 6.12981 0)
(5.59407 6.10906 0)
(4.40223 6.63377 0)
(5.01963 6.66757 0)
(3.59611 7.12119 0)
(4.31254 7.24852 0)
(2.60427 7.54058 0)
(3.43562 7.82016 0)
(1.39425 7.74036 0)
(2.25638 8.31497 0)
(1.00255 8.46492 0)
(9.9865 0.181252 0)
(9.9948 0.124156 0)
(9.96027 0.300831 0)
(9.97747 0.246679 0)
(9.92177 0.421732 0)
(9.94676 0.369645 0)
(9.87133 0.545649 0)
(9.90387 0.494884 0)
(9.80923 0.674121 0)
(9.84977 0.624002 0)
(9.73567 0.808611 0)
(9.78478 0.758504 0)
(9.65081 0.95054 0)
(9.70902 0.899843 0)
(9.55471 1.10131 0)
(9.62258 1.04944 0)
(9.44742 1.26231 0)
(9.52555 1.20872 0)
(9.32891 1.43495 0)
(9.41799 1.37908 0)
(9.19908 1.62066 0)
(9.29988 1.56197 0)
(9.05779 1.82093 0)
(9.17118 1.75887 0)
(8.9048 2.03728 0)
(9.03176 1.97131 0)
(8.73974 2.27133 0)
(8.88141 2.2009 0)
(8.5621 2.52477 0)
(8.7198 2.44937 0)
(8.3711 2.79943 0)
(8.54641 2.71856 0)
(8.16564 3.09728 0)
(8.3605 3.01051 0)
(7.94414 3.42051 0)
(8.16093 3.32749 0)
(7.70431 3.7716 0)
(7.94609 3.67211 0)
(7.44285 4.15337 0)
(7.7136 4.04745 0)
(7.15504 4.56908 0)
(7.46002 4.45719 0)
(6.83397 5.02245 0)
(7.18033 4.90582 0)
(6.46961 5.51762 0)
(6.86713 5.39886 0)
(6.04707 6.0587 0)
(6.50937 5.94302 0)
(5.54412 6.64874 0)
(6.0901 6.54619 0)
(4.92711 7.287 0)
(5.58317 7.21679 0)
(4.145 7.96141 0)
(4.94252 7.96155 0)
(3.12171 8.63352 0)
(4.10925 8.77562 0)
(1.75618 9.12772 0)
(2.87834 9.62084 0)
(1.36464 10.185 0)
(9.98754 0.190798 0)
(9.99523 0.13026 0)
(9.96332 0.316706 0)
(9.97932 0.258823 0)
(9.92785 0.44402 0)
(9.95115 0.387867 0)
(9.88148 0.574487 0)
(9.91188 0.519283 0)
(9.82448 0.709677 0)
(9.86243 0.654712 0)
(9.75712 0.851083 0)
(9.80317 0.795681 0)
(9.67958 1.00016 0)
(9.73425 0.943672 0)
(9.59201 1.15835 0)
(9.65582 1.10014 0)
(9.49451 1.32707 0)
(9.56805 1.26653 0)
(9.38715 1.50778 0)
(9.47107 1.44427 0)
(9.26995 1.70195 0)
(9.36499 1.63486 0)
(9.14289 1.91113 0)
(9.24986 1.8398 0)
(9.00587 2.13694 0)
(9.12571 2.0607 0)
(8.8587 2.38107 0)
(8.9925 2.29924 0)
(8.70107 2.64541 0)
(8.8501 2.55724 0)
(8.53247 2.932 0)
(8.69827 2.83673 0)
(8.35211 3.24317 0)
(8.53656 3.13997 0)
(8.15884 3.58158 0)
(8.3643 3.46958 0)
(7.95091 3.95043 0)
(8.18043 3.82868 0)
(7.72578 4.3536 0)
(7.98334 4.22107 0)
(7.4797 4.79596 0)
(7.77068 4.65156 0)
(7.2071 5.28369 0)
(7.53896 5.12634 0)
(6.8996 5.82476 0)
(7.28294 5.65363 0)
(6.54424 6.42954 0)
(6.99463 6.24457 0)
(6.12027 7.11145 0)
(6.6613 6.91466 0)
(5.59295 7.88761 0)
(6.26239 7.68617 0)
(4.90078 8.77788 0)
(5.75746 8.59258 0)
(3.92674 9.80147 0)
(5.08719 9.68511 0)
(2.43308 10.8565 0)
(3.9793 11.0492 0)
(2.14607 12.5681 0)
(9.98862 0.199562 0)
(9.99567 0.135835 0)
(9.96652 0.331261 0)
(9.98124 0.269905 0)
(9.9342 0.464417 0)
(9.9557 0.404471 0)
(9.89202 0.60082 0)
(9.92016 0.541474 0)
(9.8403 0.742064 0)
(9.87552 0.682581 0)
(9.77932 0.889668 0)
(9.82216 0.829336 0)
(9.70931 1.04511 0)
(9.76028 0.983241 0)
(9.6305 1.20985 0)
(9.69009 1.14577 0)
(9.54307 1.38534 0)
(9.61185 1.31837 0)
(9.44717 1.57305 0)
(9.52576 1.50251 0)
(9.34294 1.7745 0)
(9.43205 1.69968 0)
(9.23051 1.99127 0)
(9.33091 1.91142 0)
(9.10993 2.22501 0)
(9.22251 2.13936 0)
(8.98124 2.47752 0)
(9.10702 2.38523 0)
(8.84436 2.75079 0)
(8.98454 2.65092 0)
(8.69911 3.04702 0)
(8.85513 2.93854 0)
(8.54514 3.36878 0)
(8.71876 3.2505 0)
(8.38184 3.7191 0)
(8.57527 3.58964 0)
(8.20826 4.10169 0)
(8.42431 3.95938 0)
(8.02295 4.5212 0)
(8.26532 4.36399 0)
(7.82371 4.98368 0)
(8.09739 4.80893 0)
(7.60725 5.49719 0)
(7.91916 5.30145 0)
(7.36855 6.07275 0)
(7.72864 5.8514 0)
(7.09969 6.72604 0)
(7.52297 6.47272 0)
(6.7875 7.48025 0)
(7.2979 7.18599 0)
(6.40843 8.3721 0)
(7.04797 8.02359 0)
(5.91545 9.46605 0)
(6.76296 9.04201 0)
(5.19596 10.9084 0)
(6.46187 10.3569 0)
(3.88428 13.1786 0)
(6.18964 12.3036 0)
(5.25867 16.3725 0)
(0.182977 -0.109703 0)
(0.106929 -0.179215 0)
(0.358479 -0.093996 0)
(0.261214 -0.167833 0)
(0.503709 -0.0726186 0)
(0.415192 -0.135604 0)
(0.618534 -0.0537906 0)
(0.545524 -0.104682 0)
(0.707881 -0.0388414 0)
(0.648811 -0.0795309 0)
(0.776964 -0.0273967 0)
(0.729839 -0.0600412 0)
(0.830298 -0.0188107 0)
(0.79412 -0.0452585 0)
(0.871616 -0.0124849 0)
(0.845982 -0.034233 0)
(0.903923 -0.00791536 0)
(0.888594 -0.0261361 0)
(0.929611 -0.00469629 0)
(0.924329 -0.0202895 0)
(0.950571 -0.00250961 0)
(0.95503 -0.0161652 0)
(0.968307 -0.00110456 0)
(0.982151 -0.0133551 0)
(0.983995 -0.000275379 0)
(1.00683 -0.0115341 0)
(0.998519 0.000157661 0)
(1.02995 -0.010426 0)
(1.01247 0.000361797 0)
(1.05216 -0.00977732 0)
(1.02612 0.000498293 0)
(1.07386 -0.00934179 0)
(1.03941 0.000718537 0)
(1.09523 -0.0088798 0)
(1.05194 0.00114603 0)
(1.11617 -0.00817799 0)
(1.06307 0.00184736 0)
(1.13634 -0.00708925 0)
(1.07204 0.00280717 0)
(1.15522 -0.0055791 0)
(1.07822 0.0039269 0)
(1.17225 -0.00374986 0)
(1.08129 0.00504064 0)
(1.187 -0.00181867 0)
(1.08147 0.00593435 0)
(1.19927 -0.000105919 0)
(1.0788 0.00659876 0)
(1.20911 0.00150959 0)
(1.07343 0.00721685 0)
(1.21654 0.00296312 0)
(1.06502 0.00783328 0)
(1.22146 0.00453148 0)
(1.05338 0.00835936 0)
(1.2236 0.00612562 0)
(1.03845 0.00851958 0)
(1.22208 0.00767002 0)
(1.02189 0.00749375 0)
(1.21741 0.00830366 0)
(1.21081 0.00622724 0)
(0.168965 -0.261461 0)
(0.0891237 -0.344706 0)
(0.331582 -0.230186 0)
(0.230794 -0.323344 0)
(0.46851 -0.183831 0)
(0.363829 -0.263457 0)
(0.580105 -0.142512 0)
(0.477045 -0.206419 0)
(0.671051 -0.109646 0)
(0.568163 -0.160485 0)
(0.745906 -0.08445 0)
(0.64186 -0.125098 0)
(0.808435 -0.065485 0)
(0.702653 -0.0983201 0)
(0.861619 -0.0514058 0)
(0.753942 -0.0782982 0)
(0.907764 -0.0410868 0)
(0.798152 -0.063466 0)
(0.948651 -0.0336373 0)
(0.837047 -0.052585 0)
(0.985662 -0.0283706 0)
(0.871975 -0.0447082 0)
(1.01987 -0.0247549 0)
(0.903986 -0.0391145 0)
(1.05212 -0.0223628 0)
(0.933898 -0.035241 0)
(1.08304 -0.0208283 0)
(0.962348 -0.0326253 0)
(1.11312 -0.0198153 0)
(0.98982 -0.0308596 0)
(1.14266 -0.0190002 0)
(1.01667 -0.0295592 0)
(1.1718 -0.0180759 0)
(1.04311 -0.0283501 0)
(1.20048 -0.0167846 0)
(1.06923 -0.0268877 0)
(1.22846 -0.0149745 0)
(1.09494 -0.0249131 0)
(1.25539 -0.0126533 0)
(1.11999 -0.0223301 0)
(1.28093 -0.00999421 0)
(1.14407 -0.0192551 0)
(1.30481 -0.00727311 0)
(1.16685 -0.0159788 0)
(1.32672 -0.00472925 0)
(1.18818 -0.0127922 0)
(1.34667 -0.00234758 0)
(1.20794 -0.00976541 0)
(1.36451 0.000112216 0)
(1.22636 -0.00688062 0)
(1.37994 0.00286933 0)
(1.24357 -0.00378574 0)
(1.39227 0.00568882 0)
(1.25947 -0.000361942 0)
(1.40073 0.00773967 0)
(1.27379 0.00332695 0)
(1.40662 0.00771601 0)
(1.28569 0.00534998 0)
(1.29643 0.00468957 0)
(0.142073 -0.41314 0)
(0.0693381 -0.483857 0)
(0.273424 -0.363647 0)
(0.186518 -0.448956 0)
(0.381404 -0.292618 0)
(0.285207 -0.36428 0)
(0.468377 -0.23 0)
(0.368644 -0.28571 0)
(0.539159 -0.180489 0)
(0.434189 -0.22349 0)
(0.597649 -0.142563 0)
(0.487107 -0.175933 0)
(0.6469 -0.113935 0)
(0.53075 -0.140114 0)
(0.689198 -0.0925307 0)
(0.567571 -0.113344 0)
(0.726227 -0.0766468 0)
(0.599277 -0.0934216 0)
(0.759271 -0.0649645 0)
(0.627049 -0.0786851 0)
(0.789324 -0.0564785 0)
(0.651792 -0.0678856 0)
(0.817165 -0.0504167 0)
(0.674223 -0.0600784 0)
(0.843404 -0.0461669 0)
(0.694907 -0.0545322 0)
(0.86852 -0.0432161 0)
(0.714292 -0.0506551 0)
(0.892886 -0.0411041 0)
(0.732736 -0.047937 0)
(0.91677 -0.0393933 0)
(0.750529 -0.0459044 0)
(0.940332 -0.0376658 0)
(0.767897 -0.0440937 0)
(0.963592 -0.0355622 0)
(0.784994 -0.0420624 0)
(0.986422 -0.032856 0)
(0.801861 -0.0394556 0)
(1.00858 -0.029533 0)
(0.818402 -0.0361101 0)
(1.02979 -0.0258085 0)
(0.834377 -0.0321381 0)
(1.0499 -0.0220191 0)
(0.849482 -0.0279029 0)
(1.06897 -0.0183931 0)
(0.863503 -0.0238307 0)
(1.08732 -0.014936 0)
(0.876535 -0.0201387 0)
(1.10524 -0.0114197 0)
(0.888942 -0.0167689 0)
(1.12303 -0.00750367 0)
(0.901167 -0.0133698 0)
(1.14082 -0.00329887 0)
(0.913483 -0.00972497 0)
(1.15841 0.000376763 0)
(0.926387 -0.00570455 0)
(1.1737 0.00245611 0)
(0.938522 -0.0023198 0)
(0.948925 -0.000142224 0)
(0.112227 -0.529225 0)
(0.0492706 -0.593776 0)
(0.206797 -0.459512 0)
(0.136328 -0.539394 0)
(0.279912 -0.36713 0)
(0.194668 -0.432549 0)
(0.336845 -0.28809 0)
(0.244921 -0.337614 0)
(0.382373 -0.226658 0)
(0.280654 -0.264016 0)
(0.41949 -0.18 0)
(0.308759 -0.208192 0)
(0.450364 -0.144922 0)
(0.330946 -0.166313 0)
(0.476533 -0.118675 0)
(0.348765 -0.135026 0)
(0.499003 -0.0991064 0)
(0.363219 -0.111599 0)
(0.518547 -0.0846038 0)
(0.37495 -0.0941222 0)
(0.535772 -0.0739548 0)
(0.38449 -0.0811699 0)
(0.551165 -0.0662337 0)
(0.392265 -0.0716696 0)
(0.565122 -0.0607118 0)
(0.398624 -0.0647929 0)
(0.577968 -0.0567872 0)
(0.403856 -0.0598766 0)
(0.589988 -0.0539299 0)
(0.408217 -0.0563624 0)
(0.601439 -0.0516398 0)
(0.411959 -0.0537407 0)
(0.612533 -0.0494308 0)
(0.415345 -0.0515063 0)
(0.6234 -0.0468645 0)
(0.41864 -0.0491517 0)
(0.634041 -0.0436365 0)
(0.422041 -0.046234 0)
(0.644312 -0.0396825 0)
(0.425607 -0.042498 0)
(0.653962 -0.0352273 0)
(0.429154 -0.0379982 0)
(0.662754 -0.0306991 0)
(0.43228 -0.0331161 0)
(0.670643 -0.026505 0)
(0.434409 -0.0283975 0)
(0.677865 -0.0228263 0)
(0.435262 -0.0242206 0)
(0.684797 -0.019506 0)
(0.434961 -0.0205945 0)
(0.691805 -0.0161999 0)
(0.433681 -0.0171462 0)
(0.69888 -0.0126611 0)
(0.432512 -0.0134474 0)
(0.70593 -0.00908904 0)
(0.43186 -0.00932601 0)
(0.711473 -0.00545554 0)
(0.429496 -0.00510045 0)
(0.424358 -0.00166173 0)
(0.0774065 -0.611651 0)
(0.0279434 -0.669591 0)
(0.131219 -0.520426 0)
(0.0796651 -0.590855 0)
(0.166339 -0.410675 0)
(0.0934292 -0.465341 0)
(0.190341 -0.320284 0)
(0.108876 -0.359497 0)
(0.207504 -0.25126 0)
(0.112039 -0.279293 0)
(0.219828 -0.199278 0)
(0.112251 -0.218903 0)
(0.228505 -0.160337 0)
(0.109343 -0.173676 0)
(0.234451 -0.131084 0)
(0.104444 -0.139953 0)
(0.238099 -0.10908 0)
(0.0977925 -0.11455 0)
(0.239846 -0.0925935 0)
(0.0897891 -0.0955026 0)
(0.240018 -0.0803253 0)
(0.0807693 -0.0813023 0)
(0.238884 -0.0712868 0)
(0.0709822 -0.0708158 0)
(0.236678 -0.0647031 0)
(0.0606435 -0.0631707 0)
(0.233618 -0.0599461 0)
(0.0499499 -0.0576804 0)
(0.229941 -0.0564765 0)
(0.0390893 -0.0537853 0)
(0.225916 -0.0537874 0)
(0.0282727 -0.050986 0)
(0.221827 -0.051363 0)
(0.0177611 -0.0487741 0)
(0.217918 -0.0486913 0)
(0.00783885 -0.0466016 0)
(0.214312 -0.0453521 0)
(-0.00127599 -0.0439371 0)
(0.210939 -0.0411538 0)
(-0.0095201 -0.0403999 0)
(0.20749 -0.0362404 0)
(-0.0170897 -0.0359038 0)
(0.203485 -0.0310522 0)
(-0.0244322 -0.0307417 0)
(0.198412 -0.0260961 0)
(-0.0322386 -0.0254604 0)
(0.191927 -0.0216705 0)
(-0.041021 -0.0205555 0)
(0.183979 -0.0176941 0)
(-0.0510018 -0.0162081 0)
(0.174926 -0.0138543 0)
(-0.0622948 -0.0122676 0)
(0.165172 -0.00953153 0)
(-0.0740873 -0.00831569 0)
(0.153632 -0.00440773 0)
(-0.0868266 -0.00339792 0)
(0.140777 -0.000440708 0)
(-0.0984041 0.00134713 0)
(-0.110113 0.00241209 0)
(0.0372746 -0.655592 0)
(0.00415888 -0.7061 0)
(0.0466934 -0.542306 0)
(0.0153598 -0.599863 0)
(0.0418946 -0.419215 0)
(-0.0170979 -0.46086 0)
(0.0316596 -0.321786 0)
(-0.0385749 -0.350166 0)
(0.0175927 -0.248424 0)
(-0.0695529 -0.266772 0)
(0.0017811 -0.19349 0)
(-0.099993 -0.205161 0)
(-0.0152456 -0.152711 0)
(-0.130377 -0.159227 0)
(-0.0331372 -0.122467 0)
(-0.159963 -0.125129 0)
(-0.0516281 -0.0997846 0)
(-0.188841 -0.099591 0)
(-0.0704334 -0.0828745 0)
(-0.21669 -0.0806489 0)
(-0.0893369 -0.0703637 0)
(-0.243304 -0.0667236 0)
(-0.108168 -0.0612252 0)
(-0.26861 -0.0566363 0)
(-0.126771 -0.054668 0)
(-0.292597 -0.0494931 0)
(-0.144996 -0.0500651 0)
(-0.315289 -0.0445977 0)
(-0.16267 -0.0468925 0)
(-0.336729 -0.0413975 0)
(-0.179587 -0.0446533 0)
(-0.356931 -0.0394092 0)
(-0.195533 -0.0428091 0)
(-0.375838 -0.0381194 0)
(-0.210362 -0.0407836 0)
(-0.393366 -0.0369273 0)
(-0.224069 -0.0380709 0)
(-0.409494 -0.035206 0)
(-0.236809 -0.0344004 0)
(-0.424354 -0.0324762 0)
(-0.24887 -0.0298617 0)
(-0.438256 -0.0285795 0)
(-0.260595 -0.0248747 0)
(-0.451634 -0.0237902 0)
(-0.272317 -0.0199421 0)
(-0.464951 -0.0186743 0)
(-0.284379 -0.0153551 0)
(-0.478548 -0.0137376 0)
(-0.296992 -0.0109514 0)
(-0.492656 -0.00924728 0)
(-0.310814 -0.00629396 0)
(-0.507394 -0.00481952 0)
(-0.326458 -0.00143116 0)
(-0.521394 -8.48729e-05 0)
(-0.340837 0.00258401 0)
(-0.534673 0.00398866 0)
(-0.350152 0.00412359 0)
(-0.54468 0.00601905 0)
(-0.551313 0.0056544 0)
(-0.0103757 -0.654626 0)
(-0.0245441 -0.695937 0)
(-0.0462434 -0.520651 0)
(-0.0581703 -0.565562 0)
(-0.0911061 -0.390247 0)
(-0.13619 -0.418971 0)
(-0.138395 -0.291301 0)
(-0.196926 -0.307054 0)
(-0.185916 -0.218683 0)
(-0.261957 -0.224471 0)
(-0.231814 -0.165766 0)
(-0.323158 -0.16527 0)
(-0.275232 -0.126674 0)
(-0.379736 -0.122383 0)
(-0.316295 -0.0977128 0)
(-0.431257 -0.0911069 0)
(-0.354721 -0.0764777 0)
(-0.47802 -0.0685055 0)
(-0.390396 -0.0611194 0)
(-0.520365 -0.0524704 0)
(-0.423334 -0.0501872 0)
(-0.558634 -0.0413215 0)
(-0.45365 -0.0426001 0)
(-0.593247 -0.0338084 0)
(-0.481535 -0.03754 0)
(-0.624637 -0.0289913 0)
(-0.507226 -0.0343736 0)
(-0.653237 -0.026156 0)
(-0.530946 -0.032587 0)
(-0.679462 -0.0247717 0)
(-0.552864 -0.0316971 0)
(-0.703641 -0.0244102 0)
(-0.573079 -0.0311594 0)
(-0.725967 -0.0246122 0)
(-0.591704 -0.0303527 0)
(-0.74654 -0.0247761 0)
(-0.608956 -0.0286977 0)
(-0.7655 -0.024217 0)
(-0.625168 -0.0258381 0)
(-0.783135 -0.0223931 0)
(-0.640756 -0.0217872 0)
(-0.799886 -0.0191136 0)
(-0.656107 -0.0169393 0)
(-0.816231 -0.0146887 0)
(-0.671433 -0.0118256 0)
(-0.832535 -0.00980169 0)
(-0.686986 -0.00688095 0)
(-0.848959 -0.00494631 0)
(-0.70284 -0.00237023 0)
(-0.864446 -0.000497993 0)
(-0.717676 0.00167509 0)
(-0.878682 0.00317511 0)
(-0.729644 0.00507667 0)
(-0.891023 0.00621177 0)
(-0.738993 0.00716056 0)
(-0.900846 0.00879101 0)
(-0.746841 0.00741147 0)
(-0.90932 0.00995522 0)
(-0.91415 0.00921029 0)
(-0.0608277 -0.604863 0)
(-0.0606784 -0.63636 0)
(-0.146803 -0.458274 0)
(-0.142586 -0.483343 0)
(-0.233689 -0.328414 0)
(-0.26854 -0.337843 0)
(-0.318254 -0.232396 0)
(-0.369785 -0.229959 0)
(-0.397828 -0.164026 0)
(-0.466739 -0.15364 0)
(-0.470643 -0.116377 0)
(-0.555172 -0.101986 0)
(-0.535675 -0.0828003 0)
(-0.634317 -0.0671982 0)
(-0.593255 -0.058874 0)
(-0.703432 -0.0433996 0)
(-0.644061 -0.0420753 0)
(-0.761827 -0.0274044 0)
(-0.688971 -0.0306764 0)
(-0.811648 -0.0169978 0)
(-0.728846 -0.0232769 0)
(-0.85454 -0.0105695 0)
(-0.764446 -0.0188127 0)
(-0.891936 -0.00700133 0)
(-0.796446 -0.0164673 0)
(-0.924984 -0.00546487 0)
(-0.825457 -0.0156202 0)
(-0.954636 -0.0053301 0)
(-0.852005 -0.0158145 0)
(-0.981684 -0.00616497 0)
(-0.876463 -0.0166562 0)
(-1.0067 -0.00767252 0)
(-0.899031 -0.0176633 0)
(-1.03001 -0.0095329 0)
(-0.919848 -0.0182015 0)
(-1.05173 -0.0111949 0)
(-0.939169 -0.017611 0)
(-1.07199 -0.0119097 0)
(-0.957401 -0.01545 0)
(-1.09098 -0.0110543 0)
(-0.975036 -0.011742 0)
(-1.10919 -0.00840455 0)
(-0.992545 -0.00707168 0)
(-1.12689 -0.00430742 0)
(-1.01002 -0.00234184 0)
(-1.14392 0.000314885 0)
(-1.02638 0.00175296 0)
(-1.15994 0.00430143 0)
(-1.04024 0.00505079 0)
(-1.17429 0.00715135 0)
(-1.05182 0.00778875 0)
(-1.18642 0.0094122 0)
(-1.06194 0.010131 0)
(-1.19711 0.0115404 0)
(-1.07075 0.0115766 0)
(-1.20668 0.013317 0)
(-1.07856 0.0115761 0)
(-1.21461 0.0138682 0)
(-1.21871 0.0131134 0)