/*--------------------------------*- C++ -*----------------------------------*\
  =========                 |
  \\      /  F ield         | OpenFOAM: The Open Source CFD Toolbox
   \\    /   O peration     | Website:  https://openfoam.org
    \\  /    A nd           | Version:  7
     \\/     M anipulation  |
\*---------------------------------------------------------------------------*/
FoamFile
{
    version     2.0;
    format      ascii;
    class       surfaceScalarField;
    location    "8.59";
    object      phi;
}
// * * * * * * * * * * * * * * * * * * * * * * * * * * * * * * * * * * * * * //

dimensions      [1 0 -1 0 0 0 0];

internalField   nonuniform List<scalar> 
23692
(
1.19465e-05
-3.12103e-07
1.24752e-05
-5.28503e-07
1.31826e-05
-7.07202e-07
1.40398e-05
-8.56854e-07
1.50264e-05
-9.86264e-07
1.61288e-05
-1.10192e-06
1.73381e-05
-1.20873e-06
1.86491e-05
-1.31036e-06
2.00588e-05
-1.40906e-06
2.15652e-05
-1.50569e-06
2.31658e-05
-1.59978e-06
2.48564e-05
-1.68978e-06
2.66306e-05
-1.77339e-06
2.84795e-05
-1.84802e-06
3.03916e-05
-1.91116e-06
3.23532e-05
-1.96073e-06
3.43495e-05
-1.99528e-06
3.63645e-05
-2.01409e-06
3.83826e-05
-2.01711e-06
4.03885e-05
-2.00493e-06
4.23681e-05
-1.97863e-06
4.43087e-05
-1.93962e-06
4.61992e-05
-1.8895e-06
4.80302e-05
-1.82998e-06
4.97939e-05
-1.76276e-06
5.14843e-05
-1.68946e-06
5.30968e-05
-1.61157e-06
5.46283e-05
-1.53046e-06
5.60765e-05
-1.44732e-06
5.74406e-05
-1.36318e-06
5.87205e-05
-1.27893e-06
5.99167e-05
-1.19529e-06
6.10304e-05
-1.11289e-06
6.20635e-05
-1.0322e-06
6.3018e-05
-9.53613e-07
6.38963e-05
-8.77435e-07
6.4701e-05
-8.03889e-07
6.54349e-05
-7.33137e-07
6.6101e-05
-6.65286e-07
6.67022e-05
-6.00402e-07
6.72414e-05
-5.38511e-07
6.77217e-05
-4.7961e-07
6.81461e-05
-4.23669e-07
6.85174e-05
-3.70639e-07
6.88385e-05
-3.20453e-07
6.91122e-05
-2.73028e-07
6.9341e-05
-2.28268e-07
6.95276e-05
-1.86066e-07
6.96745e-05
-1.46305e-07
6.97838e-05
-1.08855e-07
6.98579e-05
-7.3578e-08
6.98986e-05
-4.03223e-08
6.99079e-05
-8.92404e-09
6.98875e-05
2.07631e-08
6.9839e-05
4.88678e-08
6.97637e-05
7.55446e-08
6.9663e-05
1.0098e-07
6.95379e-05
1.25379e-07
6.93891e-05
1.48968e-07
6.92172e-05
1.71993e-07
6.90226e-05
1.94731e-07
6.88052e-05
2.1749e-07
6.85646e-05
2.40624e-07
6.83e-05
2.64542e-07
6.80103e-05
2.89722e-07
6.76935e-05
3.1674e-07
6.73471e-05
3.46297e-07
6.69677e-05
3.79269e-07
6.65507e-05
4.16781e-07
6.60902e-05
4.60319e-07
6.55781e-05
5.11905e-07
6.50035e-05
5.74396e-07
6.43513e-05
6.51982e-07
6.35999e-05
7.5108e-07
6.27177e-05
8.81971e-07
6.16555e-05
1.06195e-06
6.03336e-05
1.32159e-06
5.8615e-05
1.71829e-06
5.62435e-05
2.37124e-06
5.26635e-05
3.57967e-06
6.66094e-06
4.60023e-05
1.27718e-05
-6.35734e-07
1.33333e-05
-1.08988e-06
1.4087e-05
-1.46066e-06
1.50011e-05
-1.77059e-06
1.60541e-05
-2.0388e-06
1.72311e-05
-2.27848e-06
1.85228e-05
-2.49987e-06
1.99237e-05
-2.71056e-06
2.14306e-05
-2.91528e-06
2.30416e-05
-3.11583e-06
2.47539e-05
-3.31126e-06
2.65633e-05
-3.49833e-06
2.84631e-05
-3.67226e-06
3.04436e-05
-3.82763e-06
3.24926e-05
-3.9592e-06
3.45955e-05
-4.06261e-06
3.6736e-05
-4.13482e-06
3.88973e-05
-4.17429e-06
4.10622e-05
-4.18095e-06
4.32143e-05
-4.15599e-06
4.53383e-05
-4.10165e-06
4.74206e-05
-4.02087e-06
4.94492e-05
-3.917e-06
5.14138e-05
-3.79358e-06
5.33063e-05
-3.65416e-06
5.512e-05
-3.5021e-06
5.685e-05
-3.34054e-06
5.84928e-05
-3.17227e-06
6.00463e-05
-2.9998e-06
6.15094e-05
-2.82527e-06
6.28819e-05
-2.6505e-06
6.41646e-05
-2.47703e-06
6.53588e-05
-2.30612e-06
6.64663e-05
-2.13877e-06
6.74894e-05
-1.9758e-06
6.84307e-05
-1.81783e-06
6.9293e-05
-1.66532e-06
7.00794e-05
-1.5186e-06
7.07928e-05
-1.37791e-06
7.14366e-05
-1.24336e-06
7.20139e-05
-1.11502e-06
7.2528e-05
-9.92881e-07
7.29819e-05
-8.76871e-07
7.33789e-05
-7.6689e-07
7.37219e-05
-6.62796e-07
7.4014e-05
-5.64416e-07
7.42579e-05
-4.71552e-07
7.44564e-05
-3.83979e-07
7.46121e-05
-3.01451e-07
7.47275e-05
-2.23703e-07
7.48048e-05
-1.50443e-07
7.48463e-05
-8.13604e-08
7.48539e-05
-1.61173e-08
7.48295e-05
4.55874e-08
7.47747e-05
1.04027e-07
7.4691e-05
1.59526e-07
7.45798e-05
2.1247e-07
7.44421e-05
2.63281e-07
7.42789e-05
3.12422e-07
7.40906e-05
3.60399e-07
7.38777e-05
4.07773e-07
7.36401e-05
4.55176e-07
7.33774e-05
5.03322e-07
7.30889e-05
5.53035e-07
7.27733e-05
6.05277e-07
7.24288e-05
6.61193e-07
7.20528e-05
7.22168e-07
7.1642e-05
7.89922e-07
7.1192e-05
8.66633e-07
7.0697e-05
9.55133e-07
7.01495e-05
1.05921e-06
6.95395e-05
1.1841e-06
6.8854e-05
1.33721e-06
6.80754e-05
1.52946e-06
6.71797e-05
1.77741e-06
6.61343e-05
2.10696e-06
6.48958e-05
2.55981e-06
6.34092e-05
3.20455e-06
6.16214e-05
4.15881e-06
5.95714e-05
5.62937e-06
7.90191e-06
5.83301e-05
1.365e-05
-9.672e-07
1.42418e-05
-1.68151e-06
1.50399e-05
-2.25853e-06
1.60108e-05
-2.74115e-06
1.71312e-05
-3.15869e-06
1.8385e-05
-3.53176e-06
1.97622e-05
-3.87643e-06
2.1257e-05
-4.20463e-06
2.28663e-05
-4.5238e-06
2.45881e-05
-4.83682e-06
2.64199e-05
-5.14222e-06
2.83574e-05
-5.43493e-06
3.03936e-05
-5.70744e-06
3.25182e-05
-5.95119e-06
3.47179e-05
-6.1579e-06
3.6977e-05
-6.32065e-06
3.92779e-05
-6.43462e-06
4.16021e-05
-6.49735e-06
4.39309e-05
-6.50867e-06
4.62465e-05
-6.47049e-06
4.85323e-05
-6.38629e-06
5.07732e-05
-6.26068e-06
5.29563e-05
-6.09894e-06
5.50705e-05
-5.90664e-06
5.71067e-05
-5.68931e-06
5.9058e-05
-5.45225e-06
6.09189e-05
-5.20035e-06
6.26857e-05
-4.93802e-06
6.43562e-05
-4.66914e-06
6.5929e-05
-4.39708e-06
6.74043e-05
-4.12468e-06
6.87826e-05
-3.85434e-06
7.00655e-05
-3.58801e-06
7.1255e-05
-3.32727e-06
7.23536e-05
-3.07337e-06
7.3364e-05
-2.82727e-06
7.42893e-05
-2.5897e-06
7.51328e-05
-2.36118e-06
7.58979e-05
-2.14204e-06
7.65879e-05
-1.93248e-06
7.72063e-05
-1.73259e-06
7.77565e-05
-1.54234e-06
7.82421e-05
-1.36164e-06
7.86663e-05
-1.19031e-06
7.90324e-05
-1.02813e-06
7.93435e-05
-8.74829e-07
7.96027e-05
-7.30094e-07
7.98129e-05
-5.93574e-07
7.9977e-05
-4.64883e-07
8.00974e-05
-3.43604e-07
8.01768e-05
-2.29284e-07
8.02174e-05
-1.21439e-07
8.02213e-05
-1.95519e-08
8.01904e-05
7.68423e-08
8.01267e-05
1.68177e-07
8.00316e-05
2.54968e-07
7.99065e-05
3.37812e-07
7.97527e-05
4.1736e-07
7.9571e-05
4.94318e-07
7.93621e-05
5.69456e-07
7.91264e-05
6.43628e-07
7.88638e-05
7.17782e-07
7.85742e-05
7.92988e-07
7.82568e-05
8.70469e-07
7.79104e-05
9.51641e-07
7.75333e-05
1.03817e-06
7.71233e-05
1.13204e-06
7.66774e-05
1.2357e-06
7.61917e-05
1.35215e-06
7.56614e-05
1.48523e-06
7.50805e-05
1.63994e-06
7.44414e-05
1.82286e-06
7.37354e-05
2.04294e-06
7.29521e-05
2.31253e-06
7.20803e-05
2.64888e-06
7.11106e-05
3.0763e-06
7.00412e-05
3.62888e-06
6.88923e-05
4.35311e-06
6.77422e-05
5.30866e-06
6.6816e-05
6.55524e-06
8.07966e-06
6.66379e-05
1.45866e-05
-1.30428e-06
1.52057e-05
-2.30041e-06
1.60466e-05
-3.09915e-06
1.70739e-05
-3.76806e-06
1.82623e-05
-4.34667e-06
1.95948e-05
-4.86361e-06
2.10604e-05
-5.34139e-06
2.26533e-05
-5.79676e-06
2.43705e-05
-6.24021e-06
2.62104e-05
-6.67584e-06
2.81708e-05
-7.10168e-06
3.02475e-05
-7.51062e-06
3.24332e-05
-7.89206e-06
3.4717e-05
-8.23387e-06
3.70845e-05
-8.52428e-06
3.95184e-05
-8.75346e-06
4.19995e-05
-8.91452e-06
4.45072e-05
-9.0039e-06
4.70211e-05
-9.02138e-06
4.95214e-05
-8.96959e-06
5.19898e-05
-8.85343e-06
5.44097e-05
-8.6794e-06
5.67669e-05
-8.45492e-06
5.90492e-05
-8.18781e-06
6.1247e-05
-7.88585e-06
6.33524e-05
-7.55644e-06
6.53596e-05
-7.20644e-06
6.72648e-05
-6.842e-06
6.90653e-05
-6.46853e-06
7.07601e-05
-6.09072e-06
7.23491e-05
-5.71252e-06
7.38331e-05
-5.33726e-06
7.52139e-05
-4.96764e-06
7.64935e-05
-4.60585e-06
7.76748e-05
-4.25362e-06
7.87609e-05
-3.91226e-06
7.97549e-05
-3.58278e-06
8.06606e-05
-3.26588e-06
8.14816e-05
-2.96201e-06
8.22215e-05
-2.67146e-06
8.28841e-05
-2.39431e-06
8.34732e-05
-2.13052e-06
8.39924e-05
-1.87997e-06
8.44453e-05
-1.64239e-06
8.48354e-05
-1.41747e-06
8.51662e-05
-1.20484e-06
8.54408e-05
-1.00404e-06
8.56625e-05
-8.14583e-07
8.58342e-05
-6.35941e-07
8.59588e-05
-4.67527e-07
8.60388e-05
-3.08715e-07
8.60767e-05
-1.58833e-07
8.60748e-05
-1.71853e-08
8.60352e-05
1.16862e-07
8.59599e-05
2.43928e-07
8.58505e-05
3.6474e-07
8.57085e-05
4.80117e-07
8.55352e-05
5.90942e-07
8.53316e-05
6.98168e-07
8.50984e-05
8.02828e-07
8.48361e-05
9.06056e-07
8.45448e-05
1.0091e-06
8.42245e-05
1.11337e-06
8.38745e-05
1.22042e-06
8.34941e-05
1.33208e-06
8.30817e-05
1.45041e-06
8.26358e-05
1.57788e-06
8.21539e-05
1.7174e-06
8.16334e-05
1.87249e-06
8.10709e-05
2.0475e-06
8.04628e-05
2.24781e-06
7.98052e-05
2.48019e-06
7.90946e-05
2.75326e-06
7.83289e-05
3.07793e-06
7.75094e-05
3.46796e-06
7.66452e-05
3.94024e-06
7.57593e-05
4.51442e-06
7.49013e-05
5.21076e-06
7.41652e-05
6.04434e-06
7.37089e-05
7.01125e-06
8.05631e-06
7.37319e-05
1.55869e-05
-1.64588e-06
1.6231e-05
-2.94429e-06
1.71131e-05
-3.98099e-06
1.81962e-05
-4.85077e-06
1.94534e-05
-5.60336e-06
2.08663e-05
-6.27587e-06
2.24236e-05
-6.8979e-06
2.41192e-05
-7.4916e-06
2.59508e-05
-8.07096e-06
2.79175e-05
-8.64154e-06
3.00176e-05
-9.20079e-06
3.22474e-05
-9.73929e-06
3.45992e-05
-1.02428e-05
3.70616e-05
-1.06951e-05
3.96187e-05
-1.10802e-05
4.22513e-05
-1.13848e-05
4.49378e-05
-1.15997e-05
4.76551e-05
-1.172e-05
5.03804e-05
-1.17453e-05
5.30914e-05
-1.16793e-05
5.57677e-05
-1.15285e-05
5.8391e-05
-1.13014e-05
6.09455e-05
-1.10081e-05
6.34179e-05
-1.06589e-05
6.57975e-05
-1.02641e-05
6.80759e-05
-9.83355e-06
7.02469e-05
-9.37618e-06
7.23063e-05
-8.9001e-06
7.42514e-05
-8.41244e-06
7.60812e-05
-7.9193e-06
7.77958e-05
-7.42586e-06
7.93961e-05
-6.93642e-06
8.08842e-05
-6.45452e-06
8.22624e-05
-5.98297e-06
8.3534e-05
-5.52401e-06
8.47022e-05
-5.07935e-06
8.57707e-05
-4.65025e-06
8.67435e-05
-4.23761e-06
8.76245e-05
-3.84201e-06
8.84179e-05
-3.46377e-06
8.91276e-05
-3.10302e-06
8.97577e-05
-2.75968e-06
9.03122e-05
-2.43355e-06
9.0795e-05
-2.1243e-06
9.12098e-05
-1.8315e-06
9.15604e-05
-1.55464e-06
9.18503e-05
-1.29315e-06
9.20829e-05
-1.04637e-06
9.22612e-05
-8.13598e-07
9.23884e-05
-5.94085e-07
9.24673e-05
-3.8701e-07
9.25006e-05
-1.91501e-07
9.24906e-05
-6.69587e-09
9.24397e-05
1.68213e-07
9.235e-05
3.34078e-07
9.22233e-05
4.91846e-07
9.20612e-05
6.42562e-07
9.18651e-05
7.87344e-07
9.16361e-05
9.27383e-07
9.13752e-05
1.06396e-06
9.10829e-05
1.19848e-06
9.07596e-05
1.33245e-06
9.04055e-05
1.46754e-06
9.00203e-05
1.60562e-06
8.96036e-05
1.74878e-06
8.91545e-05
1.89937e-06
8.86722e-05
2.0601e-06
8.81553e-05
2.2341e-06
8.76026e-05
2.42499e-06
8.70128e-05
2.63705e-06
8.63851e-05
2.8753e-06
8.57193e-05
3.14564e-06
8.50173e-05
3.45495e-06
8.42838e-05
3.81108e-06
8.35289e-05
4.22258e-06
8.27707e-05
4.69807e-06
8.20401e-05
5.24466e-06
8.13852e-05
5.86524e-06
8.08754e-05
6.55382e-06
8.05979e-05
7.28833e-06
8.01951e-06
8.06343e-05
1.66563e-05
-1.99187e-06
1.73239e-05
-3.61165e-06
1.82462e-05
-4.90302e-06
1.93849e-05
-5.98901e-06
2.07118e-05
-6.92962e-06
2.22072e-05
-7.77069e-06
2.38598e-05
-8.54965e-06
2.56638e-05
-9.29476e-06
2.76178e-05
-1.00241e-05
2.97222e-05
-1.07449e-05
3.19765e-05
-1.1454e-05
3.43775e-05
-1.21391e-05
3.69176e-05
-1.27818e-05
3.95842e-05
-1.33604e-05
4.23595e-05
-1.38542e-05
4.52216e-05
-1.42456e-05
4.81457e-05
-1.45225e-05
5.11055e-05
-1.46784e-05
5.40748e-05
-1.47132e-05
5.70283e-05
-1.46315e-05
5.99432e-05
-1.44419e-05
6.27987e-05
-1.41556e-05
6.55775e-05
-1.37855e-05
6.82649e-05
-1.33449e-05
7.08492e-05
-1.28471e-05
7.33214e-05
-1.23044e-05
7.56751e-05
-1.17285e-05
7.79057e-05
-1.11294e-05
8.00108e-05
-1.05162e-05
8.19893e-05
-9.89648e-06
8.38415e-05
-9.27683e-06
8.5569e-05
-8.66257e-06
8.71738e-05
-8.0581e-06
8.8659e-05
-7.46691e-06
9.00279e-05
-6.89175e-06
9.12845e-05
-6.33473e-06
9.24328e-05
-5.79739e-06
9.34771e-05
-5.28081e-06
9.44219e-05
-4.78568e-06
9.52716e-05
-4.31238e-06
9.60307e-05
-3.86101e-06
9.67035e-05
-3.43148e-06
9.72944e-05
-3.02349e-06
9.78076e-05
-2.63661e-06
9.82473e-05
-2.27029e-06
9.86174e-05
-1.92387e-06
9.89218e-05
-1.59662e-06
9.91639e-05
-1.28772e-06
9.93473e-05
-9.9628e-07
9.94753e-05
-7.21362e-07
9.95509e-05
-4.61945e-07
9.9577e-05
-2.16945e-07
9.95562e-05
1.46602e-08
9.9491e-05
2.33866e-07
9.93838e-05
4.41785e-07
9.92365e-05
6.39596e-07
9.90508e-05
8.28572e-07
9.88284e-05
1.01005e-06
9.85706e-05
1.18546e-06
9.82785e-05
1.35631e-06
9.79529e-05
1.52421e-06
9.75946e-05
1.69089e-06
9.72039e-05
1.85824e-06
9.67813e-05
2.0283e-06
9.63267e-05
2.20331e-06
9.58402e-05
2.38575e-06
9.53218e-05
2.57835e-06
9.47716e-05
2.78413e-06
9.41899e-05
3.00647e-06
9.35777e-05
3.24909e-06
9.29366e-05
3.51605e-06
9.22702e-05
3.81175e-06
9.15841e-05
4.14071e-06
9.08876e-05
4.50731e-06
9.01945e-05
4.91527e-06
8.95255e-05
5.36671e-06
8.89089e-05
5.86085e-06
8.83817e-05
6.39208e-06
8.79875e-05
6.94761e-06
8.77706e-05
7.50486e-06
8.02949e-06
8.77602e-05
1.78005e-05
-2.34294e-06
1.84909e-05
-4.30189e-06
1.94532e-05
-5.86499e-06
2.06479e-05
-7.18315e-06
2.20457e-05
-8.32687e-06
2.36266e-05
-9.35092e-06
2.53792e-05
-1.03013e-05
2.72987e-05
-1.12134e-05
2.93857e-05
-1.211e-05
3.16423e-05
-1.30004e-05
3.40702e-05
-1.38806e-05
3.6667e-05
-1.47347e-05
3.94251e-05
-1.55385e-05
4.233e-05
-1.6264e-05
4.53611e-05
-1.68839e-05
4.84926e-05
-1.73758e-05
5.16953e-05
-1.77237e-05
5.49385e-05
-1.79201e-05
5.81916e-05
-1.79648e-05
6.14257e-05
-1.78641e-05
6.46146e-05
-1.76293e-05
6.77355e-05
-1.72749e-05
7.07687e-05
-1.68173e-05
7.36985e-05
-1.62732e-05
7.65122e-05
-1.56593e-05
7.92004e-05
-1.49912e-05
8.17563e-05
-1.42829e-05
8.41756e-05
-1.35472e-05
8.64559e-05
-1.2795e-05
8.85966e-05
-1.20357e-05
9.05983e-05
-1.12772e-05
9.24631e-05
-1.05259e-05
9.41935e-05
-9.78719e-06
9.57931e-05
-9.06521e-06
9.7266e-05
-8.36325e-06
9.86163e-05
-7.6838e-06
9.98488e-05
-7.02866e-06
0.000100968
-6.39909e-06
0.00010198
-5.79588e-06
0.000102888
-5.21941e-06
0.000103698
-4.66979e-06
0.000104414
-4.14683e-06
0.000105042
-3.65014e-06
0.000105586
-3.17917e-06
0.000106049
-2.73322e-06
0.000106438
-2.31147e-06
0.000106755
-1.913e-06
0.000107005
-1.53681e-06
0.000107192
-1.18182e-06
0.000107318
-8.46885e-07
0.000107387
-5.30778e-07
0.000107403
-2.32205e-07
0.000107369
5.00504e-08
0.000107286
3.17189e-07
0.000107157
5.70562e-07
0.000106986
8.11605e-07
0.000106773
1.04182e-06
0.000106521
1.26275e-06
0.00010623
1.47602e-06
0.000105904
1.68334e-06
0.000105542
1.88649e-06
0.000105145
2.08736e-06
0.000104716
2.28795e-06
0.000104253
2.49038e-06
0.00010376
2.69692e-06
0.000103236
2.90997e-06
0.000102682
3.13209e-06
0.0001021
3.36596e-06
0.000101492
3.61439e-06
0.00010086
3.88026e-06
0.000100209
4.16642e-06
9.95454e-05
4.47552e-06
9.88759e-05
4.80982e-06
9.82121e-05
5.17077e-06
9.75684e-05
5.55853e-06
9.69634e-05
5.97129e-06
9.64194e-05
6.40444e-06
9.59614e-05
6.84972e-06
9.56142e-05
7.29439e-06
9.53977e-05
7.72093e-06
8.10804e-06
9.53187e-05
1.9025e-05
-2.7004e-06
1.97387e-05
-5.01535e-06
2.07417e-05
-6.86756e-06
2.19934e-05
-8.4344e-06
2.34646e-05
-9.79739e-06
2.51349e-05
-1.10205e-05
2.69937e-05
-1.21592e-05
2.90385e-05
-1.32572e-05
3.12727e-05
-1.4343e-05
3.37018e-05
-1.54283e-05
3.63299e-05
-1.65075e-05
3.91563e-05
-1.75598e-05
4.21723e-05
-1.85532e-05
4.53609e-05
-1.94511e-05
4.86968e-05
-2.02183e-05
5.21485e-05
-2.08259e-05
5.56806e-05
-2.12543e-05
5.92564e-05
-2.14944e-05
6.284e-05
-2.15469e-05
6.63982e-05
-2.14207e-05
6.99011e-05
-2.11306e-05
7.33231e-05
-2.06953e-05
7.66429e-05
-2.01355e-05
7.98436e-05
-1.94722e-05
8.29118e-05
-1.87259e-05
8.58379e-05
-1.79157e-05
8.86152e-05
-1.70587e-05
9.12397e-05
-1.61701e-05
9.37095e-05
-1.52633e-05
9.60245e-05
-1.43493e-05
9.81862e-05
-1.34374e-05
0.000100197
-1.25353e-05
0.000102061
-1.16493e-05
0.000103781
-1.07841e-05
0.000105363
-9.94364e-06
0.000106811
-9.1307e-06
0.000108131
-8.34734e-06
0.000109328
-7.59495e-06
0.000110408
-6.87438e-06
0.000111376
-6.18602e-06
0.000112237
-5.5299e-06
0.000112997
-4.90575e-06
0.000113661
-4.31305e-06
0.000114234
-3.75109e-06
0.000114721
-3.21899e-06
0.000115126
-2.71576e-06
0.000115455
-2.24026e-06
0.00011571
-1.79131e-06
0.000115897
-1.3676e-06
0.000116018
-9.67779e-07
0.000116079
-5.90408e-07
0.000116081
-2.33984e-07
0.000116029
1.02922e-07
0.000115925
4.21733e-07
0.000115772
7.24055e-07
0.000115573
1.01157e-06
0.000115329
1.286e-06
0.000115043
1.54907e-06
0.000114717
1.80258e-06
0.000114352
2.04838e-06
0.00011395
2.28838e-06
0.000113513
2.52454e-06
0.000113042
2.75891e-06
0.000112539
2.99356e-06
0.000112006
3.23068e-06
0.000111443
3.47243e-06
0.000110854
3.72105e-06
0.000110241
3.97873e-06
0.000109608
4.24756e-06
0.000108958
4.52948e-06
0.000108298
4.82612e-06
0.000107635
5.13862e-06
0.000106977
5.46742e-06
0.000106335
5.81196e-06
0.000105723
6.17034e-06
0.000105155
6.53897e-06
0.000104647
6.91219e-06
0.000104214
7.2821e-06
0.000103869
7.63851e-06
0.00010362
7.9694e-06
8.26238e-06
0.000103466
2.03359e-05
-3.06603e-06
2.1074e-05
-5.75327e-06
2.21193e-05
-7.91237e-06
2.34305e-05
-9.74507e-06
2.49785e-05
-1.13447e-05
2.67437e-05
-1.27848e-05
2.87175e-05
-1.41321e-05
3.09011e-05
-1.54397e-05
3.33025e-05
-1.67433e-05
3.59323e-05
-1.80568e-05
3.87982e-05
-1.9372e-05
4.19003e-05
-2.06604e-05
4.52281e-05
-2.18795e-05
4.87596e-05
-2.2981e-05
5.24624e-05
-2.39195e-05
5.62966e-05
-2.46584e-05
6.02184e-05
-2.51745e-05
6.41838e-05
-2.5458e-05
6.81502e-05
-2.55116e-05
7.20794e-05
-2.53482e-05
7.5938e-05
-2.49874e-05
7.96978e-05
-2.44534e-05
8.33361e-05
-2.3772e-05
8.68349e-05
-2.29693e-05
9.0181e-05
-2.20703e-05
9.33648e-05
-2.10978e-05
9.63803e-05
-2.00725e-05
9.92242e-05
-1.90123e-05
0.000101895
-1.79328e-05
0.000104395
-1.68469e-05
0.000106724
-1.57655e-05
0.000108888
-1.46974e-05
0.00011089
-1.36497e-05
0.000112735
-1.26278e-05
0.000114429
-1.16362e-05
0.000115978
-1.06779e-05
0.000117387
-9.75513e-06
0.000118663
-8.86945e-06
0.000119812
-8.02169e-06
0.000120839
-7.21221e-06
0.000121752
-6.44092e-06
0.000122555
-5.70741e-06
0.000123254
-5.01102e-06
0.000123855
-4.35083e-06
0.000124363
-3.72577e-06
0.000124783
-3.13462e-06
0.000125119
-2.57604e-06
0.000125378
-2.04861e-06
0.000125562
-1.55081e-06
0.000125676
-1.08106e-06
0.000125724
-6.37708e-07
0.00012571
-2.19043e-07
0.000125637
1.76604e-07
0.000125508
5.50895e-07
0.000125327
9.05698e-07
0.000125097
1.24293e-06
0.000124819
1.56448e-06
0.000124496
1.87228e-06
0.00012413
2.16823e-06
0.000123725
2.4543e-06
0.000123281
2.73243e-06
0.000122801
3.00463e-06
0.000122287
3.27288e-06
0.000121742
3.53916e-06
0.000121167
3.80543e-06
0.000120566
4.07357e-06
0.000119941
4.3454e-06
0.000119297
4.62253e-06
0.000118638
4.90638e-06
0.000117969
5.19801e-06
0.000117297
5.49804e-06
0.000116629
5.8065e-06
0.000115973
6.12267e-06
0.00011534
6.4449e-06
0.00011474
6.77045e-06
0.000114183
7.09539e-06
0.00011368
7.41452e-06
0.00011324
7.7215e-06
0.000112869
8.00904e-06
0.000112569
8.26952e-06
8.49612e-06
0.000112334
2.17392e-05
-3.44197e-06
2.25039e-05
-6.51772e-06
2.3594e-05
-9.00207e-06
2.49682e-05
-1.11187e-05
2.65981e-05
-1.29738e-05
2.8466e-05
-1.46518e-05
3.05672e-05
-1.62322e-05
3.2909e-05
-1.77803e-05
3.55065e-05
-1.93395e-05
3.83771e-05
-2.0926e-05
4.15326e-05
-2.25261e-05
4.49732e-05
-2.40995e-05
4.86837e-05
-2.55883e-05
5.26332e-05
-2.69289e-05
5.67786e-05
-2.80631e-05
6.10685e-05
-2.89465e-05
6.54484e-05
-2.95526e-05
6.98649e-05
-2.98727e-05
7.42687e-05
-2.99136e-05
7.86163e-05
-2.9694e-05
8.2871e-05
-2.92403e-05
8.70027e-05
-2.85833e-05
9.09879e-05
-2.77553e-05
9.48085e-05
-2.67881e-05
9.84518e-05
-2.57117e-05
0.000101909
-2.45533e-05
0.000105176
-2.3337e-05
0.000108249
-2.20838e-05
0.000111129
-2.08114e-05
0.000113819
-1.95348e-05
0.000116321
-1.82662e-05
0.000118641
-1.70156e-05
0.000120784
-1.57908e-05
0.000122756
-1.4598e-05
0.000124563
-1.34418e-05
0.000126213
-1.23256e-05
0.000127711
-1.12518e-05
0.000129065
-1.0222e-05
0.000130282
-9.23686e-06
0.000131368
-8.29671e-06
0.000132329
-7.40132e-06
0.000133173
-6.55008e-06
0.000133906
-5.74211e-06
0.000134533
-4.97629e-06
0.000135059
-4.2513e-06
0.000135492
-3.56568e-06
0.000135834
-2.91785e-06
0.000136093
-2.30614e-06
0.000136272
-1.72879e-06
0.000136376
-1.184e-06
0.000136409
-6.69901e-07
0.000136375
-1.84582e-07
0.000136279
2.73898e-07
0.000136123
7.07462e-07
0.000135911
1.11824e-06
0.000135646
1.50834e-06
0.000135331
1.87983e-06
0.000134969
2.23476e-06
0.000134563
2.57515e-06
0.000134115
2.90299e-06
0.000133627
3.22027e-06
0.000133103
3.52893e-06
0.000132545
3.83085e-06
0.000131956
4.12784e-06
0.00013134
4.42162e-06
0.0001307
4.71373e-06
0.00013004
5.00556e-06
0.000129364
5.29822e-06
0.000128677
5.59253e-06
0.000127986
5.88889e-06
0.000127297
6.18725e-06
0.000126616
6.48695e-06
0.000125952
6.78673e-06
0.000125312
7.08457e-06
0.000124704
7.37773e-06
0.000124136
7.66274e-06
0.000123615
7.93548e-06
0.000123144
8.19136e-06
0.000122727
8.42563e-06
0.000122363
8.63374e-06
8.81226e-06
0.000122046
2.32413e-05
-3.83062e-06
2.40355e-05
-7.31164e-06
2.51742e-05
-1.01404e-05
2.66164e-05
-1.25602e-05
2.83353e-05
-1.46918e-05
3.03171e-05
-1.66327e-05
3.25637e-05
-1.84777e-05
3.50917e-05
-2.0307e-05
3.7927e-05
-2.21734e-05
4.10952e-05
-2.40927e-05
4.46119e-05
-2.60412e-05
4.84741e-05
-2.796e-05
5.2657e-05
-2.97695e-05
5.7116e-05
-3.13861e-05
6.17919e-05
-3.27371e-05
6.66184e-05
-3.37711e-05
7.15281e-05
-3.44604e-05
7.64579e-05
-3.48004e-05
8.13514e-05
-3.48051e-05
8.61607e-05
-3.45013e-05
9.08466e-05
-3.39242e-05
9.53784e-05
-3.3113e-05
9.97325e-05
-3.21074e-05
0.000103892
-3.09456e-05
0.000107846
-2.96632e-05
0.000111586
-2.82917e-05
0.00011511
-2.68591e-05
0.000118417
-2.53892e-05
0.00012151
-2.39021e-05
0.000124392
-2.24145e-05
0.000127067
-2.09399e-05
0.000129543
-1.94894e-05
0.000131826
-1.80715e-05
0.000133922
-1.66929e-05
0.000135841
-1.53584e-05
0.000137588
-1.40716e-05
0.000139173
-1.2835e-05
0.000140603
-1.165e-05
0.000141885
-1.05172e-05
0.000143027
-9.43686e-06
0.000144035
-8.40841e-06
0.000144918
-7.43107e-06
0.000145681
-6.50369e-06
0.000146331
-5.62487e-06
0.000146874
-4.79303e-06
0.000147316
-4.00644e-06
0.000147662
-3.26325e-06
0.000147919
-2.56152e-06
0.00014809
-1.89926e-06
0.000148182
-1.2744e-06
0.000148198
-6.84872e-07
0.000148143
-1.28582e-07
0.000148021
3.96706e-07
0.000147836
8.93213e-07
0.000147591
1.36331e-06
0.000147291
1.80928e-06
0.000146938
2.23333e-06
0.000146536
2.63759e-06
0.000146087
3.02415e-06
0.000145596
3.39503e-06
0.000145064
3.75218e-06
0.000144496
4.09747e-06
0.000143894
4.43264e-06
0.000143263
4.75932e-06
0.000142605
5.07896e-06
0.000141926
5.39282e-06
0.00014123
5.70191e-06
0.000140521
6.00696e-06
0.000139805
6.30835e-06
0.000139087
6.60608e-06
0.000138375
6.89974e-06
0.000137673
7.18843e-06
0.000136988
7.47077e-06
0.000136328
7.74489e-06
0.000135697
8.0085e-06
0.0001351
8.25891e-06
0.000134542
8.49321e-06
0.000134024
8.70839e-06
0.000133548
8.90159e-06
0.000133111
9.07035e-06
9.21325e-06
0.000132709
2.48489e-05
-4.2346e-06
2.56764e-05
-8.13879e-06
2.68688e-05
-1.13322e-05
2.83857e-05
-1.40765e-05
3.02037e-05
-1.6509e-05
3.23156e-05
-1.87435e-05
3.47341e-05
-2.08949e-05
3.74898e-05
-2.30614e-05
4.06227e-05
-2.53048e-05
4.4168e-05
-2.76364e-05
4.81417e-05
-3.00132e-05
5.25317e-05
-3.23482e-05
5.72961e-05
-3.4532e-05
6.23691e-05
-3.64571e-05
6.76708e-05
-3.80368e-05
7.31169e-05
-3.9215e-05
7.86261e-05
-3.99675e-05
8.41258e-05
-4.0298e-05
8.95538e-05
-4.02309e-05
9.48594e-05
-3.98046e-05
0.000100003
-3.90652e-05
0.000104953
-3.80614e-05
0.000109689
-3.68413e-05
0.000114196
-3.54502e-05
0.000118464
-3.39293e-05
0.00012249
-3.23149e-05
0.000126271
-3.06384e-05
0.00012981
-2.89265e-05
0.000133112
-2.72015e-05
0.000136181
-2.54817e-05
0.000139025
-2.37819e-05
0.000141652
-2.21138e-05
0.000144069
-2.04865e-05
0.000146285
-1.89071e-05
0.000148309
-1.73806e-05
0.00015015
-1.59107e-05
0.000151816
-1.44995e-05
0.000153317
-1.31486e-05
0.000154659
-1.18582e-05
0.000155853
-1.06283e-05
0.000156904
-9.45819e-06
0.000157821
-8.34666e-06
0.000158611
-7.2923e-06
0.000159281
-6.29341e-06
0.000159838
-5.3481e-06
0.000160287
-4.45432e-06
0.000160635
-3.60994e-06
0.000160888
-2.81274e-06
0.00016105
-2.06044e-06
0.000161128
-1.35075e-06
0.000161125
-6.81335e-07
0.000161048
-5.00086e-08
0.000160899
5.45779e-07
0.000160685
1.10866e-06
0.000160408
1.64119e-06
0.000160072
2.14576e-06
0.000159681
2.62469e-06
0.000159239
3.08018e-06
0.000158749
3.51438e-06
0.000158216
3.92929e-06
0.000157641
4.32682e-06
0.00015703
4.70874e-06
0.000156386
5.07668e-06
0.000155714
5.43207e-06
0.000155017
5.77616e-06
0.0001543
6.10998e-06
0.000153567
6.43428e-06
0.000152824
6.74954e-06
0.000152077
7.05594e-06
0.000151329
7.35329e-06
0.000150588
7.64111e-06
0.000149857
7.91853e-06
0.000149143
8.1844e-06
0.00014845
8.43725e-06
0.000147783
8.67542e-06
0.000147144
8.89709e-06
0.000146537
9.10043e-06
0.000145961
9.28368e-06
0.000145417
9.44535e-06
0.000144902
9.58433e-06
9.70042e-06
0.000144415
2.65694e-05
-4.65685e-06
2.74349e-05
-9.00391e-06
2.86872e-05
-1.2584e-05
3.02883e-05
-1.56767e-05
3.22199e-05
-1.84396e-05
3.44858e-05
-2.10083e-05
3.71155e-05
-2.35233e-05
4.01597e-05
-2.61041e-05
4.36756e-05
-2.88191e-05
4.7706e-05
-3.1665e-05
5.22605e-05
-3.45657e-05
5.73072e-05
-3.7393e-05
6.27773e-05
-3.99999e-05
6.85762e-05
-4.22539e-05
7.45989e-05
-4.40574e-05
8.07419e-05
-4.53557e-05
8.69109e-05
-4.61343e-05
9.30257e-05
-4.64104e-05
9.90205e-05
-4.62233e-05
0.000104844
-4.56258e-05
0.000110458
-4.46765e-05
0.000115834
-4.3435e-05
0.000120953
-4.19585e-05
0.000125805
-4.02995e-05
0.000130383
-3.85049e-05
0.000134686
-3.66155e-05
0.000138716
-3.46661e-05
0.000142478
-3.2686e-05
0.000145978
-3.06995e-05
0.000149225
-2.87261e-05
0.000152227
-2.67816e-05
0.000154994
-2.48784e-05
0.000157535
-2.30259e-05
0.000159861
-2.12312e-05
0.000161982
-1.94996e-05
0.000163908
-1.78343e-05
0.000165648
-1.62376e-05
0.000167212
-1.47105e-05
0.000168609
-1.32531e-05
0.000169847
-1.1865e-05
0.000170936
-1.05451e-05
0.000171883
-9.2919e-06
0.000172696
-8.10358e-06
0.000173382
-6.97809e-06
0.000173949
-5.91321e-06
0.000174403
-4.90655e-06
0.00017475
-3.95566e-06
0.000174997
-3.05802e-06
0.000175148
-2.21108e-06
0.000175211
-1.41228e-06
0.00017519
-6.59064e-07
0.00017509
5.09992e-08
0.000174916
7.2071e-07
0.000174673
1.35304e-06
0.000174364
1.95071e-06
0.000173995
2.51622e-06
0.000173568
3.05199e-06
0.000173088
3.56028e-06
0.00017256
4.04326e-06
0.000171987
4.50293e-06
0.000171373
4.94115e-06
0.000170722
5.35962e-06
0.00017004
5.75985e-06
0.000169329
6.14316e-06
0.000168594
6.51066e-06
0.000167841
6.86322e-06
0.000167074
7.2015e-06
0.000166297
7.52586e-06
0.000165517
7.83643e-06
0.000164737
8.13308e-06
0.000163962
8.41541e-06
0.000163198
8.68284e-06
0.000162447
8.93455e-06
0.000161714
9.16961e-06
0.000161002
9.38702e-06
0.000160313
9.58574e-06
0.000159649
9.76483e-06
0.000159008
9.92349e-06
0.000158392
1.00611e-05
0.000157798
1.01776e-05
1.02733e-05
0.000157225
2.84103e-05
-5.10066e-06
2.93197e-05
-9.91294e-06
3.06406e-05
-1.39043e-05
3.23386e-05
-1.73739e-05
3.44049e-05
-2.05049e-05
3.68608e-05
-2.34629e-05
3.97605e-05
-2.64215e-05
4.31814e-05
-2.95233e-05
4.71988e-05
-3.28346e-05
5.18557e-05
-3.63199e-05
5.71421e-05
-3.98501e-05
6.29925e-05
-4.32412e-05
6.92993e-05
-4.63045e-05
7.59333e-05
-4.88855e-05
8.27627e-05
-5.08843e-05
8.96659e-05
-5.22564e-05
9.65387e-05
-5.30046e-05
0.000103297
-5.31657e-05
0.000109874
-5.27978e-05
0.000116221
-5.19704e-05
0.000122303
-5.07563e-05
0.000128097
-4.92266e-05
0.000133589
-4.74478e-05
0.000138772
-4.54795e-05
0.000143644
-4.3374e-05
0.000148207
-4.11764e-05
0.000152468
-3.89246e-05
0.000156435
-3.665e-05
0.000160116
-3.43784e-05
0.000163523
-3.21304e-05
0.000166666
-2.99226e-05
0.000169558
-2.77674e-05
0.000172209
-2.56746e-05
0.000174631
-2.36512e-05
0.000176836
-2.17021e-05
0.000178835
-1.98305e-05
0.000180637
-1.80381e-05
0.000182254
-1.63256e-05
0.000183696
-1.46928e-05
0.000184972
-1.31387e-05
0.000186091
-1.16619e-05
0.000187061
-1.02604e-05
0.000187891
-8.93203e-06
0.000188589
-7.67428e-06
0.000189162
-6.48454e-06
0.000189618
-5.36008e-06
0.000189962
-4.29811e-06
0.000190201
-3.2958e-06
0.000190342
-2.3503e-06
0.000190389
-1.45882e-06
0.00019035
-6.18577e-07
0.000190229
1.73332e-07
0.000190031
9.19928e-07
0.000189761
1.62428e-06
0.000189423
2.28928e-06
0.000189023
2.91759e-06
0.000188564
3.5117e-06
0.000188051
4.07396e-06
0.000187488
4.60653e-06
0.00018688
5.11143e-06
0.000186231
5.5905e-06
0.000185546
6.04539e-06
0.000184829
6.47755e-06
0.000184084
6.88825e-06
0.000183316
7.27855e-06
0.00018253
7.64928e-06
0.000181731
8.00109e-06
0.000180922
8.33438e-06
0.000180109
8.64938e-06
0.000179296
8.94612e-06
0.000178486
9.22447e-06
0.000177685
9.48416e-06
0.000176894
9.72483e-06
0.000176118
9.94608e-06
0.000175357
1.01475e-05
0.000174613
1.03287e-05
0.000173888
1.04895e-05
0.000173182
1.06297e-05
0.000172493
1.07494e-05
0.000171821
1.08489e-05
1.09293e-05
0.000171165
3.03799e-05
-5.56986e-06
3.13407e-05
-1.08733e-05
3.27415e-05
-1.53044e-05
3.45549e-05
-1.91864e-05
3.67875e-05
-2.27363e-05
3.94873e-05
-2.61614e-05
4.2744e-05
-2.96766e-05
4.66666e-05
-3.34441e-05
5.13432e-05
-3.75093e-05
5.6802e-05
-4.17765e-05
6.29935e-05
-4.60393e-05
6.98017e-05
-5.00471e-05
7.70712e-05
-5.35714e-05
8.46352e-05
-5.6447e-05
9.23372e-05
-5.85837e-05
0.000100042
-5.99588e-05
0.000107641
-6.06006e-05
0.000115049
-6.05708e-05
0.000122204
-5.99499e-05
0.000129062
-5.88256e-05
0.000135594
-5.72859e-05
0.000141784
-5.54135e-05
0.000147623
-5.32838e-05
0.00015311
-5.09632e-05
0.000158248
-4.85091e-05
0.000163044
-4.59701e-05
0.000167509
-4.33865e-05
0.000171653
-4.07918e-05
0.00017549
-3.82126e-05
0.000179033
-3.56703e-05
0.000182295
-3.31816e-05
0.000185289
-3.07592e-05
0.00018803
-2.84125e-05
0.000190529
-2.61482e-05
0.0001928
-2.39709e-05
0.000194856
-2.18832e-05
0.000196706
-1.98865e-05
0.000198364
-1.79809e-05
0.000199839
-1.61656e-05
0.000201142
-1.44391e-05
0.000202281
-1.27995e-05
0.000203267
-1.12444e-05
0.000204108
-9.77096e-06
0.000204812
-8.37638e-06
0.000205387
-7.0576e-06
0.00020584
-5.81147e-06
0.000206179
-4.63484e-06
0.000206409
-3.52455e-06
0.000206538
-2.47746e-06
0.000206571
-1.49048e-06
0.000206515
-5.60605e-07
0.000206374
3.1543e-07
0.000206154
1.14092e-06
0.00020586
1.91911e-06
0.000205498
2.653e-06
0.000205071
3.34537e-06
0.000204585
3.99882e-06
0.000204044
4.61575e-06
0.000203453
5.19837e-06
0.000202816
5.74872e-06
0.000202138
6.26866e-06
0.000201424
6.75983e-06
0.000200679
7.22371e-06
0.000199906
7.66158e-06
0.00019911