/*--------------------------------*- C++ -*----------------------------------*\
  =========                 |
  \\      /  F ield         | OpenFOAM: The Open Source CFD Toolbox
   \\    /   O peration     | Website:  https://openfoam.org
    \\  /    A nd           | Version:  7
     \\/     M anipulation  |
\*---------------------------------------------------------------------------*/
FoamFile
{
    version     2.0;
    format      ascii;
    class       volScalarField;
    location    "1.9";
    object      p;
}
// * * * * * * * * * * * * * * * * * * * * * * * * * * * * * * * * * * * * * //

dimensions      [0 2 -2 0 0 0 0];

internalField   nonuniform List<scalar> 
2790
(
150.991
150.899
151.166
151.737
152.518
153.475
154.608
155.915
157.392
159.033
160.832
162.783
164.877
167.101
169.44
171.875
174.378
176.915
179.445
181.916
184.272
186.447
188.375
189.993
191.25
192.122
192.557
192.612
192.663
192.875
150.788
150.806
151.099
151.667
152.444
153.398
154.526
155.827
157.297
158.93
160.72
162.66
164.743
166.956
169.285
171.709
174.203
176.735
179.263
181.738
184.104
186.297
188.249
189.894
191.177
192.049
192.445
192.499
192.631
192.915
150.59
150.677
150.989
151.547
152.311
153.252
154.366
155.648
157.096
158.705
160.467
162.376
164.423
166.598
168.886
171.267
173.717
176.206
178.696
181.141
183.488
185.679
187.648
189.335
190.684
191.658
192.249
192.604
192.918
193.216
150.365
150.483
150.807
151.357
152.106
153.031
154.125
155.383
156.803
158.377
160.101
161.966
163.965
166.085
168.312
170.629
173.012
175.433
177.858
180.247
182.551
184.72
186.7
188.437
189.889
191.039
191.905
192.575
193.126
193.645
150.104
150.236
150.569
151.111
151.843
152.748
153.815
155.043
156.425
157.957
159.631
161.44
163.375
165.426
167.577
169.811
172.108
174.441
176.781
179.092
181.335
183.467
185.447
187.235
188.803
190.143
191.272
192.233
193.042
193.788
149.803
149.941
150.276
150.808
151.52
152.399
153.435
154.625
155.962
157.442
159.057
160.8
162.661
164.628
166.689
168.826
171.019
173.247
175.482
177.696
179.856
181.931
183.89
185.708
187.369
188.868
190.213
191.417
192.435
193.352
149.46
149.599
149.931
150.45
151.14
151.988
152.988
154.133
155.419
156.84
158.387
160.053
161.827
163.7
165.656
167.681
169.756
171.861
173.972
176.066
178.119
180.108
182.013
183.821
185.524
187.122
188.614
189.991
191.154
192.2
149.075
149.212
149.537
150.04
150.703
151.518
152.476
153.572
154.8
156.153
157.624
159.203
160.882
162.647
164.487
166.386
168.326
170.289
172.255
174.205
176.12
177.986
179.79
181.53
183.206
184.823
186.375
187.845
189.094
190.243
148.649
148.782
149.096
149.579
150.214
150.991
151.902
152.943
154.107
155.387
156.773
158.258
159.83
161.478
163.189
164.947
166.735
168.538
170.336
172.113
173.855
175.551
177.196
178.794
180.354
181.886
183.392
184.861
186.13
187.367
148.182
148.31
148.611
149.072
149.675
150.41
151.271
152.253
153.347
154.546
155.841
157.223
158.68
160.2
161.77
163.373
164.994
166.616
168.22
169.793
171.32
172.792
174.208
175.574
176.905
178.221
179.539
180.875
182.073
183.376
147.677
147.798
148.084
148.52
149.088
149.779
150.587
151.504
152.524
153.637
154.834
156.106
157.44
158.823
160.24
161.676
163.113
164.534
165.92
167.253
168.52
169.709
170.814
171.841
172.803
173.73
174.658
175.654
176.614
177.931
147.134
147.249
147.517
147.926
148.457
149.101
149.852
150.701
151.642
152.665
153.76
154.915
156.118
157.356
158.611
159.868
161.106
162.307
163.448
164.51
165.471
166.313
167.02
167.585
168.01
168.318
168.559
168.865
169.245
170.416
146.557
146.664
146.914
147.294
147.786
148.381
149.071
149.85
150.708
151.637
152.624
153.658
154.725
155.81
156.895
157.962
158.989
159.953
160.829
161.588
162.201
162.635
162.857
162.832
162.529
161.93
161.055
160.061
159.111
159.613
145.947
146.046
146.276
146.626
147.077
147.621
148.249
148.955
149.728
150.559
151.435
152.344
153.27
154.197
155.106
155.976
156.782
157.497
158.088
158.521
158.752
158.73
158.392
157.661
156.44
154.612
152.05
148.748
144.798
142.757
145.308
145.398
145.608
145.926
146.335
146.826
147.39
148.021
148.707
149.437
150.2
150.981
151.763
152.53
153.259
153.926
154.505
154.962
155.259
155.351
155.179
154.671
153.728
152.217
149.942
146.614
141.776
134.764
124.301
112.066
6.43926
6.37941
6.20039
5.95005
5.67251
5.38699
5.10061
4.81791
4.54323
4.28096
4.03575
3.81168
3.6105
3.43303
3.28323
3.16533
3.07505
3.00632
2.95318
2.91104
2.86297
2.79486
2.69304
2.55174
2.3655
2.12695
1.82859
1.45445
0.980963
0.392638
6.29512
6.22738
6.06326
5.83462
5.57651
5.30655
5.03282
4.76055
4.49429
4.23867
3.9991
3.78025
3.58356
3.40942
3.2626
3.14574
3.05226
2.98643
2.94411
2.91321
2.87655
2.81515
2.71775
2.57559
2.38534
2.14311
1.84024
1.46943
0.994387
0.397521
6.16683
6.09071
5.93554
5.72352
5.48269
5.22745
4.96603
4.70398
4.4458
4.19616
3.96177
3.74879
3.55605
3.37742
3.233
3.13704
3.06116
2.99427
2.94911
2.91892
2.88378
2.82534
2.73125
2.59353
2.40782
2.16967
1.86497
1.47584
0.988924
0.384427
6.07424
5.98897
5.83865
5.63748
5.40979
5.16665
4.91613
4.66362
4.41351
4.16906
3.93698
3.7299
3.55422
3.40191
3.25441
3.13303
3.05823
3.00325
2.96477
2.93582
2.89933
2.8391
2.74315
2.60349
2.41526
2.17286
1.86019
1.46263
0.967834
0.361731
6.05321
5.95862
5.81155
5.61597
5.39552
5.15946
4.91603
4.67034
4.42855
4.19443
3.97246
3.76964
3.58752
3.42769
3.29226
3.18111
3.09914
3.03981
2.99638
2.95947
2.91439
2.84664
2.74454
2.59963
2.40588
2.1555
1.83332
1.4293
0.932418
0.33382
6.12216
6.01605
5.86543
5.668
5.44614
5.20971
4.96692
4.72325
4.48378
4.25374
4.03674
3.83414
3.64952
3.48737
3.3505
3.23869
3.15142
3.08428
3.03089
2.98187
2.92452
2.84587
2.73466
2.58198
2.38027
2.11857
1.78829
1.38033
0.88621
0.307759
6.27534
6.15315
5.98794
5.77829
5.54547
5.30054
5.05165
4.80417
4.56223
4.33147
4.11038
3.90635
3.72231
3.55918
3.41891
3.30191
3.20673
3.12931
3.0635
3.00047
2.92907
2.83757
2.71527
2.55296
2.3417
2.07056
1.73294
1.32202
0.833636
0.283566
6.4736
6.32687
6.13737
5.90672
5.65657
5.39934
5.14254
4.89028
4.64532
4.40939
4.18879
3.98426
3.79849
3.63269
3.48786
3.36405
3.25963
3.1708
3.09174
3.0143
2.92848
2.82359
2.68944
2.51664
2.29561
2.0165
1.67315
1.25988
0.779216
0.261132
6.65553
6.47874
6.26358
6.01481
5.7516
5.48378
5.21938
4.96321
4.71735
4.48211
4.2613
4.05639
3.86902
3.70023
3.55063
3.4199
3.30633
3.2064
3.11466
3.02363
2.92421
2.80652
2.66081
2.47768
2.24755
1.96172
1.61369
1.19847
0.726389
0.240339
6.78087
6.58692
6.35238
6.08852
5.81482
5.54177
5.27476
5.01728
4.7717
4.53869
4.31973
4.11586
3.92806
3.75716
3.60353
3.46675
3.34515
3.23545
3.13261
3.02975
2.91844
2.78937
2.63314
2.44056
2.20247
1.91089
1.5586
1.14131
0.67738
0.221268
6.84361
6.63417
6.38479
6.10792
5.82714
5.55353
5.29065
5.03935
4.8001
4.57328
4.35943
4.15905
3.97277
3.80132
3.64512
3.50384
3.37597
3.25853
3.14686
3.03456
2.91369
2.77526
2.61008
2.40933
2.16452
1.86788
1.5112
1.09103
0.633523
0.204066
6.7915
6.55613
6.30096
6.03034
5.76327
5.50633
5.26081
5.02544
4.79971
4.58417
4.37933
4.18538
4.00284
3.83269
3.67571
3.53186
3.39988
3.27712
3.1593
3.0404
2.91273
2.76739
2.59519
2.38767
2.1372
1.83583
1.47418
1.04957
0.595659
0.188845
6.54671
6.29678
6.07046
5.84306
5.61854
5.3998
5.18759
4.97882
4.77331
4.57376
4.38163
4.1969
4.02012
3.85297
3.697
3.55259
3.41881
3.29333
3.17224
3.04978
2.91835
2.76887
2.59182
2.37889
2.12339
1.81721
1.44966
1.01837
0.564326
0.175667
6.03483
5.78796
5.66762
5.55073
5.40521
5.24622
5.08326
4.91024
4.72875
4.54792
4.37131
4.19795
4.0282
3.86517
3.7117
3.56868
3.43534
3.30969
3.1882
3.06529
2.93324
2.78252
2.6029
2.38579
2.12528
1.81392
1.43932
0.998572
0.539953
0.164527
5.11706
4.89543
5.06402
5.19053
5.15806
5.0697
4.96939
4.83785
4.6774
4.51437
4.35511
4.19454
4.03178
3.87295
3.72306
3.58318
3.45234
3.32884
3.20966
3.08931
2.95973
2.8107
2.6309
2.4108
2.14504
1.82749
1.44419
0.991399
0.523092
0.155243
144.628
144.709
144.898
145.182
145.548
145.984
146.482
147.035
147.631
148.258
148.904
149.553
150.188
150.789
151.333
151.793
152.138
152.331
152.327
152.069
151.485
150.479
148.919
146.611
143.256
138.359
131
119.262
97.1072
37.2477
143.9
143.972
144.138
144.388
144.708
145.086
145.516
145.988
146.49
147.012
147.537
148.05
148.533
148.964
149.319
149.567
149.675
149.601
149.292
148.686
147.696
146.211
144.072
141.047
136.782
130.691
121.746
108.217
88.7524
60.4398
143.13
143.192
143.335
143.549
143.821
144.141
144.5
144.889
145.296
145.708
146.111
146.487
146.816
147.077
147.241
147.278
147.151
146.814
146.211
145.272
143.906
141.993
139.369
135.805
130.976
124.432
115.586
103.812
89.6789
73.2512
142.319
142.37
142.489
142.667
142.89
143.15
143.437
143.742
144.053
144.355
144.635
144.873
145.049
145.139
145.116
144.947
144.592
144.004
143.126
141.885
140.19
137.924
134.937
131.032
125.966
119.448
111.187
100.859
88.4126
73.4197
141.469
141.51
141.604
141.744
141.918
142.117
142.332
142.552
142.766
142.959
143.116
143.217
143.243
143.168
142.963
142.596
142.026
141.206
140.079
138.574
136.606
134.07
130.837
126.752
121.637
115.294
107.528
98.0992
86.8461
73.9778
140.581
140.612
140.682
140.784
140.909
141.046
141.189
141.325
141.442
141.527
141.563
141.531
141.41
141.176
140.799
140.246
139.478
138.449
137.104
135.379
133.198
130.469
127.088
122.938
117.89
111.81
104.579
96.1008
86.3683
75.7957
139.659
139.679
139.725
139.789
139.864
139.942
140.012
140.065
140.088
140.067
139.985
139.825
139.564
139.179
138.64
137.917
136.971
135.759
134.232
132.331
129.992
127.139
123.693
119.567
114.675
108.939
102.306
94.7676
86.3682
77.4428
138.706
138.716
138.737
138.764
138.79
138.808
138.808
138.779
138.71
138.586
138.392
138.109
137.717
137.191
136.505
135.628
134.526
133.159
131.483
129.449
127.003
124.088
120.642
116.606
111.929
106.573
100.522
93.7987
86.4537
78.7574
137.726
137.725
137.722
137.712
137.691
137.65
137.581
137.474
137.316
137.095
136.794
136.396
135.881
135.226
134.407
133.395
132.16
130.665
128.874
126.747
124.239
121.308
117.911
114.012
109.58
104.603
99.086
93.0645
86.5918
79.8939
136.722
136.711
136.684
136.639
136.571
136.474
136.339
136.156
135.914
135.6
135.199
134.695
134.067
133.297
132.361
131.233
129.886
128.291
126.416
124.229
121.697
118.788
115.476
111.738
107.563
102.95
97.9191
92.5084
86.7711
80.8909
135.699
135.678
135.629
135.549
135.437
135.285
135.087
134.833
134.512
134.112
133.618
133.016
132.288
131.415
130.377
129.152
127.716
126.045
124.113
121.896
119.369
116.512
113.307
109.746
105.825
101.556
96.9611
92.0802
86.961
81.7507
134.662
134.632
134.561
134.448
134.293
134.091
133.833
133.512
133.117
132.637
132.059
131.369
130.552
129.591
128.467
127.162
125.657
123.932
121.967
119.743
117.245
114.459
111.377
107.996
104.322
100.369
96.1632
91.7401
87.1413
82.4856
133.616
133.577
133.486
133.342
133.147
132.897
132.584
132.201
131.738
131.185
130.531
129.764
128.869
127.831
126.637
125.27
123.714
121.954
119.975
117.765
115.312
112.611
109.657
106.455
103.014
99.3505
95.4887
91.4611
87.3032
83.1108
132.567
132.52
132.41
132.237
132.005
131.71
131.345
130.905
130.381
129.763
129.042
128.207
127.245
126.145
124.894
123.479
121.888
120.11
118.134
115.951
113.556
110.947
108.125
105.096
101.871
98.4686
94.9105
91.2249
87.4421
83.6396
131.522
131.467
131.339
131.139
130.872
130.536
130.126
129.634
129.054
128.379
127.599
126.705
125.688
124.537
123.242
121.793
120.181
118.398
116.437
114.293
111.964
109.451
106.758
103.892
100.867
97.6989
94.408
91.0187
87.5563
84.0839
130.486
130.424
130.279
130.055
129.757
129.384
128.931
128.393
127.765
127.039
126.209
125.266
124.203
123.012
121.684
120.213
118.592
116.815
114.879
112.781
110.522
108.105
105.536
102.824
99.9807
97.022
93.966
90.8336
87.6458
84.4545
129.466
129.399
129.239
128.992
128.665
128.259
127.769
127.19
126.519
125.75
124.877
123.894
122.795
121.573
120.223
118.74
117.118
115.356
113.452
111.405
109.218
106.895
104.444
101.873
99.1947
96.4226
93.573
90.6635
87.7121
84.7611
128.47
128.396
128.223
127.957
127.605
127.168
126.645
126.032
125.324
124.519
123.611
122.595
121.468
120.224
118.86
117.372
115.758
114.017
112.149
110.155
108.04
105.808
103.467
101.026
98.4957
95.8892
93.2206
90.5048
87.757
85.0122
127.504
127.425
127.24
126.956
126.582
126.12
125.568
124.924
124.186
123.35
122.413
121.372
120.224
118.965
117.594
116.109
114.508
112.793
110.964
109.024
106.979
104.832
102.593
100.27
97.8726
95.4127
92.9026
90.3551
87.7831
85.2156
126.576
126.493
126.297
125.997
125.604
125.119
124.543
123.874
123.11
122.249
121.29
120.23
119.067
117.8
116.427
114.949
113.366
111.679
109.89
108.004
106.025
103.959
101.813
99.5958
97.3169
94.9863
92.6147
90.2133
87.7931
85.3782
125.694
125.606
125.402
125.088
124.678
124.175
123.578
122.888
122.102
121.222
120.245
119.171
117.999
116.728
115.359
113.892
112.329
110.672
108.923
107.088
105.171
103.179
101.118
98.9959
96.8219
94.6048
92.3541
90.0793
87.79
85.5063
124.865
124.774
124.561
124.236
123.811
123.292
122.678
121.971
121.169
120.273
119.283
118.2
117.023
115.752
114.39
112.936
111.395
109.767
108.058
106.271
104.412
102.486
100.502
98.4644
96.3828
94.2649
92.119
89.9536
87.7769
85.6058
124.097
124.003
123.783
123.448
123.012
122.479
121.851
121.129
120.314
119.407
118.409
117.319
116.14
114.873
113.519
112.081
110.561
108.963
107.29
105.548
103.742
101.877
99.9593
97.9967
95.9957
93.9638
91.9084
89.8369
87.7566
85.6815
123.398
123.302
123.076
122.733
122.286
121.742
121.103
120.37
119.545
118.629
117.625
116.533
115.355
114.092
112.749
111.326
109.827
108.257
106.619
104.917
103.158
101.346
99.488
97.5902
95.6589
93.7009
91.7229
89.7314
87.733
85.7394
122.778
122.679
122.448
122.096
121.641
121.088
120.44
119.698
118.866
117.944
116.936
115.843
114.667
113.412
112.078
110.671
109.192
107.647
106.04
104.374
102.656
100.891
99.084
97.2416
95.3697
93.4742
91.5614
89.6372
87.7073
85.7816
122.245
122.143
121.906
121.548
121.085
120.524
119.869
119.122
118.284
117.359
116.349
115.256
114.084
112.835
111.512
110.119
108.659
107.136
105.555
103.921
102.238
100.513
98.7489
96.953
95.1305
93.2871
91.4284
89.5598
87.6866
85.8173
121.809
121.704
121.46
121.093
120.623
120.057
119.396
118.644
117.802
116.875
115.864
114.773
113.605
112.362
111.048
109.668
108.224
106.72
105.162
103.553
101.9
100.206
98.4774
96.719
94.9363
93.1345
91.3187
89.4941
87.6655
85.8399
121.483
121.371
121.118
120.745
120.27
119.7
119.035
118.278
117.434
116.505
115.494
114.405
113.24
112.004
110.698
109.328
107.896
106.408
104.868
103.281
101.65
99.9814
98.2801
96.551
94.7991
93.0296
91.2473
89.457
87.6634
85.8727
121.28
121.145
120.875
120.496
120.019
119.445
118.778
118.02
117.175
116.245
115.236
114.148
112.987
111.754
110.455
109.092
107.67
106.193
104.666
103.092
101.477
99.8254
98.1423
96.4326
94.7011
92.9527
91.1921
89.4239
87.6524
85.8826
121.262
121.062
120.764
120.379
119.899
119.322
118.652
117.892
117.046
116.116
115.107
114.022
112.863
111.634
110.339
108.982
107.567
106.097
104.578
103.014
101.409
99.7689
98.0977
96.4003
94.6817
92.9466
91.1994
89.4448
87.6869
85.9302
-47.0126
-26.9599
-7.31694
40.3256
33.2715
22.0164
56.0517
44.2231
33.3348
57.3298
47.0441
39.1458
61.5626
53.3813
46.7272
65.8713
59.0454
53.2275
69.0619
63.2406
58.2417
71.5788
66.5971
62.3225
73.6961
69.3948
65.7095
75.4798
71.7227
68.5112
76.976
73.6602
70.8329
78.2335
75.28
72.7667
79.2923
76.6391
74.3847
80.1839
77.7819
75.7431
80.9344
78.7443
76.8868
81.5651
79.5553
77.8512
82.094
80.2383
78.6649
82.5359
80.8126
79.3511
82.9036
81.2944
79.9289
83.2079
81.6972
80.4141
83.4581
82.0325
80.8202
83.6627
82.3103
81.1588
83.8284
82.5388
81.4391
83.9631
82.7269
81.671
84.0692
82.8779
81.8589
84.1586
83.0043
82.0152
84.2225
83.0977
82.1331
84.2898
83.1876
82.2401
84.3198
83.2338
82.3003
84.3883
83.3164
82.3893
2.40804
2.66124
4.01624
4.88389
4.9608
4.89784
4.86829
4.78518
4.63011
4.48002
4.34075
4.19448
4.03666
3.88075
3.73524
3.60035
3.47388
3.35447
3.23999
3.1251
3.00111
2.85683
2.67938
2.45737
2.18541
1.85936
1.46584
0.997871
0.513597
0.14701
8.5705
5.29372
5.77362
5.51309
4.76055
4.5626
4.77311
4.81148
4.60354
4.4503
4.33639
4.20775
4.04859
3.89228
3.7525
3.62512
3.50479
3.39091
3.28321
3.17663
3.06125
2.92439
2.75143
2.52839
2.24906
1.91206
1.50552
1.01962
0.512153
0.138572
19.2874
10.8144
7.78307
5.96289
5.30973
5.27346
5.37424
4.96243
4.47432
4.35178
4.33688
4.2518
4.07439
3.9104
3.77901
3.66301
3.55039
3.44287
3.34382
3.24817
3.14375
3.01659
2.85109
2.62935
2.34143
1.98961
1.56647
1.05993
0.522386
0.130322
28.573
18.8208
13.0674
9.4439
7.39362
6.26147
5.59016
5.06556
4.80488
4.69663
4.59124
4.3533
4.07174
3.90029
3.80501
3.71724
3.61572
3.5148
3.4264
3.34505
3.25498
3.14022
2.98354
2.76228
2.46198
2.09116
1.64965
1.12198
0.552092
0.123001
37.5154
27.87
20.6245
15.3382
11.6284
9.08277
7.36982
6.24061
5.53065
5.05469
4.72281
4.45901
4.25601
4.10371
3.97543
3.84057
3.70574
3.59787
3.52528
3.46689
3.39609
3.29457
3.1466
2.92901
2.62162
2.2328
1.76462
1.20361
0.602342
0.114085
45.3147
36.4668
28.6366
22.2379
17.3152
13.6309
10.9131
8.92127
7.46238
6.39762
5.63413
5.08411
4.67989
4.37562
4.15285
3.99135
3.87335
3.78849
3.72579
3.66528
3.59036
3.48891
3.34382
3.12773
2.81247
2.3971
1.89013
1.29535
0.671348
0.0981023
51.663
43.9111
36.1887
29.3384
23.72
19.2254
15.6556
12.8391
10.6373
8.93627
7.63349
6.63276
5.85832
5.26317
4.8185
4.49346
4.25781
4.09107
3.97885
3.90175
3.8337
3.74503
3.60464
3.38065
3.04683
2.5985
2.04441
1.39336
0.712009
0.0471392
56.8317
50.1349
42.9168
36.1165
30.24
25.2765
21.1065
17.6366
14.7864
12.4714
10.604
9.10186
7.89656
6.93727
6.18345
5.59726
5.14549
4.80346
4.55072
4.36297
4.21019
4.05976
3.87769
3.62742
3.27448
2.8006
2.20555
1.50088
0.746814
-0.0546375
61.0476
55.2501
48.6902
42.2353
36.4215
31.2979
26.8032
22.9001
19.5565
16.7246
14.3456
12.3592
10.7095
9.34854
8.23439
7.32919
6.59925
6.01571
5.55195
5.17948
4.8666
4.5795
4.28251
3.93801
3.51065
2.97685
2.3285
1.5723
0.747345
-0.211647
64.4856
59.4266
53.5364
47.5605
42.0058
36.9479
32.3588
28.2344
24.5766
21.3703
18.5847
16.182
14.1226
12.3683
10.8833
9.63394
8.58829
7.71655
6.98988
6.37828
5.84942
5.36869
4.89963
4.405
3.85041
3.21063
2.47344
1.64015
0.728904
-0.371998
67.3066
62.8483
57.5717
52.1044
46.9017
42.0451
37.5222
33.3451
29.5352
26.0998
23.0299
20.307
17.9079
15.8068
13.9772
12.3918
11.0234
9.84446
8.82743
7.94316
7.16031
6.44526
5.76277
5.07738
4.35636
3.57421
2.71613
1.77804
0.764938
-0.441946
69.6407
65.6731
60.9319
55.9475
51.1216
46.5315
42.1702
38.0554
34.2172
30.6751
27.4349
24.4923
21.8375
19.4565
17.332
15.4448
13.7733
12.2948
10.9851
9.81772
8.76408
7.7933
6.87297
5.97059
5.05598
4.10464
3.10057
2.03634
0.912558
-0.371027
71.5854
68.0225
63.7393
59.19
54.7285
50.4244
46.2714
42.2868
38.5027
34.9444
31.6256
28.5516
25.7221
23.1321
20.7727
18.6319
16.6946
14.9433
13.3582
11.917
10.595
9.36516
8.19894
7.0676
5.94422
4.80627
3.63803
2.4313
1.18722
-0.166724
73.2146
69.9886
66.0954
61.9286
57.8025
53.7783
49.8484
46.0275
42.3461
38.831
35.4999
32.3632
29.4268
26.6922
24.1567
21.8144
19.6558
17.6687
15.8379
14.1458
12.5718
11.0934
9.68643
8.32619
6.98939
5.65611
4.31193
2.94935
1.57118
0.132606
74.5847
71.642
68.0809
64.2472
60.422
56.6592
52.9492
49.3034
45.7493
42.3128
39.0129
35.8625
32.8711
30.0441
27.3836
24.8879
22.5524
20.3691
18.3275
16.4141
14.6127
12.9051
11.2714
9.69099
8.14426
6.614
5.08749
3.55824
2.02972
0.480735
75.7401
73.0369
69.7596
66.215
62.6564
59.1316
55.6292
52.1572
48.7395
45.4003
42.1579
39.0265
36.017
33.1374
30.3925
27.7842
25.3112
22.9692
20.7513
18.6478
16.6465
14.7331
12.8916
11.1052
9.35746
7.6338
5.92302
4.21918
2.52482
0.836668
76.7158
74.2159
71.182
67.888
64.5642
61.2531
57.9421
54.6356
51.3544
48.1201
44.95
41.8579
38.8556
35.952
33.154
30.4655
27.8878
25.4195
23.0565
20.7924
18.6183
16.5232
14.4946
12.5188
10.5822
8.67228
6.77892
4.89605
3.02383
1.17096
77.5398
75.2133
72.3883
69.3117
66.1939
63.0732
59.9357
56.7834
53.6335
50.5051
47.4141
44.3735
41.3948
38.4875
35.6595
32.9159
30.2599
27.6922
25.211
22.8125
20.4904
18.2365
16.041
13.8931
11.7811
9.69431
7.62305
5.56045
3.50342
1.46721
78.2352
76.0565
73.4113
70.5232
67.5856
64.6334
61.6519
58.6406
55.6139
52.5885
49.5783
46.5955
43.6508
40.7538
37.9125
35.1331
32.4197
29.7745
27.1977
24.6872
22.239
19.8471
17.5039
15.2005
12.9273
10.6744
8.43233
6.193
3.94975
1.72014
78.8208
76.7684
74.278
71.553
68.7727
65.9688
63.1263
60.2426
57.3296
54.4015
51.4707
48.548
45.6433
42.7658
39.9233
37.1224
34.368
31.6632
29.0095
26.4061
23.8509
21.3395
18.8661
16.4235
14.003
11.5957
9.19195
6.78224
4.35663
1.93206
79.3126
77.368
75.0104
72.4266
69.7829
67.109
64.3894
61.6199
58.8101
55.9722
53.1171
50.2541
47.3922
44.5399
41.7046
38.893
36.1103
33.3603
30.645
27.9652
25.3196
22.7053
20.1177
17.5508
14.9971
12.4478
9.89315
7.3223
4.72257
2.10871
79.7242
77.8712
75.6276
73.1653
70.6399
68.0791
65.4672
62.7989
60.0817
57.3262
54.5415
51.7358
48.917
46.0929
43.2704
40.4559
37.6547
34.8708
32.1069
29.3643
26.6428
23.9403
21.2534
18.5767
15.9034
13.225
10.5316
7.81108
5.04886
2.25669
80.0665
78.2912
76.1447
73.7865
71.3627
68.8996
66.3814
63.8017
61.1666
58.4848
55.7642
53.012
50.235
47.44
44.6335
41.8215
39.0091
36.2004
33.3984
30.6048
27.82
25.0426
22.2698
19.4969
16.7175
13.9234
11.1043
8.24743
5.33671
2.38079
80.3504
78.6402
76.576
74.3062
71.969
69.5893
67.1516
64.6487
62.085
59.4682
56.805
54.1014
51.3633
48.5968
45.8078
43.0017
40.1834
37.3569
34.5254
31.6907
28.8536
26.0132
23.167
20.311
17.4389
14.5426
11.6117
8.63284
5.58912
2.48577
80.5819
78.9259
76.9304
74.7346
72.4701
70.1607
67.791
65.3533
62.8508
60.2901
57.6769
55.0163
52.3134
49.5735
46.8018
44.0035
41.1829
38.344
35.4899
32.6225
29.7427
26.8499
23.9421
21.0152
18.0635
15.0787
12.0504
8.96476
5.80458
2.57184
80.7729
79.1609
77.2218
75.087
72.8823
70.6308
68.3175
65.9339
63.4826
60.9691
58.3982
55.7745
53.1022
50.386
47.6306
44.8406
42.0201
39.1728
36.3016
33.4085
30.4945
27.5592
24.6005
21.6148
18.5962
15.5368
12.4256
9.24901
5.9893
2.64465
80.9199
79.3427
77.4482
75.3617
73.2046
70.9992
68.7308
66.3907
63.9805
61.505
58.9686
56.3751
53.7281
51.0318
48.2905
45.5082
42.6889
39.836
36.9522
34.0395
31.0989
28.1299
25.1307
22.0977
19.0251
15.9048
12.7259
9.47465
6.13332
2.69717
81.0458
79.4941
77.6336
75.5838
73.4626
71.2921
69.0579
66.7508
64.3719
61.9256
59.4156
56.8453
54.218
51.5374
48.8073
46.0316
43.2138
40.3572
37.4643
34.5372
31.5766
28.5822
25.5522
22.483
19.3688
16.2014
12.9699
9.66008
6.25418
2.74288
81.1227
79.5872
77.7489
75.724
73.627
71.4799
69.2684
66.9834
64.6255
62.1988
59.7066
57.152
54.5381
51.8681
49.1458
46.3746
43.558
40.6991
37.8004
34.8637
31.8899
28.8785
25.8278
22.7341
19.5916
16.3921
13.1243
9.77374
6.32252
2.7592
81.2109
79.6765
77.8506
75.8408
73.7575
71.623
69.4237
67.1504
64.8036
62.387
59.9039
57.3571
54.7496
52.0846
49.3655
46.5959
43.779
40.9179
38.015
35.0722
32.0902
29.0688
26.0061
22.8984
19.7399
16.5222
13.2338
9.85923
6.37776
2.7652
)
;

boundaryField
{
    inlet
    {
        type            zeroGradient;
    }
    outlet
    {
        type            fixedValue;
        value           uniform 0;
    }
    flap
    {
        type            zeroGradient;
    }
    upperWall
    {
        type            zeroGradient;
    }
    lowerWall
    {
        type            zeroGradient;
    }
    frontAndBack
    {
        type            empty;
    }
}


// ************************************************************************* //
