/*--------------------------------*- C++ -*----------------------------------*\
  =========                 |
  \\      /  F ield         | OpenFOAM: The Open Source CFD Toolbox
   \\    /   O peration     | Website:  https://openfoam.org
    \\  /    A nd           | Version:  7
     \\/     M anipulation  |
\*---------------------------------------------------------------------------*/
FoamFile
{
    version     2.0;
    format      ascii;
    class       surfaceScalarField;
    location    "1.9";
    object      phi;
}
// * * * * * * * * * * * * * * * * * * * * * * * * * * * * * * * * * * * * * //

dimensions      [0 3 -1 0 0 0 0];

internalField   nonuniform List<scalar> 
5457
(
0.198417
0.00158264
0.196479
0.00193792
0.19419
0.00228896
0.191506
0.00268479
0.188423
0.00308276
0.184944
0.00347866
0.181063
0.00388079
0.176767
0.00429651
0.172036
0.00473096
0.166848
0.00518814
0.161176
0.00567154
0.154992
0.0061841
0.148264
0.00672798
0.14096
0.0073042
0.133048
0.00791211
0.124499
0.0085487
0.115292
0.00920769
0.105413
0.00987843
0.0948684
0.0105447
0.083685
0.0111834
0.0719213
0.0117637
0.0596748
0.0122465
0.0470888
0.012586
0.0343524
0.0127365
0.0216624
0.01269
0.00901969
0.0126427
-0.00291854
0.0119382
-0.00846718
0.00554864
-0.00803677
-0.000430409
-0.00803677
0.199928
0.00165474
0.199175
0.00269092
0.197963
0.00350079
0.196329
0.00431922
0.194267
0.0051444
0.191775
0.00597068
0.188846
0.00681004
0.185466
0.00767595
0.181619
0.00857869
0.17728
0.00952655
0.172425
0.0105268
0.167023
0.0115856
0.161044
0.0127078
0.154452
0.0138961
0.147214
0.0151499
0.139298
0.0164642
0.130679
0.0178275
0.121337
0.0192199
0.111272
0.0206102
0.100502
0.0219532
0.0890783
0.0231873
0.0770925
0.0242323
0.0646892
0.0249892
0.0520855
0.0253402
0.0396299
0.0251456
0.028085
0.0241876
0.0185743
0.0214489
0.00877927
0.0153436
0.00117628
0.00717259
-0.00686049
0.19978
0.00187444
0.199086
0.00338532
0.197944
0.00464259
0.196406
0.00585704
0.194479
0.00707207
0.192158
0.00829159
0.189438
0.00952965
0.18631
0.0108039
0.18276
0.0121293
0.178768
0.0135183
0.174313
0.0149819
0.169369
0.0165296
0.163907
0.0181694
0.157897
0.0199061
0.151306
0.0217407
0.144102
0.0236682
0.136255
0.0256748
0.12774
0.0277352
0.118542
0.0298078
0.108664
0.0318311
0.098133
0.0337184
0.0870123
0.0353531
0.075418
0.0365835
0.063544
0.0372141
0.0517059
0.0369837
0.0403743
0.0355192
0.0297191
0.0321042
0.0191533
0.0259094
0.00958777
0.0167381
0.00272728
0.199703
0.00217163
0.199007
0.00408118
0.197886
0.00576399
0.196373
0.00736916
0.194484
0.00896174
0.192216
0.0105595
0.189566
0.0121795
0.186528
0.0138423
0.183091
0.0155664
0.179241
0.0173676
0.174963
0.0192598
0.170238
0.0212552
0.165043
0.0233639
0.159356
0.025593
0.153152
0.0279449
0.146405
0.0304156
0.139089
0.032991
0.13118
0.0356437
0.12266
0.0383277
0.113519
0.0409721
0.103763
0.0434747
0.0934217
0.0456943
0.0825626
0.0474426
0.0713027
0.0484741
0.0598142
0.0484722
0.0482939
0.0470395
0.0367922
0.0436059
0.0251746
0.037527
0.0133283
0.0285844
0.0160556
0.199667
0.00250448
0.198963
0.00478501
0.197861
0.0068662
0.196378
0.00885207
0.194528
0.0108121
0.192311
0.012776
0.189725
0.0147655
0.186764
0.0168034
0.18342
0.0189107
0.179681
0.0211062
0.175535
0.0234056
0.170967
0.0258232
0.165961
0.0283706
0.160498
0.031056
0.15456
0.033883
0.148127
0.0368483
0.141179
0.0399385
0.133697
0.0431265
0.125659
0.0463652
0.11705
0.0495815
0.107857
0.0526675
0.0980791
0.0554719
0.0877313
0.0577905
0.076848
0.0593573
0.0654815
0.0598388
0.0536847
0.0588362
0.0414352
0.0558554
0.0285743
0.0503879
0.0148453
0.0423134
0.0309009
0.199653
0.00285196
0.198948
0.00548965
0.197869
0.00794506
0.196424
0.0102975
0.194622
0.0126137
0.192467
0.0149314
0.189955
0.0172774
0.187081
0.0196767
0.183839
0.0221528
0.180219
0.0247264
0.176209
0.0274153
0.171798
0.030235
0.16697
0.0331984
0.161711
0.0363148
0.156005
0.0395885
0.149836
0.0430172
0.143186
0.0465886
0.136036
0.0502772
0.128363
0.0540383
0.120143
0.0578012
0.111349
0.0614612
0.101952
0.0648694
0.0919197
0.0678225
0.0812218
0.0700552
0.0698256
0.071235
0.0576926
0.0709693
0.0447412
0.0688067
0.0308354
0.0642937
0.0158661
0.0572828
0.046767
0.19965
0.00320218
0.198953
0.00618623
0.197903
0.00899562
0.196502
0.0116985
0.194758
0.0143576
0.192674
0.0170155
0.190248
0.0197034
0.187475
0.022449
0.184351
0.0252778
0.180865
0.0282124
0.177007
0.0312724
0.172767
0.0344749
0.168132
0.0378338
0.163087
0.0413595
0.157618
0.0450577
0.151708
0.0489273
0.145338
0.0529583
0.138487
0.0571283
0.131128
0.0613975
0.123227
0.0657023
0.114741
0.0699474
0.105615
0.0739958
0.095779
0.0776581
0.0851516
0.0806826
0.0736375
0.082749
0.0611354
0.0834714
0.0475346
0.0824075
0.0327443
0.079084
0.0167755
0.0732515
0.0635425
0.199654
0.00354781
0.198974
0.00686695
0.197957
0.0100123
0.196607
0.0130486
0.194929
0.0160353
0.192927
0.0190181
0.190598
0.0220319
0.18794
0.025107
0.184947
0.0282708
0.181612
0.0315477
0.177925
0.0349592
0.173876
0.0385238
0.169453
0.0422568
0.164642
0.0461704
0.159428
0.0502718
0.153793
0.0545625
0.147715
0.059036
0.141168
0.0636749
0.134119
0.068447
0.126522
0.0732995
0.118317
0.0781522
0.109425
0.0828873
0.099745
0.0873385
0.0891491
0.0912785
0.0774912
0.0944069
0.0646188
0.0963439
0.050395
0.0966314
0.0347526
0.0947264
0.0177819
0.0902223
0.0813244
0.199664
0.00388393
0.199005
0.00752538
0.198028
0.0109896
0.196735
0.0143414
0.195132
0.0176391
0.19322
0.02093
0.190999
0.0242522
0.188468
0.0276384
0.185621
0.0311179
0.182452
0.0347169
0.178953
0.0384583
0.175114
0.0423624
0.170924
0.0464465
0.16637
0.0507245
0.161435
0.0552064
0.156101
0.0598972
0.150341
0.0647952
0.144126
0.0698902
0.137413
0.0751602
0.130146
0.0805669
0.122248
0.0860498
0.113618
0.0915173
0.104122
0.0968347
0.093591
0.101809
0.0818265
0.106171
0.0686172
0.109553
0.0537769
0.111472
0.0372193
0.111284
0.0190746
0.108367
0.100399
0.199677
0.00420701
0.199046
0.00815626
0.198114
0.0119219
0.196884
0.015571
0.195361
0.0191618
0.193548
0.0227429
0.191446
0.0263547
0.189052
0.0300322
0.186364
0.0338065
0.183375
0.0377053
0.18008
0.0417534
0.17647
0.0459726
0.172534
0.0503823
0.16826
0.0549988
0.163631
0.0598353
0.158627
0.0649012
0.153221
0.0702013
0.147377
0.0757341
0.141047
0.0814901
0.134165
0.087449
0.12664
0.0935745
0.11835
0.0998074
0.109131
0.106054
0.0987704
0.11217
0.0870088
0.117933
0.073553
0.123009
0.0581198
0.126905
0.0405324
0.128871
0.0208916
0.128008
0.121291
0.199693
0.0045144
0.199094
0.00875531
0.198211
0.0128045
0.19705
0.0167322
0.195615
0.020597
0.193908
0.024449
0.191933
0.0283304
0.189687
0.0322782
0.187168
0.036325
0.184374
0.0405001
0.181297
0.0448297
0.177932
0.0493375
0.17427
0.0540448
0.170298
0.0589706
0.166001
0.0641319
0.16136
0.069543
0.156345
0.0752157
0.150921
0.0811588
0.145034
0.0873771
0.138612
0.0938704
0.131556
0.10063
0.123727
0.107636
0.114935
0.114846
0.104926
0.122179
0.0933682
0.129491
0.0798551
0.136522
0.0639347
0.142825
0.0452126
0.147593
0.0236008
0.14962
0.144891
0.19971
0.00480403
0.199147
0.00931899
0.198318
0.0136332
0.19723
0.0178199
0.195888
0.0219391
0.194295
0.0260417
0.192454
0.0301717
0.190365
0.0343676
0.188026
0.0386634
0.185437
0.0430897
0.182592
0.0476741
0.179488
0.0524419
0.176116
0.0574164
0.172468
0.0626192
0.168529
0.068071
0.164281
0.0737912
0.159697
0.0797991
0.154742
0.0861137
0.149365
0.0927548
0.143492
0.0997433
0.137021
0.107101
0.129807
0.11485
0.121646
0.123007
0.112249
0.131577
0.101213
0.140526
0.0879946
0.149741
0.071884
0.158936
0.0520608
0.167417
0.0278738
0.173807
0.172765
0.19973
0.00507429
0.199204
0.00984446
0.198433
0.0144043
0.197423
0.0188301
0.196179
0.0231831
0.194705
0.0275153
0.193005
0.031872
0.19108
0.0362928
0.18893
0.040813
0.186556
0.0454643
0.183954
0.0502753
0.181123
0.0552728
0.178058
0.0604816
0.174751
0.065926
0.171193
0.0716298
0.167367
0.0776171
0.163252
0.083914
0.158816
0.0905493
0.154014
0.0975566
0.148781
0.104977
0.143021
0.112861
0.136599
0.121273
0.129312
0.130294
0.120864
0.140024
0.110812
0.150578
0.0984822
0.16207
0.0828547
0.174563
0.0624066
0.187865
0.0351131
0.2011
0.207878
0.19975
0.00532392
0.199265
0.0103294
0.198555
0.0151148
0.197626
0.0197592
0.196484
0.024325
0.195134
0.0288651
0.19358
0.0334258
0.191825
0.0380478
0.189871
0.042767
0.18772
0.047616
0.185371
0.0526243
0.182824
0.0578195
0.180078
0.0632279
0.177128
0.0688756
0.173969
0.0747889
0.17059
0.0809958
0.166976
0.0875278
0.163104
0.0944214
0.158939
0.101721
0.154431
0.109485
0.149505
0.117787
0.144049
0.126728
0.137898
0.136445
0.130793
0.147129
0.12232
0.159052
0.111786
0.172605
0.0979606
0.188388
0.0785045
0.207321
0.0486564
0.230948
0.256535
0.199772
0.00555195
0.199329
0.010772
0.198682
0.0157624
0.197837
0.0206043
0.1968
0.0253614
0.195578
0.0300874
0.194175
0.034829
0.192595
0.0396277
0.190842
0.04452
0.188919
0.0495387
0.186829
0.054714
0.184575
0.060074
0.182157
0.0656457
0.179576
0.0714563
0.176832
0.0775337
0.173919
0.0839083
0.170832
0.090615
0.167558
0.0976952
0.164079
0.105201
0.160365
0.113199
0.156374
0.121779
0.152039
0.131063
0.147262
0.141222
0.141884
0.152507
0.135645
0.165291
0.128076
0.180174
0.118239
0.198225
0.103887
0.221673
0.0777018
0.257133
0.334236
0.00672377
-0.00672377
0.0127537
-0.00602997
0.0179353
-0.00518153
0.0224287
-0.00449338
0.026375
-0.0039464
0.0298688
-0.0034938
0.0329771
-0.00310827
0.0357468
-0.00276965
0.0382026
-0.00245581
0.0403527
-0.00215013
0.0422086
-0.00185592
0.0437941
-0.00158544
0.0451132
-0.00131912
0.0461327
-0.00101952
0.0468532
-0.000720524
0.0473239
-0.000470679
0.0475675
-0.00024361
0.04762
-5.24276e-05
0.0475278
9.21491e-05
0.0474512
7.65608e-05
0.047434
1.72381e-05
0.047472
-3.79743e-05
0.0475067
-3.47688e-05
0.0474928
1.39959e-05
0.047444
4.87748e-05
0.0474643
-2.02904e-05
0.0476795
-0.000215259
0.0482963
-0.000616806
0.049471
-0.00117465
-0.00185727
0.00523199
-0.0119558
0.0103427
-0.0111407
0.0148587
-0.00969756
0.018813
-0.00844768
0.0223125
-0.00744589
0.0254367
-0.00661792
0.0282402
-0.00591177
0.0307615
-0.00529096
0.0330186
-0.00471292
0.0350091
-0.00414062
0.0367342
-0.00358105
0.0382262
-0.00307746
0.0395135
-0.0026064
0.0405513
-0.00205733
0.0413565
-0.0015257
0.0419597
-0.00107386
0.0420806
-0.000364522
0.0415158
0.000512303
0.0402285
0.00137947
0.0383346
0.00197044
0.0360272
0.00232472
0.033536
0.00245322
0.0311263
0.00237493
0.0290272
0.00211304
0.0274289
0.00164709
0.0265316
0.000876985
0.0262649
5.14605e-05
0.026806
-0.00115785
0.0284117
-0.00278039
-0.00454155
0.00379714
-0.0157529
0.0074743
-0.0148178
0.0107191
-0.0129424
0.0135533
-0.0112819
0.0160288
-0.00992134
0.0181903
-0.0087794
0.0200735
-0.00779505
0.0217102
-0.00692758
0.023112
-0.00611478
0.0242589
-0.00528751
0.0251154
-0.00443749
0.025723
-0.00368506
0.026184
-0.0030674
0.0262543
-0.00212763
0.0253672
-0.000638616
0.0233514
0.00094194
0.020875
0.00211185
0.0183664
0.00302092
0.015879
0.00386687
0.0133681
0.00448133
0.0109296
0.00476321
0.00868494
0.00469789
0.0067612
0.00429866
0.00530745
0.00356679
0.00445174
0.0025028
0.00421641
0.00111231
0.00489714
-0.000629269
0.00651564
-0.00277635
0.00917695
-0.0054417
-0.00741553
0.00237106
-0.018124
0.00446434
-0.0169111
0.00622836
-0.0147064
0.00770863
-0.0127622
0.00891385
-0.0111266
0.00984882
-0.00971437
0.0105167
-0.00846291
0.0109448
-0.00735574
0.0111567
-0.0063266
0.0111447
-0.00527558
0.0107875
-0.00408023
0.0097358
-0.00263339
0.00767767
-0.00100927
0.00501474
0.000535293
0.00263514
0.00174099
0.000708893
0.00286819
-0.0011918
0.00401254
-0.00311483
0.00494394
-0.00495243
0.00570447
-0.00663835
0.00616726
-0.00811619
0.00624105
-0.00931641
0.00589811
-0.010161
0.00514328
-0.0105897
0.00399544
-0.0105743
0.00248743
-0.0100951
0.000633095
-0.00910983
-0.00161452
-0.00769025
-0.00419594
-0.00630747
-0.00682447
-0.00875132
0.000807789
-0.0189318
0.00123114
-0.0173345
0.00138598
-0.0148612
0.00136267
-0.0127389
0.00110163
-0.0108655
0.000599555
-0.00921229
-0.000161301
-0.00770205
-0.00125032
-0.00626672
-0.00272274
-0.00485418
-0.00457398
-0.00342435
-0.00672052
-0.00193369
-0.00897831
-0.000375592
-0.0109471
0.000959535
-0.0125981
0.00218633
-0.0142404
0.00338326
-0.0158772
0.00450494
-0.017394
0.0055294
-0.0188016
0.00635153
-0.0200245
0.0069274
-0.0210248
0.00716756
-0.0217858
0.00700204
-0.0222919
0.00640417
-0.0225272
0.00537861
-0.0224847
0.00395294
-0.0221718
0.00217447
-0.0215951
5.6395e-05
-0.0208301
-0.00237948
-0.0199855
-0.00504058
-0.0192332
-0.00757671
-0.00951231
-0.000863689
-0.0180681
-0.00215627
-0.0160419
-0.00362903
-0.0133885
-0.00526513
-0.0111028
-0.00705776
-0.00907289
-0.00901021
-0.00725984
-0.01111
-0.0056023
-0.0133195
-0.00405717
-0.0155902
-0.00258351
-0.0178671
-0.00114738
-0.0200216
0.000220816
-0.0218767
0.00147943
-0.023558
0.00264091
-0.0251577
0.00378598
-0.0266543
0.0048799
-0.0280257
0.00587629
-0.0292226
0.00672627
-0.0302295
0.00735851
-0.0310189
0.00771673
-0.0315845
0.00773323
-0.0319383
0.00735585
-0.0320959
0.00656169
-0.0320705
0.00535327
-0.031874
0.00375636
-0.0315163
0.00181679
-0.031007
-0.000452822
-0.0304331
-0.00295344
-0.029907
-0.00556662
-0.0294811
-0.00800269
-0.00986464
-0.00259367
-0.0154744
-0.00554643
-0.0130891
-0.00854266
-0.0103923
-0.011546
-0.00809948
-0.0144991
-0.00611974
-0.0173669
-0.00439202
-0.0201253
-0.00284391
-0.0227561
-0.00142643
-0.0252347
-0.000104833
-0.027452
0.00106984
-0.0294027
0.00217153
-0.0311719
0.00324864
-0.0328281
0.00429714
-0.034342
0.00529983
-0.0356882
0.00622616
-0.0368468
0.00703487
-0.037798
0.00767743
-0.0385364
0.00809697
-0.0390608
0.00824109
-0.0393847
0.00805711
-0.0395332
0.00750437
-0.0395329
0.00656146
-0.0394061
0.00522644
-0.0391687
0.00351897
-0.0388291
0.00147718
-0.0384195
-0.000862436
-0.0380113
-0.00336165
-0.0377045
-0.00587339
-0.0375246
-0.00818265
-0.00991346
-0.00428
-0.0111944
-0.00868979
-0.00867934
-0.0129077
-0.00617439
-0.0168811
-0.00412599
-0.0205584
-0.00244246
-0.0239301
-0.00102039
-0.0269759
0.0002019
-0.0296758
0.00127346
-0.032036
0.00225544
-0.0341583
0.00319211
-0.0361083
0.00412154
-0.0378873
0.00502765
-0.0394887
0.00589857
-0.0409009
0.00671198
-0.042111
0.00743629
-0.0431093
0.00803311
-0.0438909
0.00845904
-0.0444612
0.00866725
-0.0448329
0.00861282
-0.0450292
0.00825339
-0.0450799
0.0075551
-0.045015
0.00649652
-0.0448594
0.00507092
-0.0446318
0.0032913
-0.0443487
0.00119406
-0.0440569
-0.00115421
-0.0438176
-0.00360092
-0.0436975
-0.00599351
-0.0437259
-0.00815428
-0.00972546
-0.00580621
-0.00538819
-0.0115012
-0.00298432
-0.0166434
-0.00103225
-0.0211857
0.000416373
-0.0251462
0.00151801
-0.0285839
0.00241736
-0.0315832
0.00320112
-0.0342464
0.00393673
-0.036648
0.00465701
-0.0388222
0.00536626
-0.0407742
0.00607354
-0.0425129
0.00676635
-0.04404
0.00742569
-0.0453533
0.00802532
-0.0464499
0.0085329
-0.0473292
0.00891234
-0.0479955
0.00912542
-0.0484615
0.00913317
-0.0487469
0.00889823
-0.0488794
0.00838595
-0.0488914
0.00756711
-0.0488151
0.00642015
-0.0486782
0.00493407
-0.0485028
0.00311588
-0.0483125
0.00100377
-0.0481531
-0.00131364
-0.0480765
-0.00367755
-0.0481296
-0.00594032
-0.0483413
-0.00794258
-0.00935854
-0.00713405
0.00174586
-0.0135927
0.00347434
-0.0191004
0.0044754
-0.0238026
0.00511864
-0.0278623
0.00557763
-0.0314003
0.00595536
-0.0345074
0.00630822
-0.0372499
0.00667929
-0.0396775
0.00708455
-0.0418308
0.00751958
-0.0437323
0.00797508
-0.0453983
0.00843235
-0.0468384
0.00886577
-0.0480574
0.0092443
-0.0490586
0.00953415
-0.0498474
0.0097011
-0.0504336
0.00971164
-0.050834
0.00953355
-0.0510724
0.00913664
-0.0511794
0.00849294
-0.0511897
0.0075774
-0.0511383
0.00636874
-0.0510562
0.00485206
-0.0509681
0.00302774
-0.0508979
0.000933549
-0.0508843
-0.0013272
-0.0509696
-0.0035923
-0.0511915
-0.00571841
-0.051572
-0.00756203
-0.00883955
-0.00762692
0.00937278
-0.0145077
0.0103551
-0.0203839
0.0103516
-0.0253721
0.0101069
-0.0296024
0.00980791
-0.033206
0.00955895
-0.0363061
0.00940836
-0.039
0.00937319
-0.041356
0.00944055
-0.0434209
0.00958438
-0.0452253
0.00977949
-0.0467914
0.0099985
-0.0481339
0.0102083
-0.0492614
0.0103718
-0.0501801
0.0104528
-0.0508979
0.0104189
-0.0514273
0.010241
-0.0517873
0.00989358
-0.0520042
0.00935349
-0.0521108
0.00859959
-0.0521449
0.00761142
-0.0521448
0.00636865
-0.0521453
0.00485263
-0.0521732
0.00305558
-0.0522487
0.00100908
-0.0523981
-0.00117783
-0.0526532
-0.00333722
-0.0530461
-0.00532545
-0.0535917
-0.00701642
-0.00817034
-0.00815464
0.0175274
-0.0155291
0.0177296
-0.0216456
0.0164681
-0.0266505
0.0151118
-0.0307802
0.0139376
-0.0342271
0.0130059
-0.0371448
0.0123261
-0.0396568
0.0118852
-0.041845
0.0116287
-0.0437558
0.0114952
-0.0454197
0.0114435
-0.0468613
0.01144
-0.0480972
0.0114442
-0.0491362
0.0114108
-0.0499835
0.0113001
-0.0506467
0.011082
-0.0511385
0.0107329
-0.0514786
0.0102337
-0.0516944
0.0095693
-0.0518211
0.00872623
-0.0518994
0.0076898
-0.0519724
0.00644159
-0.0520792
0.00495948
-0.0522491
0.0032254
-0.0524968
0.00125682
-0.0528309
-0.000843765
-0.0532697
-0.00289839
-0.0538424
-0.00475277
-0.0545592
-0.00629962
-0.00734121
-0.0091629
0.0266903
-0.0171119
0.0256786
-0.0231914
0.0225476
-0.0278355
0.0197558
-0.0315438
0.0176459
-0.0345837
0.0160458
-0.0371236
0.0148659
-0.0393129
0.0140745
-0.0412403
0.0135561
-0.0429354
0.0131903
-0.0444176
0.0129257
-0.0457112
0.0127336
-0.0468338
0.0125668
-0.0477901
0.012367
-0.0485799
0.01209
-0.0492073
0.0117094
-0.0496833
0.0112089
-0.0500266
0.0105769
-0.050264
0.00980675
-0.0504322
0.00889444
-0.0505756
0.00783322
-0.0507423
0.00660824
-0.0509775
0.00519467
-0.0513139
0.00356184
-0.0517612
0.00170407
-0.0523074
-0.000297507
-0.0529509
-0.00225489
-0.0537178
-0.00398588
-0.0546215
-0.00539592
-0.00633581
-0.0110157
0.037706
-0.0198102
0.034473
-0.025384
0.0281214
-0.0290619
0.0234338
-0.0319524
0.0205363
-0.0343263
0.0184198
-0.0362782
0.0168179
-0.0379961
0.0157924
-0.0395795
0.0151396
-0.0410048
0.0146156
-0.0422635
0.0141844
-0.0433837
0.0138538
-0.0443876
0.0135708
-0.045271
0.0132504
-0.0460223
0.0128412
-0.046639
0.0123261
-0.0471291
0.011699
-0.0475078
0.0109557
-0.047799
0.0100979
-0.0480382
0.00913371
-0.0482727
0.00806771
-0.0485559
0.00689141
-0.0489406
0.00557933
-0.049466
0.00408731
-0.0501389
0.00237691
-0.0509313
0.000494961
-0.0518128
-0.00137338
-0.0527972
-0.00300153
-0.0539125
-0.00428064
-0.00513202
-0.0145387
0.0522448
-0.0245784
0.0445127
-0.0287744
0.0323175
-0.0303302
0.0249896
-0.0319321
0.0221382
-0.0334411
0.0199287
-0.0345838
0.0179606
-0.0356622
0.0168708
-0.036849
0.0163263
-0.0379647
0.0157312
-0.0389489
0.0151686
-0.0398565
0.0147614
-0.0407318
0.0144461
-0.0415522
0.0140708
-0.042285
0.013574
-0.0429208
0.0129619
-0.0434652
0.0122434
-0.0439276
0.0114181
-0.0443234
0.0104937
-0.0446822
0.00949252
-0.0450506
0.00843608
-0.0454856
0.00732644
-0.0460477
0.00614139
-0.0467869
0.00482657
-0.0477129
0.00330293
-0.048785
0.00156706
-0.0499486
-0.000209821
-0.0511922
-0.00175794
-0.0525511
-0.00292166
-0.00369154
0.207447
0.00576508
0.207033
0.0111854
0.206429
0.0163662
0.205643
0.0213904
0.204682
0.0263229
0.203552
0.0312175
0.202259
0.0361218
0.200809
0.0410773
0.199208
0.0461207
0.197462
0.0512851
0.195576
0.0566006
0.193554
0.0620952
0.191404
0.0677962
0.189129
0.0737308
0.186736
0.0799274
0.184227
0.0864171
0.181606
0.0932356
0.178876
0.100426
0.176035
0.108041
0.173083
0.116151
0.170017
0.124845
0.166831
0.134249
0.163521
0.144532
0.160091
0.155937
0.156565
0.168817
0.153041
0.183698
0.149891
0.201375
0.14881
0.222755
0.160645
0.245299
0.258231
0.236651
0.21249
0.00595787
0.212116
0.011559
0.211572
0.016911
0.210864
0.0220981
0.210001
0.0271856
0.208991
0.0322279
0.20784
0.0372723
0.206557
0.0423606
0.205149
0.0475291
0.203623
0.0528106
0.201989
0.0582347
0.200255
0.0638289
0.198432
0.0696198
0.196529
0.0756338
0.194558
0.0818981
0.192532
0.0884428
0.190466
0.0953016
0.188377
0.102515
0.186287
0.110131
0.184224
0.118214
0.182229
0.126841
0.180362
0.136115
0.178724
0.14617
0.177487
0.157174
0.176975
0.169329
0.177844
0.182829
0.181516
0.197702
0.190607
0.213664
0.206129
0.229777
0.245091
0.219268
0.217657
0.0061282
0.217327
0.0118888
0.216847
0.0173909
0.216226
0.0227196
0.215471
0.0279403
0.214592
0.0331075
0.213596
0.0382681
0.212493
0.0434635
0.211293
0.0487295
0.210005
0.0540979
0.208643
0.0595975
0.207217
0.0652544
0.205743
0.0710937
0.204237
0.07714
0.202717
0.0834181
0.201205
0.0899547
0.199727
0.0967793
0.198316
0.103926
0.197014
0.111434
0.195877
0.119351
0.194982
0.127735
0.194443
0.136654
0.19443
0.146182
0.195207
0.156397
0.197185
0.167352
0.200972
0.179042
0.207338
0.191337
0.216933
0.204068
0.229457
0.217253
0.228312
0.246237
0.222951
0.00627405
0.222669
0.012171
0.222259
0.0178004
0.221731
0.0232477
0.221093
0.0285783
0.220354
0.0338461
0.219525
0.0390975
0.218616
0.0443729
0.217638
0.0497074
0.216604
0.0551313
0.21553
0.0606718
0.214431
0.0663534
0.213326
0.0721987
0.212237
0.0782293
0.211188
0.0844666
0.210211
0.0909322
0.209341
0.0976491
0.208624
0.104642
0.208119
0.111939
0.207902
0.119568
0.208075
0.127562
0.208779
0.13595
0.210205
0.144756
0.212617
0.153985
0.216359
0.16361
0.221849
0.173552
0.229529
0.183656
0.239963
0.193635
0.254057
0.203159
0.209974
0.272395
0.228374
0.00639357
0.228143
0.0124018
0.227809
0.0181343
0.227381
0.0236759
0.226868
0.0290915
0.226279
0.0344343
0.225627
0.0397499
0.224923
0.0450773
0.22418
0.0504501
0.223414
0.0558972
0.222642
0.0614436
0.221884
0.0671114
0.221163
0.0729201
0.220504
0.0788878
0.21994
0.085031
0.219507
0.0913655
0.219249
0.0979064
0.219223
0.104668
0.219498
0.111664
0.220161
0.118906
0.221324
0.126399
0.223133
0.134142
0.22577
0.142119
0.229466
0.150289
0.234498
0.158578
0.241192
0.166858
0.249922
0.174926
0.261128
0.182428
0.275278
0.189009
0.193587
0.291665
0.233929
0.00648507
0.233753
0.0125782
0.233499
0.0183879
0.233177
0.0239981
0.232796
0.0294728
0.232366
0.0348641
0.2319
0.0402161
0.23141
0.0455665
0.230913
0.0509472
0.230426
0.0563848
0.229967
0.061902
0.229561
0.0675179
0.229232
0.0732488
0.229012
0.0791082
0.228935
0.0851075
0.229045
0.0912559
0.229391
0.0975603
0.230034
0.104025
0.231049
0.110649
0.232527
0.117428
0.234578
0.124348
0.237338
0.131382
0.240969
0.138487
0.245662
0.145595
0.251637
0.152603
0.259132
0.159364
0.268386
0.165672
0.279574
0.17124
0.292785
0.175798
0.178836
0.307536
0.239619
0.00654706
0.2395
0.0126971
0.239331
0.018557
0.23912
0.0242091
0.238877
0.029716
0.238613
0.0351283
0.23834
0.0404886
0.238074
0.0458328
0.237831
0.0511905
0.237629
0.0565863
0.237491
0.0620399
0.237442
0.0675674
0.23751
0.0731811
0.237727
0.0788902
0.238134
0.0847007
0.238775
0.0906152
0.239703
0.0966327
0.24098
0.102748
0.24268
0.108949
0.244892
0.115217
0.247716
0.121523
0.251272
0.127826
0.255694
0.134065
0.261131
0.140159
0.267736
0.145998
0.275658
0.151441
0.285015
0.156315
0.295849
0.160407
0.308146
0.163501
0.165336
0.321646
0.245448
0.00657826
0.245389
0.0127562
0.245308
0.0186382
0.245212
0.0243046
0.245112
0.0298161
0.245019
0.0352216
0.244946
0.0405617
0.244908
0.0458704
0.244924
0.0511749
0.245013
0.0564972
0.245199
0.0618542
0.245507
0.0672587
0.245969
0.0727192
0.246619
0.0782404
0.247497
0.0838232
0.248648
0.0894642
0.250125
0.0951554
0.251989
0.100883
0.25431
0.106628
0.257167
0.11236
0.260648
0.118042
0.264851
0.123623
0.26988
0.129037
0.275839
0.134199
0.282829
0.139009
0.290928
0.143342
0.300181
0.147062
0.310578
0.15001
0.322048
0.152031
0.152993
0.33439
0.251418
0.00657766
0.25142
0.0127535
0.25143
0.0186288
0.251453
0.0242811
0.2515
0.0297692
0.251582
0.0351398
0.251712
0.0404315
0.251907
0.0456758
0.252184
0.0508976
0.252565
0.0561163
0.253073
0.0613458
0.253736
0.0665956
0.254585
0.0718707
0.255654
0.0771716
0.256982
0.0824946
0.258615
0.0878313
0.260602
0.093168
0.263001
0.0984852
0.265871
0.103757
0.269283
0.108949
0.273308
0.114017
0.278022
0.118909
0.283499
0.123559
0.289809
0.12789
0.297006
0.131811
0.305124
0.135224
0.314164
0.138022
0.32408
0.140094
0.334774
0.141338
0.141694
0.346073
0.257532
0.00654449
0.257598
0.0126877
0.2577
0.0185268
0.257845
0.0241365
0.258041
0.029573
0.2583
0.0348809
0.258635
0.0400962
0.259063
0.0452481
0.259601
0.0503591
0.260272
0.0554458
0.261098
0.0605195
0.262107
0.0655864
0.26333
0.0706482
0.264799
0.0757021
0.266554
0.0807404
0.268634
0.0857506
0.271087
0.0907152
0.273961
0.0956108
0.27731
0.100408
0.281189
0.105069
0.285655
0.109552
0.290761
0.113803
0.296557
0.117763
0.303082
0.121364
0.310361
0.124533
0.318395
0.127191
0.327156
0.12926
0.336581
0.130669
0.346566
0.131353
0.131291
0.356969
0.263794
0.00647828
0.263924
0.0125577
0.26412
0.018331
0.264387
0.0238694
0.264733
0.0292264
0.26517
0.034444
0.26571
0.0395559
0.26637
0.0445887
0.267166
0.0495625
0.268121
0.0544912
0.269257
0.0593836
0.2706
0.0642432
0.27218
0.0690688
0.274027
0.0738546
0.276177
0.0785902
0.278668
0.0832603
0.281538
0.0878449
0.28483
0.0923185
0.288587
0.0966506
0.292852
0.100805
0.297665
0.104739
0.303063
0.108406
0.309073
0.111753
0.315713
0.114724
0.322984
0.117262
0.330867
0.119308
0.339319
0.120808
0.348271
0.121717
0.357626
0.121999
0.121653
0.367264
0.270206
0.00637885
0.270401
0.0123632
0.270691
0.0180411
0.27108
0.0234798
0.271577
0.0287298
0.272191
0.0338304
0.272934
0.0388129
0.273821
0.0437014
0.27487
0.0485135
0.2761
0.0532609
0.277534
0.0579498
0.279196
0.0625816
0.281112
0.0671527
0.283311
0.0716553
0.285824
0.0760769
0.288684
0.0804007
0.291924
0.0846055
0.295576
0.0886657
0.299676
0.0925513
0.304252
0.0962281
0.309333
0.0996582
0.314938
0.1028
0.32108
0.105611
0.327759
0.108045
0.334961
0.11006
0.342655
0.111613
0.350792
0.112671
0.359304
0.113206
0.368101
0.113201
0.112668
0.377085
0.276773
0.00624629
0.277032
0.0121046
0.277415
0.0176576
0.277927
0.0229685
0.278572
0.0280847
0.279359
0.0330427
0.280301
0.0378713
0.281411
0.042592
0.282704
0.0472203
0.284199
0.0517657
0.285916
0.0562325
0.287878
0.06062
0.290107
0.0649231
0.29263
0.0691325
0.295472
0.0732348
0.29866
0.0772126
0.302221
0.0810447
0.30618
0.0847066
0.310561
0.0881704
0.315384
0.0914053
0.320664
0.0943785
0.326409
0.0970555
0.332618
0.0994013
0.339281
0.101382
0.346375
0.102966
0.353861
0.104127
0.36169
0.104842
0.369797
0.105099
0.378104
0.104894
0.104244
0.386528
0.283498
0.00608096
0.28382
0.0117826
0.284296
0.0171818
0.284927
0.0223377
0.285717
0.0272942
0.286675
0.0320852
0.287809
0.0367368
0.289133
0.0412683
0.29066
0.0456931
0.292407
0.0500188
0.294391
0.054248
0.296633
0.0583788
0.299151
0.0624048
0.301967
0.0663161
0.305103
0.0700989
0.30858
0.0737362
0.312416
0.077208
0.316631
0.0804916
0.321239
0.0835621
0.326252
0.086393
0.331674
0.0889566
0.337504
0.0912253
0.343733
0.0931724
0.350342
0.0947731
0.357302
0.096006
0.364574
0.0968543
0.372109
0.0973071
0.379848
0.0973609
0.387724
0.0970188
0.0963013
0.395666
0.290384
0.00588351
0.290768
0.0113984
0.291334
0.0166157
0.292082
0.0215901
0.293013
0.0263623
0.294135
0.0309633
0.295455
0.0354167
0.296984
0.0397397
0.298733
0.0439438
0.300717
0.048035
0.302951
0.0520146
0.30545
0.0558797
0.308231
0.0596235
0.311311
0.0632359
0.314707
0.0667034
0.318433
0.0700102
0.322503
0.0731379
0.326928
0.0760664
0.331716
0.0787742
0.33687
0.0812391
0.342387
0.083439
0.34826
0.0853525
0.354473
0.0869599
0.361001
0.0882443
0.367815
0.0891921
0.374875
0.0897945
0.382134
0.0900479
0.38954
0.0899548
0.397036
0.0895231
0.0887741
0.404563
0.297435
0.00565478
0.297879
0.0109537
0.298533
0.0159619
0.299393
0.0207297
0.300462
0.0252942
0.301741
0.0296838
0.303238
0.0339196
0.304961
0.0380169
0.306919
0.0419855
0.309124
0.0458301
0.311588
0.0495511
0.314322
0.053145
0.317341
0.056605
0.320656
0.0599212
0.324278
0.0630811
0.328218
0.0660704
0.332483
0.0688729
0.337078
0.0714712
0.342005
0.0738474
0.34726
0.0759838
0.352836
0.0778631
0.358719
0.0794696
0.364889
0.0807896
0.371321
0.0818123
0.377983
0.0825303
0.384837
0.0829405
0.39184
0.0830444
0.398947
0.0828481
0.406108
0.0823624
0.0816079
0.413274
0.304654
0.00539582
0.305157
0.0104507
0.305895
0.0152237
0.306864
0.0197608
0.308063
0.0240957
0.309492
0.0282541
0.311157
0.0322549
0.313063
0.0361115
0.315216
0.0398322
0.317625
0.0434207
0.3203
0.0468768
0.323248
0.0501969
0.326478
0.0533743
0.33
0.0563999
0.333818
0.0592626
0.337939
0.0619495
0.342365
0.064447
0.347095
0.0667407
0.352127
0.0688162
0.357451
0.0706596
0.363056
0.0722581
0.368925
0.0736008
0.375035
0.0746789
0.381361
0.0754864
0.387871
0.0760205
0.394529
0.0762821
0.401298
0.0762759
0.408136
0.0760104
0.415001
0.0754974
0.0747565
0.421852
0.312046
0.00510786
0.312605
0.00989164
0.313424
0.0144047
0.314497
0.0186884
0.315819
0.0227733
0.317391
0.0266825
0.319213
0.0304326
0.321289
0.0340355
0.323623
0.0374981
0.32622
0.0408234
0.329086
0.0440109
0.332226
0.0470569
0.335645
0.0499554
0.339347
0.0526981
0.343334
0.0552755
0.347607
0.0576766
0.352164
0.0598901
0.357
0.0619045
0.362108
0.0637085
0.367475
0.065292
0.373088
0.0666459
0.378925
0.0677631
0.384966
0.0686386
0.391182
0.0692703
0.397544
0.0696585
0.404019
0.0698068
0.410573
0.0697219
0.41717
0.0694134
0.423774
0.0688935
0.0681801
0.43035
0.319615
0.00479219
0.320228
0.00927921
0.321124
0.0135087
0.322294
0.0175179
0.323734
0.021334
0.325439
0.0249775
0.327408
0.0284631
0.329642
0.0318011
0.332143
0.0349975
0.334912
0.0380546
0.337951
0.0409716
0.341263
0.0437453
0.344848
0.0463702
0.348707
0.0488393
0.352838
0.0511445
0.357237
0.0532768
0.3619
0.0552271
0.366818
0.0569866
0.37198
0.0585468
0.377372
0.0599006
0.382975
0.061042
0.388771
0.0619672
0.394736
0.0626741
0.400843
0.063163
0.407065
0.0634367
0.413371
0.0635004
0.419731
0.0633618
0.426114
0.0630309
0.432488
0.0625196
0.0618442
0.438824
0.327365
0.00445017
0.328028
0.00861605
0.328997
0.0125399
0.330261
0.0162547
0.33181
0.0197846
0.33364
0.0231477
0.335746
0.0263567
0.338127
0.0294205
0.34078
0.0323442
0.343705
0.0351297
0.3469
0.0377761
0.350365
0.0402807
0.354097
0.0426387
0.358092
0.0448443
0.362345
0.0468908
0.366851
0.0487712
0.3716
0.0504784
0.37658
0.0520059
0.381779
0.0533477
0.387181
0.0544991
0.392766
0.0554567
0.398514
0.056219
0.404402
0.056786
0.410405
0.05716
0.416497
0.057345
0.42265
0.0573474
0.428837
0.057175
0.43503
0.0568379
0.441202
0.0563472
0.0557174
0.447329
0.335301
0.00408316
0.336012
0.0079048
0.33705