/*--------------------------------*- C++ -*----------------------------------*\
  =========                 |
  \\      /  F ield         | OpenFOAM: The Open Source CFD Toolbox
   \\    /   O peration     | Website:  https://openfoam.org
    \\  /    A nd           | Version:  7
     \\/     M anipulation  |
\*---------------------------------------------------------------------------*/
FoamFile
{
    version     2.0;
    format      ascii;
    class       volVectorField;
    location    "1.9";
    object      U;
}
// * * * * * * * * * * * * * * * * * * * * * * * * * * * * * * * * * * * * * //

dimensions      [0 1 -1 0 0 0 0];

internalField   nonuniform List<vector> 
2790
(
(9.94398 0.0205263 0)
(9.8757 0.0295948 0)
(9.77515 0.0360013 0)
(9.64932 0.0425731 0)
(9.5039 0.0494079 0)
(9.33979 0.0564566 0)
(9.15616 0.06385 0)
(8.95212 0.0717515 0)
(8.72683 0.0803006 0)
(8.4793 0.0896239 0)
(8.20833 0.0998481 0)
(7.91254 0.111103 0)
(7.59042 0.12352 0)
(7.24036 0.137225 0)
(6.86076 0.152332 0)
(6.4501 0.168926 0)
(6.00707 0.187048 0)
(5.53079 0.206661 0)
(5.02101 0.227621 0)
(4.47847 0.249627 0)
(3.9052 0.272174 0)
(3.30494 0.294501 0)
(2.6835 0.315568 0)
(2.04899 0.334201 0)
(1.41038 0.350465 0)
(0.796879 0.372627 0)
(0.10995 0.324449 0)
(-0.469029 -0.11448 0)
(-0.4536 -0.296184 0)
(-0.230798 -0.423156 0)
(9.9985 0.0407128 0)
(9.98143 0.0624044 0)
(9.93568 0.0791753 0)
(9.86405 0.0966747 0)
(9.77078 0.115189 0)
(9.65687 0.13457 0)
(9.52167 0.155072 0)
(9.36434 0.177056 0)
(9.18406 0.200834 0)
(8.97987 0.226688 0)
(8.75056 0.254892 0)
(8.49476 0.285714 0)
(8.21091 0.319405 0)
(7.89737 0.356175 0)
(7.55244 0.396164 0)
(7.17446 0.439393 0)
(6.76193 0.485701 0)
(6.31372 0.534668 0)
(5.82925 0.585508 0)
(5.30886 0.636957 0)
(4.75415 0.687158 0)
(4.16847 0.733544 0)
(3.55747 0.772788 0)
(2.92989 0.800857 0)
(2.29849 0.813427 0)
(1.69173 0.80681 0)
(1.10619 0.746629 0)
(0.658108 0.547295 0)
(0.185266 0.223562 0)
(-0.00799352 -0.453728 0)
(9.99559 0.0432236 0)
(9.97554 0.0753082 0)
(9.93174 0.103405 0)
(9.86478 0.132455 0)
(9.7776 0.163169 0)
(9.67128 0.195536 0)
(9.5455 0.229907 0)
(9.39964 0.266793 0)
(9.23303 0.306683 0)
(9.04487 0.35004 0)
(8.83417 0.397321 0)
(8.59974 0.448981 0)
(8.34022 0.505455 0)
(8.05412 0.567121 0)
(7.73986 0.634255 0)
(7.39579 0.706951 0)
(7.02034 0.785022 0)
(6.6121 0.867862 0)
(6.17003 0.954273 0)
(5.6937 1.04226 0)
(5.1837 1.12881 0)
(4.64208 1.20962 0)
(4.07302 1.27888 0)
(3.48374 1.32894 0)
(2.88539 1.34958 0)
(2.29821 1.32578 0)
(1.73079 1.22001 0)
(1.21539 0.972334 0)
(0.70058 0.569679 0)
(0.357513 -0.157012 0)
(9.99402 0.0495225 0)
(9.97178 0.0932571 0)
(9.92782 0.133654 0)
(9.86213 0.174325 0)
(9.77675 0.216586 0)
(9.67271 0.26085 0)
(9.54994 0.307656 0)
(9.408 0.357676 0)
(9.2464 0.411583 0)
(9.06457 0.470025 0)
(8.86177 0.533643 0)
(8.63713 0.603077 0)
(8.38963 0.67895 0)
(8.11816 0.761825 0)
(7.8215 0.852152 0)
(7.49839 0.950174 0)
(7.14752 1.0558 0)
(6.76763 1.16843 0)
(6.35763 1.28671 0)
(5.91671 1.40828 0)
(5.44465 1.52937 0)
(4.94217 1.64445 0)
(4.41142 1.74577 0)
(3.85665 1.8227 0)
(3.28437 1.86069 0)
(2.70514 1.8395 0)
(2.12459 1.72508 0)
(1.55343 1.47696 0)
(0.957418 1.0829 0)
(0.509159 0.501628 0)
(9.9933 0.0572435 0)
(9.96992 0.111024 0)
(9.92587 0.16221 0)
(9.86134 0.213497 0)
(9.7778 0.266553 0)
(9.67607 0.322157 0)
(9.55616 0.380992 0)
(9.41771 0.443823 0)
(9.26034 0.511431 0)
(9.08355 0.584579 0)
(8.88677 0.664022 0)
(8.6693 0.750513 0)
(8.43035 0.844789 0)
(8.16907 0.947528 0)
(7.88455 1.0593 0)
(7.57583 1.18045 0)
(7.24191 1.311 0)
(6.88177 1.45041 0)
(6.4944 1.59736 0)
(6.07882 1.74934 0)
(5.63426 1.90228 0)
(5.16027 2.05003 0)
(4.65701 2.18371 0)
(4.12558 2.2911 0)
(3.56793 2.35573 0)
(2.98761 2.35632 0)
(2.38577 2.26383 0)
(1.76556 2.04647 0)
(1.08947 1.69027 0)
(0.536394 1.1531 0)
(9.99301 0.0655754 0)
(9.9692 0.128782 0)
(9.9255 0.190243 0)
(9.86241 0.252027 0)
(9.78109 0.315818 0)
(9.68216 0.382617 0)
(9.56562 0.45323 0)
(9.4312 0.52851 0)
(9.27855 0.609338 0)
(9.10726 0.696583 0)
(8.91682 0.791109 0)
(8.70662 0.893773 0)
(8.476 1.00541 0)
(8.22424 1.1268 0)
(7.95057 1.2586 0)
(7.65418 1.40127 0)
(7.33421 1.55492 0)
(6.98973 1.71915 0)
(6.61972 1.89271 0)
(6.22302 2.07324 0)
(5.79831 2.25669 0)
(5.34412 2.43686 0)
(4.85888 2.60464 0)
(4.341 2.74745 0)
(3.78886 2.84856 0)
(3.20124 2.88701 0)
(2.57547 2.83688 0)
(1.91263 2.67017 0)
(1.17223 2.37255 0)
(0.549717 1.89302 0)
(9.99296 0.0741185 0)
(9.96924 0.146409 0)
(9.92631 0.217637 0)
(9.86496 0.28951 0)
(9.78623 0.36364 0)
(9.69056 0.441181 0)
(9.57795 0.523082 0)
(9.44819 0.610297 0)
(9.30098 0.703799 0)
(9.13595 0.804558 0)
(8.95266 0.913531 0)
(8.75054 1.03166 0)
(8.52901 1.15988 0)
(8.28738 1.29904 0)
(8.02494 1.4499 0)
(7.74089 1.61302 0)
(7.43438 1.78864 0)
(7.10439 1.9765 0)
(6.74972 2.1756 0)
(6.3689 2.38383 0)
(5.96 2.59756 0)
(5.52058 2.81098 0)
(5.04757 3.0155 0)
(4.53718 3.19907 0)
(3.98502 3.34553 0)
(3.38649 3.43458 0)
(2.73608 3.44172 0)
(2.03536 3.33978 0)
(1.24121 3.1118 0)
(0.563261 2.69142 0)
(9.99306 0.0826388 0)
(9.96978 0.163717 0)
(9.928 0.244229 0)
(9.86873 0.325733 0)
(9.79293 0.409777 0)
(9.70096 0.497618 0)
(9.59282 0.590329 0)
(9.46834 0.688962 0)
(9.32727 0.794574 0)
(9.16929 0.908221 0)
(8.994 1.03095 0)
(8.8009 1.1638 0)
(8.58943 1.30778 0)
(8.35894 1.46385 0)
(8.10871 1.63286 0)
(7.83791 1.81551 0)
(7.54557 2.0122 0)
(7.23052 2.22291 0)
(6.89127 2.44697 0)
(6.52588 2.68272 0)
(6.1318 2.92715 0)
(5.70561 3.1753 0)
(5.24282 3.41962 0)
(4.73778 3.64916 0)
(4.18368 3.8489 0)
(3.5732 3.99928 0)
(2.89824 4.07605 0)
(2.16115 4.05036 0)
(1.31554 3.89958 0)
(0.582954 3.53805 0)
(9.99325 0.0909863 0)
(9.97069 0.180535 0)
(9.93039 0.269872 0)
(9.8735 0.360531 0)
(9.80097 0.454025 0)
(9.71313 0.55168 0)
(9.60996 0.654673 0)
(9.49132 0.764144 0)
(9.35704 0.881232 0)
(9.20685 1.00708 0)
(9.04039 1.14281 0)
(8.85722 1.28955 0)
(8.65682 1.44841 0)
(8.43857 1.62046 0)
(8.20174 1.8067 0)
(7.94544 2.00796 0)
(7.6686 2.22488 0)
(7.36985 2.45776 0)
(7.04737 2.70634 0)
(6.69878 2.96962 0)
(6.32083 3.24545 0)
(5.90917 3.53001 0)
(5.45797 3.81722 0)
(4.95977 4.09779 0)
(4.40538 4.35833 0)
(3.78464 4.58023 0)
(3.08614 4.73892 0)
(2.31164 4.80209 0)
(1.41 4.73859 0)
(0.614022 4.43942 0)
(9.99352 0.0990577 0)
(9.97188 0.196722 0)
(9.93334 0.294425 0)
(9.87911 0.393743 0)
(9.81019 0.496183 0)
(9.72685 0.60312 0)
(9.6291 0.715817 0)
(9.51684 0.835496 0)
(9.38995 0.963369 0)
(9.24821 1.10065 0)
(9.09135 1.24856 0)
(8.91897 1.4083 0)
(8.73061 1.58109 0)
(8.52569 1.76812 0)
(8.30349 1.97052 0)
(8.06311 2.18936 0)
(7.80338 2.42554 0)
(7.52279 2.67975 0)
(7.21927 2.95228 0)
(6.89003 3.24292 0)
(6.53124 3.55058 0)
(6.1377 3.87293 0)
(5.70235 4.20575 0)
(5.21593 4.54203 0)
(4.66667 4.87067 0)
(4.04085 5.17481 0)
(3.32205 5.42981 0)
(2.50855 5.5992 0)
(1.54114 5.64058 0)
(0.663743 5.4151 0)
(9.99384 0.106777 0)
(9.97328 0.212159 0)
(9.93673 0.317759 0)
(9.88545 0.42522 0)
(9.82042 0.536066 0)
(9.74193 0.651715 0)
(9.65 0.773498 0)
(9.54458 0.902708 0)
(9.42561 1.04063 0)
(9.29295 1.18854 0)
(9.14637 1.34773 0)
(8.98557 1.5195 0)
(8.81015 1.70516 0)
(8.6196 1.90603 0)
(8.41325 2.12342 0)
(8.19023 2.35862 0)
(7.94936 2.61285 0)
(7.68907 2.88724 0)
(7.40716 3.18275 0)
(7.10061 3.50003 0)
(6.76523 3.83929 0)
(6.3952 4.19995 0)
(5.98248 4.58014 0)
(5.51615 4.97581 0)
(4.98168 5.3793 0)
(4.36091 5.77707 0)
(3.62998 6.14623 0)
(2.77871 6.44744 0)
(1.73263 6.6251 0)
(0.744488 6.49966 0)
(9.9942 0.114087 0)
(9.97484 0.226751 0)
(9.94048 0.339758 0)
(9.89238 0.454826 0)
(9.83151 0.573512 0)
(9.75818 0.697268 0)
(9.67243 0.827483 0)
(9.57427 0.965509 0)
(9.46369 1.11269 0)
(9.34064 1.27036 0)
(9.20496 1.43988 0)
(9.05644 1.62263 0)
(8.89477 1.82001 0)
(8.71954 2.03348 0)
(8.53018 2.26452 0)
(8.32591 2.51463 0)
(8.10564 2.7854 0)
(7.86786 3.07842 0)
(7.61044 3.39532 0)
(7.33038 3.73776 0)
(7.02343 4.10732 0)
(6.68359 4.50544 0)
(6.30234 4.933 0)
(5.86766 5.38976 0)
(5.36259 5.87307 0)
(4.76409 6.37537 0)
(4.03843 6.87982 0)
(3.1598 7.34971 0)
(2.0238 7.71921 0)
(0.880363 7.75311 0)
(9.99459 0.120942 0)
(9.97654 0.240418 0)
(9.94454 0.36032 0)
(9.89981 0.482443 0)
(9.84333 0.608377 0)
(9.77542 0.739608 0)
(9.69615 0.877568 0)
(9.6056 1.02366 0)
(9.50382 1.17926 0)
(9.39083 1.34578 0)
(9.26657 1.52462 0)
(9.13093 1.71723 0)
(8.98372 1.9251 0)
(8.82465 2.1498 0)
(8.6533 2.39295 0)
(8.46905 2.65632 0)
(8.27101 2.94177 0)
(8.05787 3.25138 0)
(7.82778 3.58745 0)
(7.57807 3.95259 0)
(7.30487 4.34981 0)
(7.0026 4.78261 0)
(6.66312 5.25495 0)
(6.27445 5.77112 0)
(5.81866 6.33513 0)
(5.26909 6.9491 0)
(4.58175 7.60964 0)
(3.70798 8.29641 0)
(2.48713 8.95351 0)
(1.12412 9.2887 0)
(9.995 0.127308 0)
(9.97835 0.253096 0)
(9.94883 0.379362 0)
(9.90765 0.50797 0)
(9.85575 0.640543 0)
(9.79347 0.778596 0)
(9.72094 0.923593 0)
(9.63829 1.07697 0)
(9.54563 1.24016 0)
(9.44308 1.41457 0)
(9.33066 1.60168 0)
(9.20839 1.80297 0)
(9.07622 2.02001 0)
(8.934 2.25445 0)
(8.78152 2.50807 0)
(8.61837 2.78278 0)
(8.44395 3.08076 0)
(8.25734 3.40446 0)
(8.05714 3.75675 0)
(7.84133 4.14111 0)
(7.60691 4.56181 0)
(7.34946 5.02426 0)
(7.06239 5.5354 0)
(6.73565 6.10421 0)
(6.35334 6.74242 0)
(5.8899 7.46513 0)
(5.29733 8.29159 0)
(4.50647 9.2425 0)
(3.26775 10.3361 0)
(1.60482 11.3543 0)
(9.99544 0.133156 0)
(9.98023 0.264733 0)
(9.95332 0.396812 0)
(9.91581 0.531314 0)
(9.86864 0.66989 0)
(9.81218 0.814077 0)
(9.74658 0.965363 0)
(9.67205 1.12521 0)
(9.58877 1.29506 0)
(9.49694 1.47638 0)
(9.39669 1.67064 0)
(9.28816 1.87936 0)
(9.17146 2.10417 0)
(9.04662 2.34676 0)
(8.91364 2.60901 0)
(8.77242 2.89297 0)
(8.62271 3.201 0)
(8.46408 3.53584 0)
(8.2958 3.90079 0)
(8.11674 4.29992 0)
(7.92522 4.73845 0)
(7.71871 5.2232 0)
(7.49339 5.76337 0)
(7.24342 6.37178 0)
(6.95937 7.06686 0)
(6.62583 7.87645 0)
(6.21014 8.84605 0)
(5.66305 10.0589 0)
(4.68964 11.7236 0)
(2.68808 14.5881 0)
(0.218491 -0.251138 0)
(0.485587 -0.21152 0)
(0.763483 -0.173029 0)
(1.012 -0.143387 0)
(1.22575 -0.120691 0)
(1.41159 -0.10263 0)
(1.57594 -0.0878174 0)
(1.72244 -0.0753542 0)
(1.85288 -0.0645033 0)
(1.96798 -0.0547607 0)
(2.06808 -0.0460147 0)
(2.15389 -0.0382537 0)
(2.22637 -0.0310837 0)
(2.28514 -0.0240611 0)
(2.3288 -0.0171802 0)
(2.35821 -0.0093524 0)
(2.37571 -0.000311117 0)
(2.3828 0.00534232 0)
(2.38087 0.00440828 0)
(2.37525 -0.00224885 0)
(2.37201 -0.0125783 0)
(2.37275 -0.0227878 0)
(2.37525 -0.0295683 0)
(2.37612 -0.0312543 0)
(2.37398 -0.0287446 0)
(2.37186 -0.0241633 0)
(2.37735 -0.0198568 0)
(2.39589 -0.0186591 0)
(2.43716 -0.0185749 0)
(2.52878 -0.0188965 0)
(0.145404 -0.47613 0)
(0.390625 -0.425134 0)
(0.628283 -0.358076 0)
(0.844019 -0.302581 0)
(1.0323 -0.259007 0)
(1.19796 -0.223804 0)
(1.34575 -0.194525 0)
(1.47854 -0.169448 0)
(1.59786 -0.146922 0)
(1.70419 -0.125747 0)
(1.79729 -0.10614 0)
(1.87722 -0.0889108 0)
(1.94615 -0.0721446 0)
(2.00526 -0.0529002 0)
(2.05114 -0.0370005 0)
(2.08575 -0.0288825 0)
(2.11005 -0.0223406 0)
(2.10088 -0.0116808 0)
(2.05381 -0.00121299 0)
(1.97194 0.00747162 0)
(1.86333 0.0148875 0)
(1.7395 0.0224346 0)
(1.61353 0.029812 0)
(1.49832 0.0348099 0)
(1.40476 0.0339825 0)
(1.34118 0.0239014 0)
(1.31826 0.00879645 0)
(1.32148 -0.00753897 0)
(1.36575 -0.0317722 0)
(1.5045 -0.0642723 0)
(0.0939465 -0.706576 0)
(0.284978 -0.650112 0)
(0.452453 -0.557337 0)
(0.608159 -0.476606 0)
(0.742218 -0.411599 0)
(0.858423 -0.358246 0)
(0.959461 -0.313434 0)
(1.0472 -0.274987 0)
(1.12297 -0.240352 0)
(1.18704 -0.207005 0)
(1.23885 -0.174986 0)
(1.27437 -0.148717 0)
(1.29681 -0.130521 0)
(1.3167 -0.111708 0)
(1.31258 -0.080758 0)
(1.22993 -0.0391333 0)
(1.1038 0.00383813 0)
(0.982801 0.0491506 0)
(0.860734 0.0862173 0)
(0.73329 0.109925 0)
(0.606807 0.120907 0)
(0.487647 0.120542 0)
(0.381495 0.110186 0)
(0.295714 0.0917017 0)
(0.236368 0.0667633 0)
(0.212442 0.0336669 0)
(0.215402 -0.00272755 0)
(0.27937 -0.0466292 0)
(0.376901 -0.111711 0)
(0.561387 -0.164898 0)
(0.0513148 -0.854133 0)
(0.176935 -0.784304 0)
(0.262841 -0.669502 0)
(0.349045 -0.570365 0)
(0.416643 -0.489092 0)
(0.470733 -0.421284 0)
(0.511106 -0.36356 0)
(0.538343 -0.313994 0)
(0.553443 -0.270016 0)
(0.557015 -0.228833 0)
(0.553971 -0.187423 0)
(0.530022 -0.141812 0)
(0.449611 -0.0875395 0)
(0.310485 -0.0237842 0)
(0.17896 0.039939 0)
(0.0856142 0.0871351 0)
(-0.011374 0.118367 0)
(-0.105135 0.14253 0)
(-0.199552 0.163099 0)
(-0.289786 0.174797 0)
(-0.370919 0.175235 0)
(-0.439294 0.16427 0)
(-0.491462 0.142756 0)
(-0.524116 0.111619 0)
(-0.533308 0.0718528 0)
(-0.516354 0.0241442 0)
(-0.484455 -0.0330374 0)
(-0.416712 -0.0970682 0)
(-0.344817 -0.160919 0)
(-0.280722 -0.206358 0)
(0.00908818 -0.928792 0)
(0.0607521 -0.84062 0)
(0.0598266 -0.709004 0)
(0.0696089 -0.598107 0)
(0.0620902 -0.504596 0)
(0.0445485 -0.424815 0)
(0.0131306 -0.354742 0)
(-0.0329304 -0.292101 0)
(-0.0961048 -0.232829 0)
(-0.180012 -0.172826 0)
(-0.28116 -0.109877 0)
(-0.392785 -0.0462989 0)
(-0.50626 0.0112659 0)
(-0.589438 0.0550063 0)
(-0.671052 0.0928403 0)
(-0.753026 0.13058 0)
(-0.83207 0.165167 0)
(-0.905452 0.190079 0)
(-0.971447 0.206543 0)
(-1.0277 0.212114 0)
(-1.07248 0.205128 0)
(-1.10469 0.185599 0)
(-1.12356 0.154514 0)
(-1.1284 0.113359 0)
(-1.11837 0.064014 0)
(-1.09412 0.00788965 0)
(-1.06129 -0.0559757 0)
(-1.01693 -0.123191 0)
(-0.978636 -0.184516 0)
(-0.957051 -0.22684 0)
(-0.0365362 -0.920898 0)
(-0.0656576 -0.810325 0)
(-0.1511 -0.668989 0)
(-0.224042 -0.550796 0)
(-0.309439 -0.44918 0)
(-0.402317 -0.361401 0)
(-0.503372 -0.283615 0)
(-0.611432 -0.212891 0)
(-0.723919 -0.14779 0)
(-0.837586 -0.0873085 0)
(-0.950772 -0.0303782 0)
(-1.05306 0.0215407 0)
(-1.13724 0.0680897 0)
(-1.21915 0.110339 0)
(-1.29669 0.148055 0)
(-1.36862 0.18095 0)
(-1.43293 0.208252 0)
(-1.48805 0.227079 0)
(-1.53288 0.236343 0)
(-1.56677 0.234318 0)
(-1.58981 0.219951 0)
(-1.60262 0.193396 0)
(-1.60591 0.155693 0)
(-1.60013 0.108507 0)
(-1.58545 0.0538872 0)
(-1.5636 -0.00671265 0)
(-1.53489 -0.0728668 0)
(-1.50594 -0.139214 0)
(-1.48536 -0.198266 0)
(-1.47775 -0.239459 0)
(-0.0893333 -0.827825 0)
(-0.197485 -0.701048 0)
(-0.359997 -0.558845 0)
(-0.506802 -0.440383 0)
(-0.655207 -0.339635 0)
(-0.800253 -0.253665 0)
(-0.940547 -0.178983 0)
(-1.07498 -0.112628 0)
(-1.203 -0.052648 0)
(-1.32266 0.00170168 0)
(-1.42492 0.0487939 0)
(-1.51623 0.0909281 0)
(-1.60214 0.129639 0)
(-1.68149 0.165466 0)
(-1.75303 0.197164 0)
(-1.81568 0.2234 0)
(-1.86837 0.242967 0)
(-1.91043 0.254185 0)
(-1.94172 0.255856 0)
(-1.96265 0.2468 0)
(-1.97423 0.226384 0)
(-1.97777 0.194785 0)
(-1.97444 0.152858 0)
(-1.96501 0.102039 0)
(-1.95014 0.0441626 0)
(-1.93152 -0.019135 0)
(-1.90894 -0.0852351 0)
(-1.89132 -0.149182 0)
(-1.88267 -0.205161 0)
(-1.88225 -0.243763 0)
(-0.144899 -0.65659 0)
(-0.323547 -0.522905 0)
(-0.55107 -0.389216 0)
(-0.752966 -0.282063 0)
(-0.942896 -0.193823 0)
(-1.11791 -0.119285 0)
(-1.27821 -0.0551589 0)
(-1.42204 -0.000738153 0)
(-1.54779 0.0451561 0)
(-1.65767 0.0853196 0)
(-1.75942 0.122525 0)
(-1.85256 0.157273 0)
(-1.93711 0.189012 0)
(-2.01246 0.217261 0)
(-2.07798 0.241107 0)
(-2.13308 0.259408 0)
(-2.17738 0.270982 0)
(-2.21087 0.274591 0)
(-2.23404 0.269241 0)
(-2.24785 0.254103 0)
(-2.25369 0.228758 0)
(-2.25308 0.193317 0)
(-2.24734 0.148408 0)
(-2.23744 0.0952052 0)
(-2.22435 0.0354073 0)
(-2.20968 -0.0287566 0)
(-2.19508 -0.0934196 0)
(-2.18731 -0.154236 0)
(-2.18822 -0.206539 0)
(-2.19267 -0.241694 0)
(-0.199607 -0.421729 0)
(-0.439615 -0.297829 0)
(-0.718853 -0.18146 0)
(-0.957592 -0.0879674 0)
(-1.16821 -0.0180553 0)
(-1.35124 0.0339092 0)
(-1.51016 0.0745075 0)
(-1.65004 0.108889 0)
(-1.77623 0.140466 0)
(-1.89025 0.16992 0)
(-1.99316 0.197628 0)
(-2.08528 0.223204 0)
(-2.16684 0.246142 0)
(-2.23776 0.265701 0)
(-2.29789 0.280966 0)
(-2.34709 0.290927 0)
(-2.38546 0.294566 0)
(-2.41339 0.290918 0)
(-2.43174 0.27919 0)
(-2.44175 0.258772 0)
(-2.44497 0.229339 0)
(-2.44305 0.190921 0)
(-2.43745 0.143947 0)
(-2.42932 0.0893743 0)
(-2.4199 0.0288903 0)
(-2.41064 -0.0347622 0)
(-2.40414 -0.0973605 0)
(-2.40557 -0.15481 0)
(-2.41491 -0.203174 0)
(-2.42336 -0.234734 0)
(-0.25141 -0.0959276 0)
(-0.533518 0.0221054 0)
(-0.836312 0.0911983 0)
(-1.08555 0.131707 0)
(-1.30103 0.159828 0)
(-1.489 0.182497 0)
(-1.65372 0.202226 0)
(-1.79893 0.220628 0)
(-1.9275 0.238324 0)
(-2.04156 0.255412 0)
(-2.1426 0.271876 0)
(-2.23155 0.287136 0)
(-2.30904 0.300426 0)
(-2.37536 0.310826 0)
(-2.43068 0.317359 0)
(-2.47519 0.319075 0)
(-2.50925 0.315107 0)
(-2.53351 0.304692 0)
(-2.54902 0.287216 0)
(-2.55717 0.262221 0)
(-2.55966 0.229437 0)
(-2.55828 0.188817 0)
(-2.55465 0.140601 0)
(-2.55011 0.085527 0)
(-2.54589 0.0252686 0)
(-2.54324 -0.0370573 0)
(-2.54497 -0.0971321 0)
(-2.5554 -0.151115 0)
(-2.57272 -0.195571 0)
(-2.58489 -0.223827 0)
(-0.264825 0.289313 0)
(-0.569015 0.335247 0)
(-0.892044 0.346845 0)
(-1.1579 0.347512 0)
(-1.3849 0.343199 0)
(-1.5783 0.338052 0)
(-1.74421 0.33447 0)
(-1.88792 0.333603 0)
(-2.01338 0.335321 0)
(-2.12335 0.338834 0)
(-2.21969 0.34334 0)
(-2.30367 0.34789 0)
(-2.37618 0.351396 0)
(-2.43775 0.352704 0)
(-2.4887 0.350735 0)
(-2.52935 0.344573 0)
(-2.56019 0.333472 0)
(-2.58201 0.316843 0)
(-2.59595 0.294242 0)
(-2.60352 0.265345 0)
(-2.60655 0.229934 0)
(-2.607 0.187893 0)
(-2.60672 0.139271 0)
(-2.60719 0.0845413 0)
(-2.60953 0.025252 0)
(-2.6147 -0.035269 0)
(-2.6252 -0.0926045 0)
(-2.64483 -0.143143 0)
(-2.67015 -0.183898 0)
(-2.68611 -0.20927 0)
(-0.277927 0.658901 0)
(-0.607868 0.672083 0)
(-0.950873 0.62729 0)
(-1.22227 0.576381 0)
(-1.44683 0.53029 0)
(-1.63346 0.492274 0)
(-1.79063 0.462975 0)
(-1.92512 0.442007 0)
(-2.04183 0.427584 0)
(-2.14374 0.417549 0)
(-2.23269 0.410292 0)
(-2.31005 0.404474 0)
(-2.37679 0.398661 0)
(-2.43349 0.391393 0)
(-2.48046 0.381452 0)
(-2.51796 0.367955 0)
(-2.5465 0.350289 0)
(-2.56688 0.328037 0)
(-2.58028 0.300931 0)
(-2.58828 0.2688 0)
(-2.59286 0.231494 0)
(-2.5962 0.188846 0)
(-2.60043 0.140711 0)
(-2.60717 0.0872309 0)
(-2.61735 0.0296326 0)
(-2.63166 -0.0288094 0)
(-2.65183 -0.0834671 0)
(-2.6812 -0.130729 0)
(-2.71496 -0.168084 0)
(-2.735 -0.190989 0)
(-0.310945 1.08113 0)
(-0.676664 1.0405 0)
(-1.03201 0.915144 0)
(-1.29107 0.798774 0)
(-1.49543 0.706556 0)
(-1.66099 0.634706 0)
(-1.7983 0.579881 0)
(-1.9153 0.540105 0)
(-2.01756 0.511258 0)
(-2.10764 0.489029 0)
(-2.18667 0.471086 0)
(-2.25581 0.455956 0)
(-2.31608 0.441889 0)
(-2.36794 0.426999 0)
(-2.41144 0.409889 0)
(-2.44665 0.38976 0)
(-2.47393 0.366178 0)
(-2.494 0.33892 0)
(-2.508 0.307917 0)
(-2.51755 0.273189 0)
(-2.52473 0.234705 0)
(-2.53198 0.192277 0)
(-2.54178 0.145564 0)
(-2.55599 0.0942938 0)
(-2.57533 0.0391264 0)
(-2.6001 -0.0170488 0)
(-2.63131 -0.0693075 0)
(-2.67126 -0.113593 0)
(-2.71429 -0.147877 0)
(-2.73892 -0.168671 0)
(-0.377854 1.56618 0)
(-0.800929 1.44284 0)
(-1.15867 1.19448 0)
(-1.37607 0.992932 0)
(-1.53523 0.855839 0)
(-1.6636 0.754188 0)
(-1.76926 0.676677 0)
(-1.85995 0.621904 0)
(-1.94225 0.582786 0)
(-2.01715 0.55105 0)
(-2.08384 0.524225 0)
(-2.1431 0.50152 0)
(-2.19619 0.480947 0)
(-2.24338 0.45988 0)
(-2.28416 0.436682 0)
(-2.31819 0.410771 0)
(-2.34561 0.381999 0)
(-2.36696 0.350359 0)
(-2.38322 0.316017 0)
(-2.39586 0.279256 0)
(-2.40703 0.240242 0)
(-2.41939 0.198814 0)
(-2.43584 0.15444 0)
(-2.45862 0.106362 0)
(-2.48838 0.0544116 0)
(-2.52487 0.000766581 0)
(-2.5691 -0.0495114 0)
(-2.62116 -0.0912746 0)
(-2.67465 -0.122745 0)
(-2.70464 -0.141639 0)
(-0.528509 2.35821 0)
(-1.02236 2.00294 0)
(-1.36991 1.47066 0)
(-1.48973 1.11795 0)
(-1.56371 0.953994 0)
(-1.63924 0.839944 0)
(-1.70242 0.745058 0)
(-1.75722 0.681051 0)
(-1.81462 0.639252 0)
(-1.87211 0.601636 0)
(-1.92403 0.567872 0)
(-1.97111 0.539873 0)
(-2.01587 0.515426 0)
(-2.05842 0.490229 0)
(-2.09724 0.462326 0)
(-2.13135 0.431701 0)
(-2.16069 0.398663 0)
(-2.1856 0.363399 0)
(-2.20663 0.32628 0)
(-2.22491 0.28793 0)
(-2.24238 0.248833 0)
(-2.26179 0.208972 0)
(-2.28644 0.167748 0)
(-2.31913 0.123935 0)
(-2.36065 0.076278 0)
(-2.41027 0.0257816 0)
(-2.46902 -0.0226971 0)
(-2.53637 -0.0627827 0)
(-2.60194 -0.0916681 0)
(-2.63836 -0.108829 0)
(9.9959 0.13856 0)
(9.98222 0.275486 0)
(9.95803 0.412925 0)
(9.92439 0.552841 0)
(9.88218 0.696909 0)
(9.8318 0.846677 0)
(9.77348 1.00365 0)
(9.70747 1.16929 0)
(9.63404 1.34507 0)
(9.55347 1.53244 0)
(9.46602 1.73288 0)
(9.37196 1.94794 0)
(9.27156 2.17924 0)
(9.16508 2.42851 0)
(9.05276 2.69766 0)
(8.93482 2.98882 0)
(8.81146 3.30442 0)
(8.68283 3.64734 0)
(8.54899 4.02109 0)
(8.40996 4.43003 0)
(8.26567 4.87978 0)
(8.11603 5.37777 0)
(7.96102 5.93415 0)
(7.80095 6.56324 0)
(7.63711 7.28607 0)
(7.4746 8.1352 0)
(7.32697 9.16453 0)
(7.28489 10.4676 0)
(7.74884 12.1894 0)
(7.94463 14.9061 0)
(9.99638 0.143529 0)
(9.98431 0.285361 0)
(9.96298 0.427685 0)
(9.93337 0.572496 0)
(9.89632 0.721484 0)
(9.85226 0.876203 0)
(9.80145 1.03816 0)
(9.74423 1.20881 0)
(9.68094 1.38963 0)
(9.61195 1.58205 0)
(9.53765 1.78755 0)
(9.45846 2.00765 0)
(9.37481 2.24396 0)
(9.28719 2.4982 0)
(9.1961 2.77224 0)
(9.10214 3.06818 0)
(9.00595 3.38845 0)
(8.90828 3.73587 0)
(8.81006 4.11389 0)
(8.71246 4.52674 0)
(8.6171 4.97982 0)
(8.52635 5.48013 0)
(8.44396 6.03695 0)
(8.37621 6.66282 0)
(8.33433 7.37485 0)
(8.34051 8.19636 0)
(8.43377 9.15725 0)
(8.67024 10.2904 0)
(9.31898 11.5394 0)
(9.81317 12.6156 0)
(9.99688 0.147975 0)
(9.98647 0.294193 0)
(9.96811 0.440868 0)
(9.94268 0.590013 0)
(9.91096 0.74332 0)
(9.8734 0.902337 0)
(9.83034 1.06856 0)
(9.78213 1.24343 0)
(9.72922 1.42839 0)
(9.67206 1.62486 0)
(9.61118 1.83426 0)
(9.54711 2.05809 0)
(9.48048 2.29788 0)
(9.41198 2.55529 0)
(9.34241 2.83211 0)
(9.27269 3.13033 0)
(9.20392 3.45221 0)
(9.13742 3.80037 0)
(9.07489 4.17791 0)
(9.01854 4.58858 0)
(8.97139 5.03694 0)
(8.93771 5.52865 0)
(8.9238 6.07063 0)
(8.93918 6.67121 0)
(8.99834 7.33972 0)
(9.12342 8.08464 0)
(9.34537 8.90756 0)
(9.67344 9.79687 0)
(10.2366 10.7004 0)
(10.9201 11.4064 0)
(9.99739 0.151846 0)
(9.9887 0.301875 0)
(9.97339 0.452308 0)
(9.95224 0.60516 0)
(9.92598 0.762115 0)
(9.89507 0.924705 0)
(9.85989 1.0944 0)
(9.82086 1.27262 0)
(9.77849 1.46075 0)
(9.73333 1.66016 0)
(9.686 1.87224 0)
(9.63717 2.09838 0)
(9.58764 2.34004 0)
(9.5383 2.59875 0)
(9.49019 2.87615 0)
(9.44455 3.17405 0)
(9.40285 3.49442 0)
(9.36692 3.83952 0)
(9.33905 4.21192 0)
(9.32221 4.61456 0)
(9.32031 5.05083 0)
(9.33864 5.52454 0)
(9.38443 6.03975 0)
(9.46757 6.60038 0)
(9.6012 7.2091 0)
(9.80206 7.86547 0)
(10.0928 8.5622 0)
(10.4817 9.28442 0)
(11.0352 10.0218 0)
(11.8223 10.6614 0)
(9.99792 0.155095 0)
(9.99098 0.308315 0)
(9.97876 0.461869 0)
(9.96197 0.61776 0)
(9.94125 0.777651 0)
(9.91708 0.943046 0)
(9.88987 1.11537 0)
(9.86011 1.29601 0)
(9.82834 1.4863 0)
(9.79521 1.68753 0)
(9.76143 1.901 0)
(9.72779 2.128 0)
(9.69523 2.36987 0)
(9.66481 2.62798 0)
(9.63777 2.90376 0)
(9.61561 3.19875 0)
(9.60008 3.51458 0)
(9.59337 3.85303 0)
(9.59815 4.21599 0)
(9.6178 4.6055 0)
(9.65662 5.02364 0)
(9.72011 5.47239 0)
(9.81533 5.95333 0)
(9.95117 6.46712 0)
(10.1386 7.01262 0)
(10.3907 7.5859 0)
(10.7245 8.17879 0)
(11.1514 8.77658 0)
(11.6943 9.36774 0)
(12.4408 9.87756 0)
(9.99845 0.157679 0)
(9.99327 0.313427 0)
(9.98419 0.469426 0)
(9.97179 0.627647 0)
(9.95665 0.789724 0)
(9.93925 0.957118 0)
(9.92002 1.13121 0)
(9.89951 1.31332 0)
(9.87832 1.50471 0)
(9.85713 1.70659 0)
(9.83675 1.92015 0)
(9.81807 2.14656 0)
(9.80213 2.387 0)
(9.79012 2.64264 0)
(9.78344 2.91468 0)
(9.78374 3.20432 0)
(9.79297 3.51281 0)
(9.8135 3.84139 0)
(9.84818 4.19126 0)
(9.90047 4.56354 0)
(9.97464 4.95911 0)
(10.0759 5.37842 0)
(10.2105 5.8212 0)
(10.386 6.28596 0)
(10.6111 6.76944 0)
(10.8954 7.26586 0)
(11.2501 7.76599 0)
(11.6828 8.25433 0)
(12.1944 8.71427 0)
(12.8637 9.10443 0)
(9.99898 0.159559 0)
(9.99557 0.317134 0)
(9.98963 0.474863 0)
(9.98162 0.634673 0)
(9.97205 0.798152 0)
(9.96137 0.966711 0)
(9.95008 1.14167 0)
(9.93872 1.32427 0)
(9.92795 1.5157 0)
(9.9185 1.71706 0)
(9.91123 1.92942 0)
(9.90709 2.15381 0)
(9.9072 2.39122 0)
(9.91284 2.64261 0)
(9.92549 2.90891 0)
(9.94689 3.191 0)
(9.97906 3.48969 0)
(10.0244 3.80569 0)
(10.0857 4.13957 0)
(10.1664 4.4916 0)
(10.2702 4.86168 0)
(10.4019 5.24911 0)
(10.5667 5.6523 0)
(10.7704 6.06844 0)
(11.0195 6.49306 0)
(11.3202 6.91947 0)
(11.6786 7.33836 0)
(12.0987 7.7364 0)
(12.5744 8.09913 0)
(13.174 8.40617 0)
(9.9995 0.1607 0)
(9.99786 0.31937 0)
(9.99503 0.478083 0)
(9.99137 0.638712 0)
(9.9873 0.802784 0)
(9.98327 0.971651 0)
(9.97977 1.14656 0)
(9.97739 1.32867 0)
(9.97679 1.51907 0)
(9.97874 1.71875 0)
(9.98412 1.92865 0)
(9.99394 2.14963 0)
(10.0093 2.3825 0)
(10.0316 2.628 0)
(10.0623 2.88676 0)
(10.1032 3.15935 0)
(10.1562 3.44618 0)
(10.2236 3.74747 0)
(10.308 4.0632 0)
(10.4126 4.393 0)
(10.5406 4.73601 0)
(10.6959 5.0907 0)
(10.8826 5.45468 0)
(11.105 5.82446 0)
(11.3673 6.19514 0)
(11.6732 6.56021 0)
(12.0255 6.91144 0)
(12.4257 7.23859 0)
(12.8662 7.53063 0)
(13.4043 7.77638 0)
(10 0.161074 0)
(10.0001 0.320078 0)
(10.0003 0.479007 0)
(10.001 0.639661 0)
(10.0023 0.803502 0)
(10.0047 0.971808 0)
(10.0088 1.14575 0)
(10.0152 1.32639 0)
(10.0244 1.5147 0)
(10.0373 1.71158 0)
(10.0547 1.9178 0)
(10.0777 2.13407 0)
(10.1075 2.36101 0)
(10.1453 2.59912 0)
(10.1925 2.8488 0)
(10.251 3.11027 0)
(10.3224 3.38359 0)
(10.409 3.66859 0)
(10.5131 3.96477 0)
(10.6372 4.27126 0)
(10.7842 4.58667 0)
(10.9571 4.90899 0)
(11.1587 5.23546 0)
(11.3921 5.56236 0)
(11.6598 5.88498 0)
(11.9636 6.19751 0)
(12.3043 6.49314 0)
(12.6817 6.7641 0)
(13.0881 7.00215 0)
(13.5717 7.2005 0)
(10.0005 0.160661 0)
(10.0023 0.319217 0)
(10.0055 0.477573 0)
(10.0103 0.637446 0)
(10.0168 0.800221 0)
(10.0256 0.967095 0)
(10.037 1.13915 0)
(10.0517 1.31735 0)
(10.0703 1.50257 0)
(10.0935 1.69556 0)
(10.1224 1.89696 0)
(10.1577 2.10733 0)
(10.2008 2.32708 0)
(10.2527 2.55652 0)
(10.3149 2.79578 0)
(10.3889 3.04485 0)
(10.4764 3.30346 0)
(10.5793 3.57111 0)
(10.6995 3.84697 0)
(10.8392 4.12982 0)
(11.0005 4.41798 0)
(11.1856 4.7092 0)
(11.3966 5.00061 0)
(11.6352 5.28866 0)
(11.9027 5.5691 0)
(12.1996 5.83697 0)
(12.5256 6.08681 0)
(12.8794 6.31276 0)
(13.2538 6.50885 0)
(13.6903 6.67099 0)
(10.001 0.159444 0)
(10.0044 0.316758 0)
(10.0105 0.473742 0)
(10.0193 0.632021 0)
(10.0309 0.792894 0)
(10.0457 0.957473 0)
(10.0641 1.12674 0)
(10.0866 1.30158 0)
(10.1141 1.48272 0)
(10.1471 1.6708 0)
(10.1865 1.86634 0)
(10.2332 2.06972 0)
(10.2883 2.2812 0)
(10.353 2.50087 0)
(10.4284 2.72869 0)
(10.5159 2.96438 0)
(10.6171 3.20746 0)
(10.7335 3.4572 0)
(10.8666 3.71251 0)
(11.0181 3.972 0)
(11.1897 4.23384 0)
(11.3827 4.49575 0)
(11.5985 4.75498 0)
(11.838 5.0083 0)
(12.1014 5.25203 0)
(12.3886 5.48209 0)
(12.6985 5.6942 0)
(13.0291 5.88404 0)
(13.3744 6.04743 0)
(13.7705 6.18188 0)
(10.0015 0.157415 0)
(10.0065 0.312685 0)
(10.0153 0.467495 0)
(10.0279 0.623367 0)
(10.0443 0.781511 0)
(10.0648 0.942948 0)
(10.0897 1.10857 0)
(10.1198 1.27913 0)
(10.1555 1.45529 0)
(10.1974 1.63753 0)
(10.2465 1.82626 0)
(10.3036 2.02171 0)
(10.3695 2.22398 0)
(10.4454 2.43302 0)
(10.5323 2.64858 0)
(10.6314 2.87024 0)
(10.7439 3.09735 0)
(10.8711 3.32899 0)
(11.0142 3.56397 0)
(11.1743 3.80081 0)
(11.3527 4.03767 0)
(11.5501 4.27238 0)
(11.7673 4.50242 0)
(12.0044 4.72496 0)
(12.2613 4.93692 0)
(12.5371 5.13504 0)
(12.8304 5.31604 0)
(13.1393 5.47678 0)
(13.4583 5.61438 0)
(13.8197 5.72736 0)
(10.0019 0.154575 0)
(10.0084 0.306998 0)
(10.0198 0.458834 0)
(10.0361 0.611496 0)
(10.057 0.766101 0)
(10.0828 0.923574 0)
(10.1139 1.08471 0)
(10.1508 1.25016 0)
(10.1941 1.42048 0)
(10.2443 1.59604 0)
(10.3022 1.77712 0)
(10.3684 1.96383 0)
(10.4439 2.15614 0)
(10.5295 2.35386 0)
(10.6262 2.55663 0)
(10.7349 2.76388 0)
(10.8565 2.97485 0)
(10.9921 3.18855 0)
(11.1425 3.40375 0)
(11.3086 3.61894 0)
(11.4909 3.83241 0)
(11.6899 4.04214 0)
(11.9058 4.24592 0)
(12.1384 4.44134 0)
(12.3871 4.6259 0)
(12.6508 4.79702 0)
(12.9279 4.95225 0)
(13.2165 5.08934 0)
(13.5121 5.20631 0)
(13.8436 5.30233 0)
(10.0024 0.150927 0)
(10.0102 0.299708 0)
(10.0241 0.447782 0)
(10.0437 0.596448 0)
(10.0688 0.746725 0)
(10.0996 0.899445 0)
(10.1364 1.0553 0)
(10.1796 1.21487 0)
(10.2298 1.37857 0)
(10.2874 1.54669 0)
(10.3531 1.7194 0)
(10.4274 1.89671 0)
(10.5112 2.07847 0)
(10.6051 2.2644 0)
(10.7099 2.45403 0)
(10.8263 2.64673 0)
(10.9551 2.84167 0)
(11.0969 3.03783 0)
(11.2524 3.234 0)
(11.4219 3.42876 0)
(11.6059 3.62051 0)
(11.8043 3.80749 0)
(12.0171 3.98777 0)
(12.2437 4.15938 0)
(12.4833 4.32029 0)
(12.7347 4.46853 0)
(12.9963 4.60227 0)
(13.2664 4.71993 0)
(13.5411 4.82018 0)
(13.8467 4.9026 0)
(10.0027 0.146485 0)
(10.0119 0.290842 0)
(10.0281 0.434381 0)
(10.0508 0.578287 0)
(10.0798 0.72348 0)
(10.1151 0.870699 0)
(10.1571 1.02055 0)
(10.206 1.1735 0)
(10.2624 1.32989 0)
(10.3265 1.48992 0)
(10.399 1.65365 0)
(10.4804 1.82102 0)
(10.5712 1.9918 0)
(10.672 2.16562 0)
(10.7833 2.34197 0)
(10.9058 2.52016 0)
(11.04 2.69937 0)
(11.1862 2.87858 0)
(11.3447 3.05666 0)
(11.5159 3.23228 0)
(11.6997 3.40403 0)
(11.8959 3.57037 0)
(12.1042 3.7297 0)
(12.3238 3.8804 0)
(12.5539 4.02087 0)
(12.7932 4.14963 0)
(13.0402 4.26533 0)
(13.2933 4.36686 0)
(13.5494 4.45336 0)
(13.8325 4.52467 0)
(10.0031 0.141267 0)
(10.0134 0.280437 0)
(10.0317 0.418693 0)
(10.0573 0.557103 0)
(10.0898 0.69649 0)
(10.1292 0.837504 0)
(10.1759 0.980659 0)
(10.2299 1.12634 0)
(10.2917 1.27481 0)
(10.3616 1.42618 0)
(10.44 1.58045 0)
(10.5273 1.73747 0)
(10.6239 1.89697 0)
(10.7303 2.05853 0)
(10.8469 2.2216 0)
(10.9739 2.38551 0)
(11.1118 2.54942 0)
(11.2608 2.7124 0)
(11.4208 2.87338 0)
(11.5921 3.0312 0)
(11.7743 3.1846 0)
(11.9671 3.33229 0)
(12.1699 3.47295 0)
(12.382 3.60527 0)
(12.6025 3.72803 0)
(12.8301 3.84009 0)
(13.0636 3.94051 0)
(13.3014 4.02851 0)
(13.5408 4.10355 0)
(13.8042 4.16563 0)
(10.0034 0.135295 0)
(10.0148 0.268542 0)
(10.035 0.400793 0)
(10.0632 0.533005 0)
(10.0988 0.665905 0)
(10.142 0.800059 0)
(10.1927 0.935897 0)
(10.2513 1.07373 0)
(10.3179 1.21374 0)
(10.3927 1.35598 0)
(10.4761 1.50039 0)
(10.5683 1.64677 0)
(10.6697 1.79482 0)
(10.7805 1.94408 0)
(10.9009 2.09402 0)
(11.0312 2.24396 0)
(11.1715 2.39313 0)
(11.3218 2.54066 0)
(11.4821 2.68559 0)
(11.6522 2.8269 0)
(11.8317 2.96352 0)
(12.0203 3.09438 0)