/*--------------------------------*- C++ -*----------------------------------*\
  =========                 |
  \\      /  F ield         | OpenFOAM: The Open Source CFD Toolbox
   \\    /   O peration     | Website:  https://openfoam.org
    \\  /    A nd           | Version:  7
     \\/     M anipulation  |
\*---------------------------------------------------------------------------*/
FoamFile
{
    version     2.0;
    format      ascii;
    class       surfaceVectorField;
    location    "1.9";
    object      Uf;
}
// * * * * * * * * * * * * * * * * * * * * * * * * * * * * * * * * * * * * * //

dimensions      [0 1 -1 0 0 0 0];

internalField   nonuniform List<vector> 
5457
(
(9.92087 0.0251147 0)
(9.97124 0.0387524 0)
(9.82397 0.0328363 0)
(9.92856 0.0485996 0)
(9.70952 0.0393264 0)
(9.85542 0.0587916 0)
(9.57528 0.0460313 0)
(9.75668 0.0706267 0)
(9.42115 0.0529743 0)
(9.63734 0.0830573 0)
(9.24721 0.0601975 0)
(9.49833 0.0959911 0)
(9.05317 0.067848 0)
(9.33892 0.109678 0)
(8.83835 0.0760772 0)
(9.15823 0.124364 0)
(8.6018 0.085018 0)
(8.95544 0.140252 0)
(8.34239 0.0947971 0)
(8.72958 0.157526 0)
(8.05882 0.105543 0)
(8.47945 0.176369 0)
(7.74961 0.117386 0)
(8.20365 0.19696 0)
(7.41321 0.130455 0)
(7.90067 0.219465 0)
(7.048 0.144869 0)
(7.56887 0.244025 0)
(6.6524 0.160728 0)
(7.2066 0.270729 0)
(6.22496 0.178095 0)
(6.81228 0.299587 0)
(5.76458 0.196972 0)
(6.3845 0.330486 0)
(5.27066 0.217266 0)
(5.92225 0.363137 0)
(4.74342 0.238756 0)
(5.42513 0.397006 0)
(4.18425 0.261036 0)
(4.89367 0.431238 0)
(3.59607 0.283471 0)
(4.32967 0.464588 0)
(2.98374 0.30516 0)
(3.7367 0.495356 0)
(2.35444 0.324996 0)
(3.12048 0.521401 0)
(1.71762 0.34243 0)
(2.48944 0.540398 0)
(1.08312 0.361678 0)
(1.85444 0.551452 0)
(0.450985 0.34825 0)
(1.2443 0.562684 0)
(-0.145927 0.102362 0)
(0.608069 0.544184 0)
(-0.423359 -0.206418 0)
(0.0945393 0.259044 0)
(-0.401838 -0.360429 0)
(-0.134167 -0.0205801 0)
(-0.119396 -0.393576 0)
(9.99639 0.0516882 0)
(9.99704 0.040518 0)
(9.95874 0.0708901 0)
(9.97848 0.0674837 0)
(9.89815 0.0880296 0)
(9.93371 0.0899174 0)
(9.81643 0.106043 0)
(9.86442 0.113622 0)
(9.71335 0.124995 0)
(9.77419 0.138603 0)
(9.58875 0.144944 0)
(9.66407 0.164757 0)
(9.44229 0.166196 0)
(9.53359 0.192464 0)
(9.27331 0.189087 0)
(9.38199 0.222183 0)
(9.08093 0.213916 0)
(9.20855 0.25432 0)
(8.86401 0.240959 0)
(9.01237 0.289252 0)
(8.62125 0.270487 0)
(8.79237 0.327353 0)
(8.35117 0.302761 0)
(8.54725 0.368994 0)
(8.05218 0.33801 0)
(8.27557 0.414527 0)
(7.72258 0.376409 0)
(7.97575 0.464253 0)
(7.36069 0.418037 0)
(7.64615 0.518384 0)
(6.96492 0.462824 0)
(7.28512 0.576982 0)
(6.53393 0.510477 0)
(6.89114 0.639872 0)
(6.06686 0.560392 0)
(6.46291 0.706536 0)
(5.56358 0.61154 0)
(5.99964 0.77597 0)
(5.02509 0.662358 0)
(5.50128 0.846527 0)
(4.45391 0.710628 0)
(4.96893 0.915742 0)
(3.85462 0.7534 0)
(4.40528 0.980166 0)
(3.23446 0.78699 0)
(3.81524 1.03523 0)
(2.60427 0.807217 0)
(3.20681 1.07517 0)
(1.98149 0.810079 0)
(2.59194 1.09272 0)
(1.40425 0.77636 0)
(1.99497 1.07651 0)
(0.928713 0.645771 0)
(1.41849 0.977714 0)
(0.438964 0.383494 0)
(0.936749 0.716333 0)
(0.058814 -0.11913 0)
(0.442923 0.342959 0)
(0.17476 -0.335971 0)
(9.98902 0.0594576 0)
(9.9948 0.0458974 0)
(9.9543 0.0895245 0)
(9.97366 0.0848978 0)
(9.89721 0.118104 0)
(9.92978 0.119244 0)
(9.82031 0.147996 0)
(9.86346 0.154076 0)
(9.72393 0.179546 0)
(9.77717 0.19054 0)
(9.60789 0.212927 0)
(9.67199 0.2288 0)
(9.47191 0.24857 0)
(9.54772 0.269325 0)
(9.31551 0.286976 0)
(9.40382 0.312722 0)
(9.13798 0.328621 0)
(9.23971 0.359579 0)
(8.93839 0.373963 0)
(9.05472 0.410451 0)
(8.71564 0.42346 0)
(8.84797 0.465893 0)
(8.46844 0.477555 0)
(8.61843 0.526458 0)
(8.19536 0.536656 0)
(8.36493 0.592681 0)
(7.89486 0.601089 0)
(8.08614 0.66504 0)
(7.56532 0.671037 0)
(7.78068 0.743903 0)
(7.20512 0.746453 0)
(7.44709 0.829445 0)
(6.81275 0.826937 0)
(7.08393 0.921532 0)
(6.38699 0.911584 0)
(6.68987 1.01956 0)
(5.92711 0.998793 0)
(6.26383 1.12226 0)
(5.43321 1.08605 0)
(5.8052 1.22743 0)
(4.90665 1.1697 0)
(5.31417 1.33165 0)
(4.35061 1.24466 0)
(4.79213 1.42999 0)
(3.7709 1.30421 0)
(4.24222 1.51555 0)
(3.1772 1.33938 0)
(3.67019 1.57897 0)
(2.5853 1.33754 0)
(3.08488 1.60715 0)
(2.01872 1.27226 0)
(2.50167 1.58084 0)
(1.48595 1.09469 0)
(1.92769 1.46341 0)
(0.957665 0.768601 0)
(1.38441 1.20961 0)
(0.479389 0.201991 0)
(0.828999 0.800337 0)
(0.433336 0.13356 0)
(9.98514 0.0716511 0)
(9.99366 0.0531744 0)
(9.95035 0.113697 0)
(9.97085 0.102349 0)
(9.89428 0.154233 0)
(9.92684 0.148048 0)
(9.81867 0.195708 0)
(9.86174 0.193855 0)
(9.72419 0.238982 0)
(9.77727 0.241452 0)
(9.61079 0.284533 0)
(9.67439 0.29138 0)
(9.4783 0.332965 0)
(9.55305 0.344214 0)
(9.32638 0.384952 0)
(9.41285 0.40067 0)
(9.15453 0.441153 0)
(9.25337 0.461474 0)
(8.96206 0.502214 0)
(9.07406 0.527326 0)
(8.74817 0.568775 0)
(8.87427 0.598924 0)
(8.51189 0.641467 0)
(8.65321 0.676964 0)
(8.25216 0.720883 0)
(8.40999 0.762126 0)
(7.96782 0.807528 0)
(8.14361 0.855033 0)
(7.65761 0.901749 0)
(7.85303 0.956192 0)
(7.32024 1.00362 0)
(7.53711 1.0659 0)
(6.95443 1.11279 0)
(7.19471 1.18413 0)
(6.559 1.22828 0)
(6.8247 1.31029 0)
(6.13301 1.34822 0)
(6.42601 1.44303 0)
(5.67596 1.46955 0)
(5.99776 1.57991 0)
(5.18815 1.5876 0)
(5.53945 1.71696 0)
(4.67109 1.69572 0)
(5.05122 1.84827 0)
(4.12813 1.7847 0)
(4.53422 1.96541 0)
(3.56514 1.84192 0)
(3.99112 2.05672 0)
(2.99071 1.84997 0)
(3.42615 2.10639 0)
(2.4147 1.78161 0)
(2.84637 2.09357 0)
(1.83961 1.59954 0)
(2.25518 1.9877 0)
(1.25873 1.27757 0)
(1.6595 1.75199 0)
(0.666416 0.788789 0)
(1.02344 1.36677 0)
(0.522777 0.786274 0)
(9.98336 0.0844553 0)
(9.99316 0.0613247 0)
(9.94817 0.136923 0)
(9.96956 0.12 0)
(9.89306 0.18816 0)
(9.92569 0.176358 0)
(9.81891 0.240342 0)
(9.86188 0.232864 0)
(9.72639 0.294687 0)
(9.77945 0.291305 0)
(9.61556 0.351926 0)
(9.67912 0.352544 0)
(9.48626 0.412783 0)
(9.56089 0.417299 0)
(9.33821 0.478031 0)
(9.42445 0.48638 0)
(9.17099 0.548442 0)
(9.26944 0.56062 0)
(8.98406 0.624775 0)
(9.0954 0.64084 0)
(8.77677 0.707784 0)
(8.90179 0.727849 0)
(8.54836 0.798214 0)
(8.68796 0.822454 0)
(8.29803 0.896772 0)
(8.45318 0.925443 0)
(8.02488 1.00408 0)
(8.19666 1.03754 0)
(7.72798 1.1206 0)
(7.91756 1.15937 0)
(7.40634 1.24651 0)
(7.615 1.29134 0)
(7.05896 1.38154 0)
(7.28806 1.43349 0)
(6.68483 1.52476 0)
(6.93575 1.58536 0)
(6.28295 1.67425 0)
(6.55706 1.74564 0)
(5.85248 1.82672 0)
(6.15092 1.91189 0)
(5.39284 1.97704 0)
(5.71628 2.08002 0)
(4.90396 2.11767 0)
(5.25219 2.24377 0)
(4.38656 2.23805 0)
(4.75795 2.39409 0)
(3.8424 2.3238 0)
(4.23329 2.51848 0)
(3.27407 2.35603 0)
(3.6784 2.60033 0)
(2.68424 2.30952 0)
(3.09443 2.61861 0)
(2.07176 2.15385 0)
(2.48062 2.54608 0)
(1.42872 1.86624 0)
(1.8391 2.35241 0)
(0.742267 1.41848 0)
(1.13085 2.02323 0)
(0.543056 1.51328 0)
(9.98263 0.0975563 0)
(9.99299 0.0698329 0)
(9.94739 0.15988 0)
(9.96922 0.137671 0)
(9.89345 0.221504 0)
(9.9259 0.204068 0)
(9.82118 0.284304 0)
(9.86369 0.270888 0)
(9.7311 0.349617 0)
(9.78366 0.339845 0)
(9.62333 0.418345 0)
(9.68636 0.412022 0)
(9.49773 0.49132 0)
(9.57178 0.48829 0)
(9.35406 0.569407 0)
(9.43969 0.569551 0)
(9.19196 0.653482 0)
(9.28976 0.656734 0)
(9.01095 0.744411 0)
(9.12161 0.750759 0)
(8.81047 0.843055 0)
(8.93474 0.852536 0)
(8.58988 0.950258 0)
(8.72858 0.962966 0)
(8.34849 1.06683 0)
(8.50251 1.08293 0)
(8.08555 1.19348 0)
(8.25581 1.21324 0)
(7.80027 1.33078 0)
(7.98775 1.3546 0)
(7.49182 1.47901 0)
(7.69754 1.50752 0)
(7.15932 1.63802 0)
(7.38429 1.67218 0)
(6.80178 1.80697 0)
(7.04706 1.84822 0)
(6.41813 1.98405 0)
(6.68472 2.03453 0)
(6.00715 2.16606 0)
(6.29596 2.22885 0)
(5.56746 2.34785 0)
(5.87915 2.42731 0)
(5.09759 2.52175 0)
(5.43235 2.62388 0)
(4.59599 2.6769 0)
(4.95322 2.80969 0)
(4.06109 2.79861 0)
(4.43909 2.97239 0)
(3.49128 2.86802 0)
(3.88694 3.09556 0)
(2.88463 2.86165 0)
(3.29386 3.15861 0)
(2.23706 2.75253 0)
(2.65578 3.13644 0)
(1.54177 2.51958 0)
(1.97399 3.00161 0)
(0.793305 2.12992 0)
(1.20672 2.73899 0)
(0.556489 2.29027 0)
(9.98249 0.110696 0)
(9.99301 0.0784084 0)
(9.94766 0.182449 0)
(9.96951 0.15514 0)
(9.89513 0.254003 0)
(9.92716 0.231052 0)
(9.82508 0.327018 0)
(9.86684 0.307744 0)
(9.73789 0.402874 0)
(9.78958 0.386829 0)
(9.63369 0.482621 0)
(9.69576 0.46953 0)
(9.51239 0.567211 0)
(9.58538 0.556852 0)
(9.37377 0.657607 0)
(9.45826 0.649795 0)
(9.21753 0.754781 0)
(9.31412 0.749375 0)
(9.04323 0.859696 0)
(9.15262 0.856604 0)
(8.85037 0.973303 0)
(8.97333 0.972483 0)
(8.63837 1.09654 0)
(8.77572 1.098 0)
(8.40661 1.23029 0)
(8.55922 1.23413 0)
(8.15437 1.37537 0)
(8.32316 1.38177 0)
(7.88091 1.53244 0)
(8.06682 1.54174 0)
(7.58541 1.70188 0)
(7.7894 1.71464 0)
(7.26692 1.88369 0)
(7.48997 1.9008 0)
(6.92437 2.07724 0)
(7.16745 2.10007 0)
(6.55641 2.28096 0)
(6.82049 2.31161 0)
(6.16136 2.49197 0)
(6.44739 2.53352 0)
(5.73705 2.70554 0)
(6.0459 2.76246 0)
(5.28073 2.91446 0)
(5.6131 2.99303 0)
(4.78895 3.10838 0)
(5.14519 3.21715 0)
(4.25758 3.27317 0)
(4.63748 3.4233 0)
(3.68188 3.39059 0)
(4.08435 3.59591 0)
(3.05677 3.43819 0)
(3.47984 3.71504 0)
(2.37673 3.39014 0)
(2.81716 3.75641 0)
(1.63721 3.22443 0)
(2.09826 3.69212 0)
(0.838775 2.8991 0)
(1.27838 3.50254 0)
(0.573108 3.1118 0)
(9.98272 0.123662 0)
(9.99316 0.0868716 0)
(9.94868 0.204454 0)
(9.97024 0.172211 0)
(9.89785 0.285468 0)
(9.9292 0.257166 0)
(9.83034 0.368257 0)
(9.87111 0.343258 0)
(9.74646 0.454222 0)
(9.79695 0.432032 0)
(9.64633 0.544527 0)
(9.70705 0.52479 0)
(9.5299 0.640235 0)
(9.60139 0.62266 0)
(9.397 0.742399 0)
(9.47983 0.726731 0)
(9.24735 0.852077 0)
(9.34215 0.838104 0)
(9.08058 0.97032 0)
(9.18807 0.957874 0)
(8.89624 1.09817 0)
(9.01719 1.08713 0)
(8.6938 1.23665 0)
(8.82906 1.22696 0)
(8.47265 1.38674 0)
(8.62312 1.37841 0)
(8.23211 1.54936 0)
(8.39875 1.5425 0)
(7.9714 1.72528 0)
(8.15522 1.72015 0)
(7.68964 1.91503 0)
(7.89168 1.91213 0)
(7.38575 2.11882 0)
(7.60709 2.11894 0)
(7.05842 2.33628 0)
(7.30018 2.34073 0)
(6.70595 2.56625 0)
(6.96932 2.57702 0)
(6.32608 2.80639 0)
(6.61233 2.82647 0)
(5.91584 3.05271 0)
(6.22632 3.08649 0)
(5.47127 3.29892 0)
(5.80739 3.35268 0)
(4.98725 3.53576 0)
(5.3504 3.61818 0)
(4.45745 3.75022 0)
(4.84877 3.87288 0)
(3.87456 3.92499 0)
(4.29453 4.1025 0)
(3.23094 4.03812 0)
(3.67892 4.28795 0)
(2.51975 4.06305 0)
(2.99219 4.40478 0)
(1.73763 3.97407 0)
(2.2364 4.42239 0)
(0.889093 3.71666 0)
(1.36277 4.314 0)
(0.598488 3.98261 0)
(9.98319 0.136296 0)
(9.99339 0.0951019 0)
(9.95027 0.225737 0)
(9.97129 0.188723 0)
(9.90141 0.315743 0)
(9.93186 0.282266 0)
(9.83677 0.407837 0)
(9.8763 0.377267 0)
(9.75658 0.503436 0)
(9.80558 0.475242 0)
(9.66099 0.603792 0)
(9.71999 0.577549 0)
(9.54997 0.710063 0)
(9.61953 0.685411 0)
(9.42339 0.823388 0)
(9.50408 0.800006 0)
(9.28104 0.944906 0)
(9.37349 0.922509 0)
(9.12258 1.07575 0)
(9.22753 1.0541 0)
(8.94763 1.21705 0)
(9.06587 1.19594 0)
(8.75569 1.36993 0)
(8.88809 1.34922 0)
(8.54621 1.53547 0)
(8.69371 1.51508 0)
(8.3185 1.71469 0)
(8.48213 1.69465 0)
(8.07177 1.90853 0)
(8.25261 1.889 0)
(7.80503 2.11772 0)
(8.00427 2.09908 0)
(7.51707 2.34271 0)
(7.73599 2.32566 0)
(7.20631 2.58353 0)
(7.44632 2.56921 0)
(6.87065 2.83955 0)
(7.13332 2.82977 0)
(6.50728 3.10918 0)
(6.7944 3.10671 0)
(6.1124 3.38943 0)
(6.42604 3.3984 0)
(5.6809 3.67533 0)
(6.02343 3.70175 0)
(5.20609 3.95918 0)
(5.58016 4.01158 0)
(4.67955 4.22962 0)
(5.08785 4.31969 0)
(4.09133 4.4706 0)
(4.53603 4.61373 0)
(3.43086 4.66053 0)
(3.91275 4.87585 0)
(2.68884 4.77089 0)
(3.20409 5.08125 0)
(1.86097 4.76996 0)
(2.4101 5.1954 0)
(0.953732 4.58722 0)
(1.47557 5.1816 0)
(0.638883 4.91673 0)
(9.98385 0.148473 0)
(9.99368 0.103013 0)
(9.9523 0.246157 0)
(9.97258 0.204545 0)
(9.90568 0.344678 0)
(9.93503 0.306213 0)
(9.8442 0.445575 0)
(9.88228 0.409615 0)
(9.76807 0.55029 0)
(9.81531 0.516268 0)
(9.67742 0.660142 0)
(9.73439 0.627573 0)
(9.5723 0.776371 0)
(9.63955 0.744829 0)
(9.45262 0.900197 0)
(9.53071 0.869294 0)
(9.31819 1.03283 0)
(9.40778 1.00221 0)
(9.16877 1.17549 0)
(9.27058 1.14483 0)
(9.00401 1.32938 0)
(9.11886 1.29841 0)
(8.8235 1.49573 0)
(8.95227 1.4642 0)
(8.62671 1.67572 0)
(8.77038 1.64346 0)
(8.413 1.87053 0)
(8.57264 1.83745 0)
(8.18156 2.08125 0)
(8.35837 2.04738 0)
(7.93136 2.30886 0)
(8.12667 2.27444 0)
(7.66105 2.55416 0)
(7.87637 2.51969 0)
(7.36886 2.81764 0)
(7.60593 2.78403 0)
(7.05236 3.09934 0)
(7.31321 3.06809 0)
(6.70826 3.39859 0)
(6.99532 3.37209 0)
(6.33202 3.71368 0)
(6.64824 3.69557 0)
(5.91752 4.04133 0)
(6.26645 4.03708 0)
(5.45655 4.3759 0)
(5.84241 4.39352 0)
(4.93852 4.70831 0)
(5.36604 4.75928 0)
(4.35044 5.02456 0)
(4.82418 5.12484 0)
(3.67765 5.30383 0)
(4.20088 5.47473 0)
(2.90599 5.51552 0)
(3.47601 5.78475 0)
(2.02662 5.62014 0)
(2.64363 6.01648 0)
(1.04458 5.52649 0)
(1.63689 6.12073 0)
(0.704115 5.93984 0)
(9.98463 0.160098 0)
(9.99402 0.110539 0)
(9.95468 0.26559 0)
(9.97406 0.219568 0)
(9.91055 0.372132 0)
(9.93861 0.328883 0)
(9.85249 0.481305 0)
(9.88891 0.440159 0)
(9.78073 0.594581 0)
(9.82597 0.554936 0)
(9.69542 0.713334 0)
(9.75006 0.674651 0)
(9.59664 0.838875 0)
(9.66121 0.800667 0)
(9.48434 0.972492 0)
(9.55942 0.934305 0)
(9.35841 1.11547 0)
(9.44465 1.07687 0)
(9.21868 1.26908 0)
(9.31679 1.22969 0)
(9.06486 1.43464 0)
(9.17566 1.39408 0)
(8.89662 1.61344 0)
(9.021 1.57137 0)
(8.71349 1.80679 0)
(8.85246 1.76293 0)
(8.5149 2.01603 0)
(8.66957 1.97014 0)
(8.30007 2.24243 0)
(8.47171 2.1944 0)
(8.06798 2.48726 0)
(8.25807 2.43711 0)
(7.81726 2.75169 0)
(8.0275 2.69967 0)
(7.54603 3.03676 0)
(7.77846 2.98345 0)
(7.25168 3.34328 0)
(7.5088 3.28974 0)
(6.93061 3.67168 0)
(7.21549 3.6197 0)
(6.57782 4.02178 0)
(6.89433 3.97423 0)
(6.18637 4.39232 0)
(6.53939 4.35375 0)
(5.74677 4.78034 0)
(6.14241 4.75774 0)
(5.2463 5.17997 0)
(5.6919 5.18397 0)
(4.66841 5.58056 0)
(5.17214 5.6271 0)
(3.99276 5.96385 0)
(4.5625 6.07615 0)
(3.19674 6.29863 0)
(3.8342 6.51045 0)
(2.26063 6.53733 0)
(2.96926 6.89055 0)
(1.18004 6.56163 0)
(1.87822 7.1541 0)
(0.812426 7.09561 0)
(9.98552 0.171092 0)
(9.99439 0.117631 0)
(9.95733 0.28393 0)
(9.97569 0.233704 0)
(9.9159 0.397979 0)
(9.94251 0.350167 0)
(9.86151 0.514878 0)
(9.8961 0.468774 0)
(9.79441 0.636129 0)
(9.83742 0.591095 0)
(9.71477 0.763153 0)
(9.7668 0.718601 0)
(9.62271 0.897321 0)
(9.68429 0.852705 0)
(9.51824 1.03998 0)
(9.58993 0.994783 0)
(9.40132 1.19246 0)
(9.48376 1.1462 0)
(9.27184 1.35613 0)
(9.36573 1.30832 0)
(9.12962 1.53234 0)
(9.23576 1.48253 0)
(8.9744 1.7225 0)
(9.09368 1.67024 0)
(8.80582 1.92802 0)
(8.93924 1.87291 0)
(8.62339 2.15038 0)
(8.7721 2.09204 0)
(8.42644 2.39107 0)
(8.59174 2.32919 0)
(8.21403 2.65163 0)
(8.39748 2.58599 0)
(7.98486 2.93366 0)
(8.18832 2.86418 0)
(7.73711 3.23876 0)
(7.96286 3.16559 0)
(7.46823 3.56858 0)
(7.71911 3.49221 0)
(7.17458 3.92475 0)
(7.45422 3.84616 0)
(6.85104 4.30876 0)
(7.16415 4.22978 0)
(6.49037 4.72177 0)
(6.84309 4.64553 0)
(6.0823 5.16411 0)
(6.48273 5.09584 0)
(5.61243 5.63431 0)
(6.07105 5.5827 0)
(5.06067 6.12722 0)
(5.59062 6.10664 0)
(4.39973 6.63061 0)
(5.01659 6.66447 0)
(3.5942 7.11757 0)
(4.31009 7.24483 0)
(2.60304 7.53666 0)
(3.43389 7.81601 0)
(1.39369 7.73636 0)
(2.25547 8.31062 0)
(1.00224 8.46064 0)
(9.98649 0.181394 0)
(9.9948 0.124249 0)
(9.96021 0.301085 0)
(9.97744 0.246882 0)
(9.92166 0.422111 0)
(9.94669 0.369973 0)
(9.87115 0.546163 0)
(9.90373 0.495348 0)
(9.80895 0.674776 0)
(9.84954 0.624612 0)
(9.73527 0.809412 0)
(9.78444 0.759265 0)
(9.65025 0.951486 0)
(9.70855 0.900758 0)
(9.55399 1.10239 0)
(9.62194 1.05051 0)
(9.44651 1.26352 0)
(9.52473 1.20993 0)
(9.32778 1.43627 0)
(9.41695 1.38042 0)
(9.19771 1.62208 0)
(9.29862 1.56342 0)
(9.05617 1.82241 0)
(9.16966 1.7604 0)
(8.9029 2.03879 0)
(9.02997 1.9729 0)
(8.73756 2.27283 0)
(8.87933 2.20251 0)
(8.55963 2.52621 0)
(8.71741 2.45096 0)
(8.36833 2.80075 0)
(8.54371 2.72007 0)
(8.16259 3.09843 0)
(8.35748 3.01188 0)
(7.94081 3.42142 0)
(8.1576 3.32865 0)
(7.70072 3.7722 0)
(7.94246 3.67299 0)
(7.43905 4.15357 0)
(7.7097 4.04796 0)
(7.15107 4.5688 0)
(7.45589 4.45724 0)
(6.82993 5.0216 0)
(7.17603 4.90532 0)
(6.46559 5.51612 0)
(6.86275 5.39771 0)
(6.04321 6.05649 0)
(6.50505 5.94112 0)
(5.54059 6.64578 0)
(6.086 6.54347 0)
(4.92411 7.28332 0)
(5.57949 7.21322 0)
(4.14274 7.95713 0)
(4.93954 7.95718 0)
(3.12033 8.62888 0)
(4.10723 8.77065 0)
(1.75565 9.12311 0)
(2.87744 9.61566 0)
(1.36447 10.1802 0)
(9.98752 0.190953 0)
(9.99522 0.130361 0)
(9.96327 0.316983 0)
(9.97929 0.259044 0)
(9.92774 0.444434 0)
(9.95107 0.388223 0)
(9.88129 0.575049 0)
(9.91173 0.519789 0)
(9.8242 0.710394 0)
(9.8622 0.655377 0)
(9.75671 0.851961 0)
(9.80282 0.796512 0)
(9.67901 1.0012 0)
(9.73376 0.944673 0)
(9.59126 1.15954 0)
(9.65517 1.10131 0)
(9.49357 1.32841 0)
(9.5672 1.26785 0)
(9.38598 1.50924 0)
(9.47001 1.44575 0)
(9.26853 1.70353 0)
(9.36368 1.63646 0)
(9.1412 1.91279 0)
(9.24828 1.84151 0)
(9.00388 2.13863 0)
(9.12384 2.06248 0)
(8.8564 2.38278 0)
(8.99031 2.30106 0)
(8.69845 2.64707 0)
(8.84758 2.55905 0)
(8.52951 2.93355 0)
(8.6954 2.83847 0)
(8.34882 3.24454 0)
(8.53333 3.14158 0)
(8.15522 3.58271 0)
(8.36071 3.47099 0)
(7.94697 3.95123 0)
(8.17647 3.8298 0)
(7.72155 4.35397 0)
(7.97904 4.22181 0)
(7.47523 4.7958 0)
(7.76607 4.65181 0)
(7.20247 5.28288 0)
(7.53408 5.12598 0)
(6.89492 5.8232 0)
(7.27789 5.65253 0)
(6.53966 6.42713 0)
(6.98953 6.24259 0)
(6.11601 7.10809 0)
(6.65635 6.91168 0)
(5.58928 7.8833 0)
(6.25786 7.68208 0)
(4.89803 8.77273 0)
(5.75373 8.58737 0)
(3.92523 9.79586 0)
(5.08476 9.67898 0)
(2.43282 10.8513 0)
(3.97869 11.0429 0)
(2.14645 12.563 0)
(9.9886 0.199731 0)
(9.99566 0.135945 0)
(9.96647 0.331562 0)
(9.98121 0.270144 0)
(9.93409 0.464867 0)
(9.95563 0.404856 0)
(9.89183 0.60143 0)
(9.92002 0.542021 0)
(9.84001 0.742845 0)
(9.87528 0.683301 0)
(9.7789 0.890624 0)
(9.8218 0.830239 0)
(9.70874 1.04624 0)
(9.75978 0.984329 0)
(9.62974 1.21115 0)
(9.68943 1.14704 0)
(9.5421 1.38681 0)
(9.61098 1.31982 0)
(9.44596 1.57467 0)
(9.52467 1.50413 0)
(9.34147 1.77625 0)
(9.4307 1.70145 0)
(9.22875 1.99311 0)
(9.32928 1.91332 0)
(9.10786 2.22691 0)
(9.22057 2.14135 0)
(8.97882 2.47945 0)
(9.10474 2.38727 0)
(8.84158 2.75269 0)
(8.98189 2.65297 0)
(8.69596 3.04883 0)
(8.8521 2.94054 0)
(8.5416 3.37042 0)
(8.71532 3.25239 0)
(8.37791 3.7205 0)
(8.5714 3.59134 0)
(8.20394 4.10274 0)
(8.42001 3.96079 0)
(8.01826 4.52181 0)
(8.26059 4.36501 0)
(7.81868 4.98372 0)
(8.09225 4.80944 0)
(7.60195 5.49651 0)
(7.91364 5.30131 0)
(7.36309 6.07121 0)
(7.72281 5.85044 0)
(7.09422 6.72347 0)
(7.51694 6.47075 0)
(6.78226 7.47649 0)
(7.29187 7.1828 0)
(6.4038 8.36704 0)
(7.04224 8.01896 0)
(5.91197 9.45971 0)
(6.75806 9.03575 0)
(5.19435 10.9012 0)
(6.45874 10.349 0)
(3.88509 13.173 0)
(6.1905 12.2949 0)
(5.26697 16.3682 0)
(0.336188 -0.231566 0)
(0.181948 -0.329276 0)
(0.637687 -0.192505 0)
(0.438106 -0.288325 0)
(0.896763 -0.158385 0)
(0.695883 -0.241905 0)
(1.12143 -0.132175 0)
(0.928009 -0.204823 0)
(1.31875 -0.111768 0)
(1.12902 -0.175641 0)
(1.49344 -0.0953121 0)
(1.30478 -0.151825 0)
(1.64886 -0.0816603 0)
(1.46084 -0.131881 0)
(1.78734 -0.0699936 0)
(1.60049 -0.114738 0)
(1.91013 -0.0596902 0)
(1.72537 -0.0993342 0)
(2.01763 -0.0504399 0)
(1.83608 -0.084916 0)
(2.11043 -0.0421806 0)
(1.93269 -0.0715655 0)
(2.1897 -0.0347115 0)
(2.01556 -0.0596917 0)
(2.25566 -0.0276144 0)
(2.08626 -0.0484918 0)
(2.30664 -0.0206618 0)
(2.1452 -0.0365932 0)
(2.34266 -0.0133131 0)
(2.18997 -0.0252505 0)
(2.3662 -0.00488578 0)
(2.22198 -0.0161052 0)
(2.37838 0.00248182 0)
(2.24288 -0.00813873 0)
(2.381 0.00488088 0)
(2.24184 -0.00171018 0)
(2.37639 0.00111949 0)
(2.21734 0.00293489 0)
(2.37256 -0.00735184 0)
(2.1736 0.00238082 0)
(2.3717 -0.017622 0)
(2.11767 0.000523395 0)
(2.3736 -0.0261375 0)
(2.05613 -0.00112577 0)
(2.37534 -0.0304012 0)
(1.99439 -0.0010064 0)
(2.37464 -0.0300144 0)
(1.93722 0.00039555 0)
(2.3722 -0.0264813 0)
(1.88937 0.0013459 0)
(2.37321 -0.0220358 0)
(1.85652 -0.000546674 0)
(2.38398 -0.0192651 0)
(1.84781 -0.00566264 0)
(2.41482 -0.0186175 0)
(1.85869 -0.0158426 0)
(2.47355 -0.0187338 0)
(1.90145 -0.0294582 0)
(2.01664 -0.045477 0)
(0.2616 -0.450937 0)
(0.119675 -0.585496 0)
(0.517136 -0.392006 0)
(0.337801 -0.532695 0)
(0.742937 -0.33066 0)
(0.540368 -0.45274 0)
(0.940652 -0.281054 0)
(0.726089 -0.385074 0)
(1.11563 -0.241616 0)
(0.887258 -0.331392 0)
(1.27183 -0.209339 0)
(1.02819 -0.287585 0)
(1.41201 -0.182136 0)
(1.1526 -0.250832 0)
(1.53807 -0.15832 0)
(1.26287 -0.219189 0)
(1.65093 -0.136461 0)
(1.36042 -0.190631 0)
(1.75045 -0.116061 0)
(1.44561 -0.163527 0)
(1.83671 -0.0976284 0)
(1.51807 -0.138088 0)
(1.91131 -0.0806278 0)
(1.5758 -0.115866 0)
(1.97568 -0.0626374 0)
(1.62148 -0.0958128 0)
(2.02757 -0.0450453 0)
(1.66098 -0.0738425 0)
(2.06782 -0.03299 0)
(1.68186 -0.0534675 0)
(2.09798 -0.0256506 0)
(1.65784 -0.0367443 0)
(2.10403 -0.0170744 0)
(1.60692 -0.0121783 0)
(2.07579 -0.00650942 0)
(1.54184 0.0167112 0)
(2.01143 0.00307742 0)
(1.45727 0.0439352 0)
(1.91673 0.0111352 0)
(1.35262 0.061275 0)
(1.80136 0.0186159 0)
(1.23507 0.0705848 0)
(1.6768 0.0260792 0)
(1.11357 0.0727271 0)
(1.55631 0.0322811 0)
(0.997511 0.0687432 0)
(1.45136 0.0344011 0)
(0.897018 0.0597183 0)
(1.37145 0.0290022 0)
(0.820566 0.0454503 0)
(1.32658 0.0164392 0)
(0.776809 0.0236282 0)
(1.31325 0.000726346 0)
(0.766832 0.00135373 0)
(1.3403 -0.0195108 0)
(0.800424 -0.0297393 0)
(1.42059 -0.0478281 0)
(0.871326 -0.0697274 0)
(1.03294 -0.111204 0)
(0.189857 -0.678682 0)
(0.0726307 -0.77145 0)
(0.373715 -0.604279 0)
(0.230956 -0.70852 0)
(0.535956 -0.517454 0)
(0.357647 -0.604227 0)
(0.677667 -0.444491 0)
(0.478602 -0.514267 0)
(0.80144 -0.385241 0)
(0.579431 -0.441566 0)
(0.909513 -0.336107 0)
(0.664578 -0.381514 0)
(1.00368 -0.29444 0)
(0.735283 -0.330738 0)
(1.08551 -0.257877 0)
(0.792774 -0.28699 0)
(1.1556 -0.223878 0)
(0.838208 -0.247335 0)
(1.21295 -0.191187 0)
(0.872027 -0.208822 0)
(1.25577 -0.162009 0)
(0.896411 -0.171112 0)
(1.28615 -0.139728 0)
(0.902195 -0.138742 0)
(1.3092 -0.121227 0)
(0.873213 -0.112759 0)
(1.31271 -0.0964178 0)
(0.813593 -0.0763658 0)
(1.26836 -0.0601943 0)
(0.745769 -0.0223801 0)
(1.16757 -0.0179043 0)
(0.657771 0.0322303 0)
(1.04375 0.0262236 0)
(0.546211 0.0705543 0)
(0.91832 0.0674624 0)
(0.438833 0.0985419 0)
(0.79395 0.0979294 0)
(0.330591 0.123157 0)
(0.668405 0.11535 0)
(0.221752 0.139357 0)
(0.546481 0.120726 0)
(0.117944 0.144624 0)
(0.434247 0.115426 0)
(0.0241763 0.139272 0)
(0.33806 0.101054 0)
(-0.0549838 0.124427 0)
(0.265373 0.0793815 0)
(-0.114201 0.100804 0)
(0.222587 0.0504128 0)
(-0.14847 0.0690631 0)
(0.210821 0.0156871 0)
(-0.151956 0.0299684 0)
(0.244857 -0.024416 0)
(-0.134526 -0.0165537 0)
(0.325782 -0.0787813 0)
(-0.0686712 -0.0713103 0)
(0.458847 -0.137987 0)
(0.0160416 -0.136468 0)
(0.140333 -0.181576 0)
(0.118553 -0.819636 0)
(0.0302015 -0.887565 0)
(0.223217 -0.727589 0)
(0.118844 -0.808611 0)
(0.311418 -0.620526 0)
(0.161334 -0.686583 0)
(0.385432 -0.530214 0)
(0.209327 -0.581743 0)
(0.445693 -0.455593 0)
(0.239366 -0.495207 0)
(0.492441 -0.392767 0)
(0.257641 -0.422143 0)
(0.525834 -0.339073 0)
(0.262118 -0.359074 0)
(0.547242 -0.292268 0)
(0.252706 -0.304727 0)
(0.557833 -0.249671 0)
(0.228669 -0.255903 0)
(0.557236 -0.208375 0)
(0.188501 -0.20835 0)
(0.539374 -0.16489 0)
(0.136406 -0.157336 0)
(0.48679 -0.115 0)
(0.0686186 -0.0991466 0)
(0.383883 -0.0560428 0)
(-0.0283244 -0.0371013 0)
(0.250737 0.00769667 0)
(-0.139476 0.019213 0)
(0.131757 0.063255 0)
(-0.246046 0.0610124 0)
(0.0354446 0.102564 0)
(-0.333706 0.0981408 0)
(-0.0595902 0.130304 0)
(-0.421722 0.134054 0)
(-0.155741 0.152691 0)
(-0.505294 0.16127 0)
(-0.247621 0.168878 0)
(-0.585499 0.181684 0)
(-0.331918 0.175013 0)
(-0.658745 0.191784 0)
(-0.40581 0.169818 0)
(-0.721698 0.189495 0)
(-0.465821 0.153641 0)
(-0.771994 0.174853 0)
(-0.508051 0.127373 0)
(-0.807513 0.148874 0)
(-0.529484 0.0919735 0)
(-0.82626 0.112918 0)
(-0.528715 0.0482836 0)
(-0.825839 0.0686388 0)
(-0.504754 -0.00410494 0)
(-0.805236 0.0170572 0)
(-0.455492 -0.0646702 0)
(-0.772873 -0.0424719 0)
(-0.384512 -0.128612 0)
(-0.71682 -0.107772 0)
(-0.315373 -0.183367 0)
(-0.661727 -0.171146 0)
(-0.618886 -0.214284 0)
(0.0403895 -0.885233 0)
(-0.013724 -0.927124 0)
(0.0615568 -0.775598 0)
(-0.00245275 -0.828853 0)
(0.0692991 -0.654218 0)
(-0.0456365 -0.693812 0)
(0.0681337 -0.551911 0)
(-0.0772165 -0.58068 0)
(0.0550817 -0.465183 0)
(-0.123674 -0.483589 0)
(0.0299778 -0.390197 0)
(-0.178884 -0.400325 0)
(-0.00806504 -0.323796 0)
(-0.245121 -0.326792 0)
(-0.062516 -0.262819 0)
(-0.322181 -0.259612 0)
(-0.136137 -0.203186 0)
(-0.410012 -0.196345 0)
(-0.228699 -0.141727 0)
(-0.508799 -0.135239 0)
(-0.336026 -0.0784676 0)
(-0.615966 -0.0745642 0)
(-0.448915 -0.0178604 0)
(-0.722925 -0.014141 0)
(-0.547356 0.0328748 0)
(-0.82175 0.0352731 0)
(-0.629907 0.0736972 0)
(-0.904294 0.0784726 0)
(-0.712021 0.111485 0)
(-0.98387 0.118565 0)
(-0.793859 0.147667 0)
(-1.06082 0.154145 0)
(-0.869701 0.177474 0)
(-1.1325 0.184731 0)
(-0.940081 0.198212 0)
(-1.19675 0.207186 0)
(-1.00123 0.209295 0)
(-1.25216 0.220633 0)
(-1.05124 0.208662 0)
(-1.29723 0.222891 0)
(-1.08929 0.19548 0)
(-1.33114 0.212601 0)
(-1.11459 0.170242 0)
(-1.35366 0.189855 0)
(-1.12636 0.134182 0)
(-1.36474 0.155686 0)
(-1.12424 0.0889814 0)
(-1.36427 0.111717 0)
(-1.10859 0.0362872 0)
(-1.35191 0.060003 0)
(-1.07975 -0.0236614 0)
(-1.32886 0.00151943 0)
(-1.04151 -0.0891819 0)
(-1.29809 -0.062595 0)
(-0.999273 -0.153487 0)
(-1.26143 -0.129467 0)
(-0.961661 -0.205425 0)
(-1.232 -0.190011 0)
(-1.2174 -0.232918 0)
(-0.0431844 -0.866272 0)
(-0.0629348 -0.884828 0)
(-0.107813 -0.740502 0)
(-0.131571 -0.767048 0)
(-0.181452 -0.610598 0)
(-0.255548 -0.625054 0)
(-0.263257 -0.500595 0)
(-0.365422 -0.506101 0)
(-0.352888 -0.405815 0)
(-0.482323 -0.403805 0)
(-0.45051 -0.322973 0)
(-0.601285 -0.31548 0)
(-0.555498 -0.248676 0)
(-0.721959 -0.237701 0)
(-0.665975 -0.180729 0)
(-0.843206 -0.168077 0)
(-0.779509 -0.11791 0)
(-0.963461 -0.1045 0)
(-0.893357 -0.0591835 0)
(-1.08012 -0.0453138 0)
(-1.00108 -0.00472896 0)
(-1.18785 0.0085148 0)
(-1.09383 0.0445371 0)
(-1.28465 0.0557005 0)
(-1.1779 0.0889621 0)
(-1.36969 0.0970814 0)
(-1.25788 0.128972 0)
(-1.45032 0.135888 0)
(-1.33272 0.164306 0)
(-1.52486 0.171015 0)
(-1.40128 0.194438 0)
(-1.59215 0.201069 0)
(-1.46113 0.217553 0)
(-1.65065 0.224717 0)
(-1.51148 0.231655 0)
(-1.69924 0.240033 0)
(-1.55094 0.235343 0)
(-1.7373 0.245773 0)
(-1.57923 0.22722 0)
(-1.76471 0.240481 0)
(-1.59692 0.206832 0)
(-1.78202 0.223344 0)
(-1.60479 0.17477 0)
(-1.79019 0.194525 0)
(-1.60353 0.132382 0)
(-1.79017 0.154953 0)
(-1.5937 0.0815236 0)
(-1.78257 0.106161 0)
(-1.57581 0.0239494 0)
(-1.76779 0.0501329 0)
(-1.55035 -0.0393944 0)
(-1.74756 -0.0122002 0)
(-1.52165 -0.105644 0)
(-1.72191 -0.0776939 0)
(-1.49535 -0.168387 0)
(-1.69863 -0.142978 0)
(-1.47405 -0.218616 0)
(-1.68402 -0.200694 0)
(-1.68 -0.241545 0)
(-0.129684 -0.765194 0)
(-0.117116 -0.757811 0)
(-0.277322 -0.630796 0)
(-0.260516 -0.625861 0)
(-0.427133 -0.500322 0)
(-0.455533 -0.485173 0)
(-0.577298 -0.390611 0)
(-0.629884 -0.369201 0)
(-0.724955 -0.297164 0)
(-0.799051 -0.27237 0)
(-0.868346 -0.21677 0)
(-0.95908 -0.190858 0)
(-1.00627 -0.146202 0)
(-1.10938 -0.120665 0)
(-1.1378 -0.0829962 0)
(-1.24851 -0.0590927 0)
(-1.26174 -0.0257979 0)
(-1.3754 -0.00424037 0)
(-1.3726 0.0249664 0)
(-1.49016 0.0422515 0)
(-1.47013 0.0696092 0)
(-1.59217 0.0837353 0)
(-1.55859 0.110052 0)
(-1.6844 0.122311 0)
(-1.64141 0.147339 0)
(-1.76963 0.157966 0)
(-1.7171 0.181126 0)
(-1.84697 0.190224 0)
(-1.78441 0.210125 0)
(-1.91551 0.218194 0)
(-1.84234 0.233066 0)
(-1.97438 0.240712 0)
(-1.8899 0.248509 0)
(-2.02287 0.256494 0)
(-1.92682 0.255011 0)
(-2.06065 0.264121 0)
(-1.95304 0.251382 0)
(-2.08788 0.262473 0)
(-1.96923 0.236714 0)
(-2.10525 0.250553 0)
(-1.97666 0.210774 0)
(-2.11396 0.227853 0)
(-1.97665 0.174072 0)
(-2.11543 0.194518 0)
(-1.97031 0.127752 0)
(-2.11089 0.151281 0)
(-1.95844 0.0734467 0)
(-2.10122 0.0994522 0)
(-1.94146 0.012892 0)
(-2.08724 0.0407617 0)
(-1.92098 -0.0517901 0)
(-2.0706 -0.0232362 0)
(-1.90057 -0.116826 0)
(-2.05201 -0.0884322 0)
(-1.88523 -0.176837 0)
(-2.03932 -0.150857 0)
(-1.87623 -0.224231 0)
(-2.03544 -0.205207 0)
(-2.03746 -0.242741 0)
(-0.214 -0.590546 0)
(-0.172253 -0.548211 0)
(-0.43449 -0.456859 0)
(-0.381581 -0.415005 0)
(-0.645383 -0.33628 0)
(-0.634961 -0.288258 0)
(-0.844057 -0.23847 0)
(-0.855279 -0.188077 0)
(-1.02792 -0.156999 0)
(-1.05555 -0.108706 0)
(-1.1965 -0.0876049 0)
(-1.23457 -0.0443417 0)
(-1.34879 -0.0282737 0)
(-1.39419 0.00856646 0)
(-1.48379 0.0219347 0)
(-1.53604 0.0527556 0)
(-1.6018 0.0649979 0)
(-1.66201 0.0912297 0)
(-1.70791 0.1037 0)
(-1.77396 0.126067 0)
(-1.80542 0.139691 0)
(-1.87629 0.158929 0)
(-1.89437 0.172952 0)
(-1.96892 0.18929 0)
(-1.97444 0.202968 0)
(-2.05197 0.216835 0)
(-2.04504 0.229042 0)
(-2.12511 0.240909 0)
(-2.10555 0.250148 0)
(-2.18793 0.260603 0)
(-2.15546 0.265126 0)
(-2.24009 0.274869 0)
(-2.19454 0.272765 0)
(-2.28142 0.282607 0)
(-2.22306 0.271948 0)
(-2.31213 0.282724 0)
(-2.24164 0.261762 0)
(-2.33289 0.274313 0)
(-2.25146 0.241582 0)
(-2.3448 0.256657 0)
(-2.25399 0.211249 0)
(-2.34933 0.229393 0)
(-2.25075 0.171131 0)
(-2.34807 0.192593 0)
(-2.24297 0.122124 0)
(-2.34239 0.14678 0)
(-2.23159 0.0656635 0)
(-2.33338 0.093018 0)
(-2.21743 0.00370875 0)
(-2.32212 0.0329492 0)
(-2.20284 -0.0607017 0)
(-2.31016 -0.0310973 0)
(-2.19088 -0.123464 0)
(-2.29961 -0.0947266 0)
(-2.18487 -0.180075 0)
(-2.29644 -0.153943 0)
(-2.18629 -0.223906 0)
(-2.30157 -0.204495 0)
(-2.30801 -0.238137 0)
(-0.29031 -0.360519 0)
(-0.225508 -0.26387 0)
(-0.575061 -0.24034 0)
(-0.486566 -0.142696 0)
(-0.832168 -0.135272 0)
(-0.777582 -0.0481915 0)
(-1.05929 -0.0534291 0)
(-1.02157 0.0189797 0)
(-1.25731 0.00761646 0)
(-1.23462 0.0675615 0)
(-1.4292 0.0539658 0)
(-1.42012 0.105048 0)
(-1.57916 0.0914926 0)
(-1.58194 0.135821 0)
(-1.71232 0.124488 0)
(-1.72449 0.163087 0)
(-1.8324 0.155017 0)
(-1.85186 0.18837 0)
(-1.94111 0.183609 0)
(-1.9659 0.211932 0)
(-2.03871 0.210263 0)
(-2.06788 0.234199 0)
(-2.12564 0.234536 0)
(-2.15842 0.254752 0)