/*--------------------------------*- C++ -*----------------------------------*\
  =========                 |
  \\      /  F ield         | OpenFOAM: The Open Source CFD Toolbox
   \\    /   O peration     | Website:  https://openfoam.org
    \\  /    A nd           | Version:  7
     \\/     M anipulation  |
\*---------------------------------------------------------------------------*/
FoamFile
{
    version     2.0;
    format      ascii;
    class       surfaceScalarField;
    location    "9.61";
    object      phi;
}
// * * * * * * * * * * * * * * * * * * * * * * * * * * * * * * * * * * * * * //

dimensions      [1 0 -1 0 0 0 0];

internalField   nonuniform List<scalar> 
23692
(
1.19577e-05
-3.23286e-07
1.25023e-05
-5.445e-07
1.3228e-05
-7.25584e-07
1.41043e-05
-8.76081e-07
1.511e-05
-1.00546e-06
1.62313e-05
-1.12088e-06
1.74596e-05
-1.22794e-06
1.87909e-05
-1.3309e-06
2.02238e-05
-1.43243e-06
2.17579e-05
-1.53359e-06
2.33923e-05
-1.63385e-06
2.51242e-05
-1.73133e-06
2.69481e-05
-1.82327e-06
2.88552e-05
-1.90648e-06
3.08337e-05
-1.97788e-06
3.28693e-05
-2.03489e-06
3.49457e-05
-2.07568e-06
3.70457e-05
-2.09929e-06
3.9152e-05
-2.10559e-06
4.12479e-05
-2.09518e-06
4.33178e-05
-2.06924e-06
4.53479e-05
-2.02934e-06
4.73259e-05
-1.97729e-06
4.92416e-05
-1.91498e-06
5.10867e-05
-1.8443e-06
5.28545e-05
-1.76705e-06
5.45401e-05
-1.68486e-06
5.614e-05
-1.59923e-06
5.76522e-05
-1.51145e-06
5.90755e-05
-1.42263e-06
6.041e-05
-1.33372e-06
6.16562e-05
-1.24551e-06
6.28155e-05
-1.15862e-06
6.38898e-05
-1.07358e-06
6.48813e-05
-9.90784e-07
6.57925e-05
-9.10544e-07
6.66262e-05
-8.33089e-07
6.73854e-05
-7.5858e-07
6.80732e-05
-6.87124e-07
6.86926e-05
-6.18781e-07
6.92468e-05
-5.53574e-07
6.97389e-05
-4.91494e-07
7.01719e-05
-4.32506e-07
7.05491e-05
-3.76556e-07
7.08732e-05
-3.23572e-07
7.11471e-05
-2.73465e-07
7.13738e-05
-2.26137e-07
7.15557e-05
-1.81477e-07
7.16955e-05
-1.39361e-07
7.17956e-05
-9.96557e-08
7.18582e-05
-6.22157e-08
7.18854e-05
-2.68803e-08
7.18793e-05
6.50683e-09
7.18415e-05
3.80749e-08
7.17738e-05
6.79489e-08
7.16778e-05
9.62923e-08
7.15547e-05
1.23294e-07
7.14057e-05
1.4916e-07
7.12317e-05
1.74116e-07
7.10334e-05
1.98409e-07
7.08112e-05
2.22315e-07
7.05651e-05
2.46143e-07
7.02948e-05
2.70249e-07
6.99997e-05
2.95042e-07
6.96786e-05
3.21004e-07
6.93298e-05
3.48714e-07
6.89508e-05
3.78877e-07
6.85383e-05
4.12378e-07
6.80877e-05
4.50351e-07
6.75932e-05
4.94292e-07
6.70467e-05
5.46241e-07
6.64373e-05
6.09076e-07
6.575e-05
6.87016e-07
6.49632e-05
7.86521e-07
6.40449e-05
9.17937e-07
6.29459e-05
1.09866e-06
6.1586e-05
1.35948e-06
5.98275e-05
1.75816e-06
5.74123e-05
2.41479e-06
5.37808e-05
3.63121e-06
6.74641e-06
4.7034e-05
1.27831e-05
-6.58346e-07
1.33615e-05
-1.12275e-06
1.41345e-05
-1.49847e-06
1.50688e-05
-1.81015e-06
1.61419e-05
-2.07829e-06
1.73389e-05
-2.31748e-06
1.86507e-05
-2.53937e-06
2.00731e-05
-2.75282e-06
2.16047e-05
-2.96345e-06
2.32451e-05
-3.17347e-06
2.49936e-05
-3.38179e-06
2.68474e-05
-3.58452e-06
2.88007e-05
-3.77588e-06
3.08441e-05
-3.94921e-06
3.2965e-05
-4.09808e-06
3.51479e-05
-4.21706e-06
3.73752e-05
-4.30232e-06
3.96285e-05
-4.35184e-06
4.1889e-05
-4.36532e-06
4.41387e-05
-4.34404e-06
4.63606e-05
-4.29043e-06
4.85398e-05
-4.20776e-06
5.06631e-05
-4.09982e-06
5.27195e-05
-3.97054e-06
5.46998e-05
-3.82387e-06
5.65971e-05
-3.66354e-06
5.8406e-05
-3.49297e-06
6.01228e-05
-3.31526e-06
6.17452e-05
-3.1331e-06
6.32722e-05
-2.9488e-06
6.47035e-05
-2.76433e-06
6.60401e-05
-2.58131e-06
6.72833e-05
-2.40106e-06
6.84351e-05
-2.22466e-06
6.9498e-05
-2.05292e-06
7.04747e-05
-1.8865e-06
7.13681e-05
-1.72587e-06
7.21816e-05
-1.57135e-06
7.29183e-05
-1.42316e-06
7.35816e-05
-1.28144e-06
7.41749e-05
-1.14622e-06
7.47016e-05
-1.01748e-06
7.51648e-05
-8.95156e-07
7.5568e-05
-7.79122e-07
7.59142e-05
-6.69231e-07
7.62066e-05
-5.65299e-07
7.64481e-05
-4.67118e-07
7.66416e-05
-3.74456e-07
7.67897e-05
-2.87058e-07
7.68952e-05
-2.04647e-07
7.69603e-05
-1.26919e-07
7.69874e-05
-5.35425e-08
7.69784e-05
1.57994e-08
7.69354e-05
8.13773e-08
7.68602e-05
1.43465e-07
7.67544e-05
2.02401e-07
7.66193e-05
2.58575e-07
7.64562e-05
3.12413e-07
7.62661e-05
3.64375e-07
7.60497e-05
4.14969e-07
7.58073e-05
4.64756e-07
7.55391e-05
5.14369e-07
7.52449e-05
5.64525e-07
7.49238e-05
6.1605e-07
7.45748e-05
6.69911e-07
7.41962e-05
7.27262e-07
7.37854e-05
7.89498e-07
7.33392e-05
8.58353e-07
7.28533e-05
9.36022e-07
7.2322e-05
1.02536e-06
7.17378e-05
1.1302e-06
7.10908e-05
1.25579e-06
7.03678e-05
1.40962e-06
6.95513e-05
1.60268e-06
6.86173e-05
1.85163e-06
6.7533e-05
2.18258e-06
6.62546e-05
2.63748e-06
6.47269e-05
3.28543e-06
6.28964e-05
4.24494e-06
6.08025e-05
5.72473e-06
8.0166e-06
5.95319e-05
1.36612e-05
-1.0012e-06
1.42703e-05
-1.73181e-06
1.50886e-05
-2.31655e-06
1.60806e-05
-2.80189e-06
1.72219e-05
-3.21931e-06
1.84965e-05
-3.59162e-06
1.98946e-05
-3.93709e-06
2.14119e-05
-4.26963e-06
2.30471e-05
-4.59813e-06
2.48004e-05
-4.9261e-06
2.66711e-05
-5.25189e-06
2.86567e-05
-5.56941e-06
3.0751e-05
-5.86953e-06
3.29443e-05
-6.14175e-06
3.52228e-05
-6.37585e-06
3.75698e-05
-6.56325e-06
3.99661e-05
-6.69785e-06
4.23914e-05
-6.7764e-06
4.48254e-05
-6.79845e-06
4.72481e-05
-6.76596e-06
4.96413e-05
-6.6828e-06
5.19885e-05
-6.5541e-06
5.42753e-05
-6.38582e-06
5.64898e-05
-6.18416e-06
5.86221e-05
-5.95531e-06
6.06645e-05
-5.70512e-06
6.26114e-05
-5.43899e-06
6.44587e-05
-5.16174e-06
6.6204e-05
-4.87758e-06
6.78462e-05
-4.59015e-06
6.93852e-05
-4.30249e-06
7.08218e-05
-4.01714e-06
7.21577e-05
-3.73616e-06
7.3395e-05
-3.46121e-06
7.45365e-05
-3.19359e-06
7.5585e-05
-2.93427e-06
7.65439e-05
-2.68399e-06
7.74166e-05
-2.44327e-06
7.82066e-05
-2.21244e-06
7.89175e-05
-1.99168e-06
7.95531e-05
-1.78106e-06
8.01168e-05
-1.58053e-06
8.06123e-05
-1.38999e-06
8.1043e-05
-1.20924e-06
8.14124e-05
-1.03804e-06
8.17238e-05
-8.7611e-07
8.19804e-05
-7.23115e-07
8.21852e-05
-5.78693e-07
8.23411e-05
-4.42443e-07
8.24508e-05
-3.13934e-07
8.25171e-05
-1.92693e-07
8.25421e-05
-7.82062e-08
8.25283e-05
3.0009e-08
8.24777e-05
1.32376e-07
8.23921e-05
2.29342e-07
8.22733e-05
3.21441e-07
8.21229e-05
4.09275e-07
8.1942e-05
4.93497e-07
8.17317e-05
5.74814e-07
8.14928e-05
6.53998e-07
8.12257e-05
7.31902e-07
8.09307e-05
8.09476e-07
8.06074e-05
8.87795e-07
8.02553e-05
9.68086e-07
7.98734e-05
1.05177e-06
7.946e-05
1.14053e-06
7.9013e-05
1.23637e-06
7.85294e-05
1.34174e-06
7.80055e-05
1.45968e-06
7.74365e-05
1.59408e-06
7.68165e-05
1.74994e-06
7.6138e-05
1.93394e-06
7.53922e-05
2.15508e-06
7.45687e-05
2.4258e-06
7.36565e-05
2.76349e-06
7.2646e-05
3.19265e-06
7.15355e-05
3.74757e-06
7.03454e-05
4.47508e-06
6.91547e-05
5.43525e-06
6.81907e-05
6.68834e-06
8.22268e-06
6.79842e-05
1.45974e-05
-1.3494e-06
1.52341e-05
-2.36841e-06
1.60956e-05
-3.17784e-06
1.71445e-05
-3.85052e-06
1.83545e-05
-4.42896e-06
1.97081e-05
-4.94484e-06
2.11953e-05
-5.42377e-06
2.28115e-05
-5.88531e-06
2.45559e-05
-6.34198e-06
2.64293e-05
-6.79886e-06
2.84318e-05
-7.2537e-06
3.0561e-05
-7.69795e-06
3.28109e-05
-8.11868e-06
3.51709e-05
-8.501e-06
3.76262e-05
-8.83035e-06
4.01583e-05
-9.09448e-06
4.2746e-05
-9.28469e-06
4.53668e-05
-9.39633e-06
4.7998e-05
-9.42875e-06
5.06176e-05
-9.38472e-06
5.32054e-05
-9.2697e-06
5.57432e-05
-9.09099e-06
5.82152e-05
-8.85696e-06
6.06083e-05
-8.57638e-06
6.29119e-05
-8.25793e-06
6.51175e-05
-7.90983e-06
6.7219e-05
-7.53963e-06
6.92123e-05
-7.15408e-06
7.10946e-05
-6.75904e-06
7.28649e-05
-6.35958e-06
7.45233e-05
-5.95993e-06
7.60706e-05
-5.56361e-06
7.75088e-05
-5.17348e-06
7.88402e-05
-4.79181e-06
8.00679e-05
-4.4204e-06
8.1195e-05
-4.0606e-06
8.22253e-05
-3.7134e-06
8.31623e-05
-3.37952e-06
8.401e-05
-3.05939e-06
8.47724e-05
-2.75326e-06
8.54533e-05
-2.46121e-06
8.60567e-05
-2.18318e-06
8.65863e-05
-1.91898e-06
8.70461e-05
-1.66836e-06
8.74397e-05
-1.43096e-06
8.77706e-05
-1.20638e-06
8.80423e-05
-9.94167e-07
8.8258e-05
-7.93802e-07
8.84208e-05
-6.04731e-07
8.85337e-05
-4.26353e-07
8.85995e-05
-2.58014e-07
8.86208e-05
-9.90097e-08
8.85999e-05
5.13141e-08
8.85391e-05
1.93547e-07
8.84404e-05
3.28333e-07
8.83058e-05
4.56424e-07
8.81366e-05
5.78644e-07
8.79345e-05
6.95881e-07
8.77004e-05
8.09088e-07
8.74352e-05
9.19301e-07
8.71395e-05
1.02765e-06
8.68137e-05
1.1354e-06
8.64575e-05
1.24395e-06
8.60707e-05
1.35487e-06
8.56524e-05
1.46999e-06
8.52014e-05
1.59141e-06
8.4716e-05
1.72159e-06
8.4194e-05
1.86347e-06
8.36329e-05
2.02063e-06
8.30292e-05
2.19743e-06
8.23795e-05
2.39931e-06
8.168e-05
2.63311e-06
8.09272e-05
2.90751e-06
8.01191e-05
3.23352e-06
7.92572e-05
3.62502e-06
7.83504e-05
4.09902e-06
7.74222e-05
4.6753e-06
7.65226e-05
5.37426e-06
7.57463e-05
6.21106e-06
7.52524e-05
7.18183e-06
8.23176e-06
7.52429e-05
1.55971e-05
-1.70169e-06
1.62588e-05
-3.02996e-06
1.71616e-05
-4.08049e-06
1.82665e-05
-4.95514e-06
1.95454e-05
-5.70748e-06
2.09796e-05
-6.3786e-06
2.25586e-05
-7.00224e-06
2.42781e-05
-7.60428e-06
2.61383e-05
-8.20148e-06
2.81408e-05
-8.80077e-06
3.02871e-05
-9.39922e-06
3.25754e-05
-9.98546e-06
3.49996e-05
-1.05421e-05
3.75484e-05
-1.1049e-05
4.02054e-05
-1.14865e-05
4.29497e-05
-1.18379e-05
4.57575e-05
-1.20916e-05
4.86033e-05
-1.22412e-05
5.14613e-05
-1.22859e-05
5.43071e-05
-1.22295e-05
5.71177e-05
-1.20794e-05
5.98731e-05
-1.18454e-05
6.25558e-05
-1.15387e-05
6.51513e-05
-1.1171e-05
6.76481e-05
-1.07537e-05
7.00372e-05
-1.02979e-05
7.23119e-05
-9.81342e-06
7.44679e-05
-9.30912e-06
7.65026e-05
-8.79274e-06
7.84148e-05
-8.27085e-06
8.02048e-05
-7.74901e-06
8.18739e-05
-7.23176e-06
8.34242e-05
-6.72283e-06
8.48584e-05
-6.22514e-06
8.61799e-05
-5.741e-06
8.73923e-05
-5.27215e-06
8.84997e-05
-4.81987e-06
8.9506e-05
-4.38503e-06
9.04157e-05
-3.96819e-06
9.12329e-05
-3.56966e-06
9.1962e-05
-3.1895e-06
9.26072e-05
-2.82761e-06
9.31727e-05
-2.48374e-06
9.36626e-05
-2.15754e-06
9.40809e-05
-1.84854e-06
9.44314e-05
-1.5562e-06
9.47178e-05
-1.27992e-06
9.49436e-05
-1.01901e-06
9.51122e-05
-7.72754e-07
9.52268e-05
-5.40369e-07
9.52903e-05
-3.21011e-07
9.53055e-05
-1.13773e-07
9.52751e-05
8.21781e-08
9.52014e-05
2.67611e-07
9.50867e-05
4.43396e-07
9.4933e-05
6.10515e-07
9.47419e-05
7.70025e-07
9.45149e-05
9.23046e-07
9.42535e-05
1.07078e-06
9.39584e-05
1.2145e-06
9.36305e-05
1.35561e-06
9.32704e-05
1.49563e-06
9.28781e-05
1.63624e-06
9.24536e-05
1.77932e-06
9.19966e-05
1.92695e-06
9.15063e-05
2.08152e-06
9.0982e-05
2.24576e-06
9.04224e-05
2.42282e-06
8.98264e-05
2.61636e-06
8.91928e-05
2.83071e-06
8.85209e-05
3.07093e-06
8.78107e-05
3.34298e-06
8.7064e-05
3.65382e-06
8.62857e-05
4.01135e-06
8.54861e-05
4.42424e-06
8.46835e-05
4.90114e-06
8.39091e-05
5.44924e-06
8.32114e-05
6.07146e-06
8.26603e-05
6.76175e-06
8.23436e-05
7.49797e-06
8.23086e-06
8.23441e-05
1.66658e-05
-2.05785e-06
1.73507e-05
-3.7147e-06
1.82935e-05
-5.02315e-06
1.94538e-05
-6.11509e-06
2.0802e-05
-7.05529e-06
2.23185e-05
-7.89462e-06
2.39926e-05
-8.67582e-06
2.5821e-05
-9.432e-06
2.78051e-05
-1.01849e-05
2.99486e-05
-1.09436e-05
3.22546e-05
-1.17044e-05
3.47224e-05
-1.24525e-05
3.73462e-05
-1.3165e-05
4.01132e-05
-1.38152e-05
4.30048e-05
-1.43771e-05
4.59968e-05
-1.4829e-05
4.90615e-05
-1.51553e-05
5.21694e-05
-1.53481e-05
5.5291e-05
-1.54065e-05
5.83982e-05
-1.53357e-05
6.14652e-05
-1.51454e-05
6.44696e-05
-1.48487e-05
6.7392e-05
-1.446e-05
7.02166e-05
-1.39945e-05
7.29308e-05
-1.3467e-05
7.55252e-05
-1.28912e-05
7.79928e-05
-1.228e-05
8.03292e-05
-1.16445e-05
8.25319e-05
-1.09943e-05
8.45999e-05
-1.03379e-05
8.65339e-05
-9.68202e-06
8.83356e-05
-9.03241e-06
9.00074e-05
-8.39367e-06
9.15527e-05
-7.76943e-06
9.29752e-05
-7.16251e-06
9.4279e-05
-6.57504e-06
9.54686e-05
-6.00856e-06
9.65487e-05
-5.46412e-06
9.75237e-05
-4.94238e-06
9.83986e-05
-4.44367e-06
9.91781e-05
-3.96805e-06
9.98666e-05
-3.51535e-06
0.000100469
-3.08524e-06
0.000100989
-2.67724e-06
0.000101432
-2.29075e-06
0.000101802
-1.92507e-06
0.000102102
-1.57943e-06
0.000102337
-1.25298e-06
0.00010251
-9.44814e-07
0.000102624
-6.53946e-07
0.000102683
-3.79337e-07
0.000102689
-1.19875e-07
0.000102646
1.25465e-07
0.000102557
3.57651e-07
0.000102423
5.77801e-07
0.000102247
7.87142e-07
0.00010203
9.86963e-07
0.000101775
1.17861e-06
0.000101482
1.36351e-06
0.000101154
1.54317e-06
0.00010079
1.71922e-06
0.000100392
1.89338e-06
9.9961e-05
2.06756e-06
9.94965e-05
2.2438e-06
9.8999e-05
2.42437e-06
9.84686e-05
2.61174e-06
9.79055e-05
2.80869e-06
9.73099e-05
3.01826e-06
9.66821e-05
3.24386e-06
9.60232e-05
3.48926e-06
9.53353e-05
3.75857e-06
9.46216e-05
4.05623e-06
9.38882e-05
4.38681e-06
9.31444e-05
4.75477e-06
9.24043e-05
5.16385e-06
9.16887e-05
5.61622e-06
9.10264e-05
6.1111e-06
9.04545e-05
6.64286e-06
9.00171e-05
7.19866e-06
8.97587e-05
7.75581e-06
8.27992e-06
8.97092e-05
1.78091e-05
-2.41853e-06
1.85164e-05
-4.42182e-06
1.94987e-05
-6.00523e-06
2.07143e-05
-7.33032e-06
2.21327e-05
-8.47335e-06
2.37339e-05
-9.49529e-06
2.55076e-05
-1.04489e-05
2.74519e-05
-1.13757e-05
2.95711e-05
-1.23033e-05
3.18717e-05
-1.32435e-05
3.43594e-05
-1.41913e-05
3.70352e-05
-1.51274e-05
3.98927e-05
-1.60216e-05
4.29176e-05
-1.6839e-05
4.60871e-05
-1.75457e-05
4.93724e-05
-1.81133e-05
5.27404e-05
-1.85222e-05
5.61562e-05
-1.87628e-05
5.95853e-05
-1.88345e-05
6.29953e-05
-1.87446e-05
6.63571e-05
-1.85062e-05
6.96455e-05
-1.8136e-05
7.28393e-05
-1.76527e-05
7.59214e-05
-1.70755e-05
7.88784e-05
-1.64229e-05
8.17006e-05
-1.57122e-05
8.43809e-05
-1.49592e-05
8.6915e-05
-1.41775e-05
8.93008e-05
-1.3379e-05
9.15378e-05
-1.25739e-05
9.36273e-05
-1.17704e-05
9.55714e-05
-1.09754e-05
9.73732e-05
-1.01945e-05
9.90367e-05
-9.43189e-06
0.000100566
-8.69101e-06
0.000101967
-7.97432e-06
0.000103243
-7.28362e-06
0.0001044
-6.62013e-06
0.000105443
-5.98455e-06
0.000106377
-5.37723e-06
0.000107208
-4.79818e-06
0.000107941
-4.24715e-06
0.00010858
-3.72369e-06
0.000109131
-3.22717e-06
0.000109598
-2.75684e-06
0.000109986
-2.31184e-06
0.000110298
-1.89118e-06
0.00011054
-1.49384e-06
0.000110714
-1.1187e-06
0.000110825
-7.64577e-07
0.000110877
-4.30218e-07
0.000110872
-1.14314e-07
0.000110814
1.84375e-07
0.000110705
4.67037e-07
0.000110548
7.35064e-07
0.000110345
9.89928e-07
0.0001101
1.23314e-06
0.000109812
1.46627e-06
0.000109485
1.69093e-06
0.00010912
1.90883e-06
0.000108717
2.12177e-06
0.000108279
2.33164e-06
0.000107806
2.54044e-06
0.0001073
2.75032e-06
0.00010676
2.96355e-06
0.000106189
3.18255e-06
0.000105588
3.4099e-06
0.000104958
3.64832e-06
0.000104301
3.90064e-06
0.00010362
4.16979e-06
0.000102919
4.45865e-06
0.000102205
4.76993e-06
0.000101486
5.1059e-06
0.000100772
5.46805e-06
0.000100079
5.85658e-06
9.94248e-05
6.26968e-06
9.88326e-05
6.70274e-06
9.83275e-05
7.14747e-06
9.79345e-05
7.59108e-06
9.76738e-05
8.016e-06
8.40087e-06
9.75523e-05
1.90328e-05
-2.78503e-06
1.97626e-05
-5.15146e-06
2.07847e-05
-7.02708e-06
2.20563e-05
-8.60161e-06
2.35469e-05
-9.96346e-06
2.52362e-05
-1.11841e-05
2.71156e-05
-1.23276e-05
2.91861e-05
-1.34455e-05
3.1456e-05
-1.45725e-05
3.39365e-05
-1.57231e-05
3.66369e-05
-1.68908e-05
3.95597e-05
-1.80492e-05
4.26978e-05
-1.91587e-05
4.60329e-05
-2.01731e-05
4.95365e-05
-2.10482e-05
5.31726e-05
-2.17482e-05
5.69004e-05
-2.22489e-05
6.06781e-05
-2.25393e-05
6.4465e-05
-2.26203e-05
6.8224e-05
-2.25024e-05
7.19221e-05
-2.22031e-05
7.55314e-05
-2.17441e-05
7.90291e-05
-2.11492e-05
8.23971e-05
-2.04422e-05
8.56215e-05
-1.96462e-05
8.86927e-05
-1.87822e-05
9.16039e-05
-1.78692e-05
9.43514e-05
-1.69238e-05
9.69336e-05
-1.59601e-05
9.9351e-05
-1.49901e-05
0.000101605
-1.40236e-05
0.0001037
-1.30688e-05
0.000105639
-1.21319e-05
0.000107426
-1.1218e-05
0.000109067
-1.0331e-05
0.000110567
-9.47356e-06
0.000111933
-8.64783e-06
0.000113169
-7.8551e-06
0.000114281
-7.0961e-06
0.000115276
-6.37116e-06
0.000116159
-5.68019e-06
0.000116936
-5.02284e-06
0.000117612
-4.39849e-06
0.000118192
-3.80636e-06
0.000118681
-3.2455e-06
0.000119085
-2.71484e-06
0.000119408
-2.2132e-06
0.000119654
-1.73933e-06
0.000119828
-1.2919e-06
0.000119934
-8.69509e-07
0.000119975
-4.70695e-07
0.000119955
-9.39566e-08
0.000119878
2.62176e-07
0.000119746
5.99159e-07
0.000119563
9.18665e-07
0.000119331
1.2224e-06
0.000119052
1.51209e-06
0.000118729
1.78949e-06
0.000118364
2.05639e-06
0.000117959
2.31464e-06
0.000117514
2.56616e-06
0.000117033
2.81292e-06
0.000116517
3.05696e-06
0.000115967
3.3004e-06
0.000115385
3.54541e-06
0.000114773
3.79419e-06
0.000114134
4.04898e-06
0.00011347
4.31201e-06
0.000112785
4.58539e-06
0.000112083
4.8711e-06
0.000111371
5.1708e-06
0.000110654
5.48565e-06
0.000109944
5.81613e-06
0.00010925
6.16169e-06
0.000108585
6.52046e-06
0.000107966
6.88883e-06
0.000107407
7.26117e-06
0.000106924
7.62954e-06
0.000106531
7.98373e-06
0.000106235
8.31171e-06
8.60109e-06
0.000106034
2.03427e-05
-3.15912e-06
2.1096e-05
-5.90466e-06
2.21593e-05
-8.09002e-06
2.34889e-05
-9.93083e-06
2.50545e-05
-1.15286e-05
2.68372e-05
-1.29662e-05
2.88312e-05
-1.43208e-05
3.10424e-05
-1.5656e-05
3.34858e-05
-1.7015e-05
3.61788e-05
-1.84153e-05
3.91355e-05
-1.98464e-05
4.23595e-05
-2.12722e-05
4.58407e-05
-2.26388e-05
4.95541e-05
-2.38853e-05
5.3462e-05
-2.49549e-05
5.75178e-05
-2.58029e-05
6.16711e-05
-2.6401e-05
6.58711e-05
-2.67381e-05
7.00704e-05
-2.68183e-05
7.42263e-05
-2.6657e-05
7.83024e-05
-2.62779e-05
8.22685e-05
-2.57089e-05
8.61006e-05
-2.498e-05
8.97802e-05
-2.41205e-05
9.32938e-05
-2.31584e-05
9.6632e-05
-2.21191e-05
9.97891e-05
-2.1025e-05
0.000102762
-1.98956e-05
0.000105551
-1.87476e-05
0.000108157
-1.75948e-05
0.000110583
-1.64484e-05
0.000112833
-1.53178e-05
0.000114913
-1.42101e-05
0.000116827
-1.3131e-05
0.000118582
-1.20847e-05
0.000120184
-1.10744e-05
0.00012164
-1.01022e-05
0.000122955
-9.16956e-06
0.000124137
-8.27712e-06
0.000125192
-7.42515e-06
0.000126127
-6.61343e-06
0.000126946
-5.84144e-06
0.000127657
-5.1084e-06
0.000128265
-4.4133e-06
0.000128776
-3.75496e-06
0.000129194
-3.13211e-06
0.000129525
-2.54332e-06
0.000129773
-1.98711e-06
0.000129944
-1.46191e-06
0.000130042
-9.66101e-07
0.00013007
-4.97996e-07
0.000130032
-5.59335e-08
0.000129933
3.61787e-07
0.000129776
7.56988e-07
0.000129564
1.13161e-06
0.000129299
1.48756e-06
0.000128985
1.82675e-06
0.000128623
2.15109e-06
0.000128217
2.46252e-06
0.000127769
2.763e-06
0.000127281
3.05448e-06
0.000126755
3.33896e-06
0.000126194
3.61845e-06
0.000125599
3.89493e-06
0.000124974
4.17036e-06
0.000124322
4.44667e-06
0.000123645
4.72566e-06
0.000122948
5.00899e-06
0.000122235
5.29809e-06
0.000121511
5.59404e-06
0.000120784
5.8975e-06
0.000120061
6.20851e-06
0.00011935
6.52637e-06
0.000118662
6.84946e-06
0.000118007
7.17504e-06
0.000117396
7.4992e-06
0.00011684
7.81676e-06
0.000116347
8.12134e-06
0.000115925
8.4057e-06
0.000115574
8.66223e-06
8.88412e-06
0.00011529
2.17449e-05
-3.54295e-06
2.25238e-05
-6.68334e-06
2.36304e-05
-9.19637e-06
2.50211e-05
-1.13211e-05
2.66665e-05
-1.31735e-05
2.85503e-05
-1.48494e-05
3.06719e-05
-1.64417e-05
3.30455e-05
-1.80288e-05
3.56955e-05
-1.9664e-05
3.86481e-05
-2.13669e-05
4.19221e-05
-2.31194e-05
4.55205e-05
-2.48695e-05
4.94262e-05
-2.65433e-05
5.36026e-05
-2.80606e-05
5.79982e-05
-2.93493e-05
6.25526e-05
-3.03559e-05
6.72028e-05
-3.10498e-05
7.18882e-05
-3.14222e-05
7.6554e-05
-3.14827e-05
8.11527e-05
-3.12543e-05
8.5645e-05
-3.07688e-05
8.99993e-05
-3.00618e-05
9.41913e-05
-2.91706e-05
9.8203e-05
-2.81308e-05
0.000102022
-2.69759e-05
0.00010564
-2.57357e-05
0.000109053
-2.44364e-05
0.000112259
-2.31007e-05
0.00011526
-2.17473e-05
0.000118059
-2.0392e-05
0.000120659
-1.90475e-05
0.000123067
-1.77242e-05
0.000125288
-1.643e-05
0.00012733
-1.5171e-05
0.000129198
-1.3952e-05
0.000130901
-1.27762e-05
0.000132446
-1.16459e-05
0.00013384
-1.05623e-05
0.000135091
-9.52619e-06
0.000136204
-8.5376e-06
0.000137188
-7.59617e-06
0.000138049
-6.70115e-06
0.000138793
-5.8515e-06
0.000139427
-5.046e-06
0.000139956
-4.2832e-06
0.000140387
-3.56156e-06
0.000140724
-2.87942e-06
0.000140972
-2.23503e-06
0.000141138
-1.62658e-06
0.000141225
-1.0522e-06
0.000141238
-5.0994e-07
0.00014118
1.92974e-09
0.000141058
4.85288e-07
0.000140873
9.42601e-07
0.000140629
1.37592e-06
0.00014033
1.78734e-06
0.000139978
2.17892e-06
0.000139577
2.55272e-06
0.000139129
2.91076e-06
0.000138637
3.25506e-06
0.000138104
3.58759e-06
0.000137533
3.9103e-06
0.000136926
4.22509e-06
0.000136287
4.53377e-06
0.00013562
4.83806e-06
0.000134927
5.13954e-06
0.000134213
5.43959e-06
0.000133482
5.73935e-06
0.00013274
6.03965e-06
0.000131993
6.34092e-06
0.000131247
6.64311e-06
0.000130509
6.94561e-06
0.000129788
7.24716e-06
0.000129091
7.54577e-06
0.000128427
7.83871e-06
0.000127803
8.12253e-06
0.000127226
8.39314e-06
0.000126701
8.64598e-06
0.00012623
8.87631e-06
0.000125812
9.07964e-06
9.2526e-06
0.000125443
2.32458e-05
-3.9389e-06
2.4053e-05
-7.49026e-06
2.52064e-05
-1.03495e-05
2.66627e-05
-1.27769e-05
2.83947e-05
-1.49049e-05
3.03911e-05
-1.68451e-05
3.26601e-05
-1.87099e-05
3.52284e-05
-2.05962e-05
3.81337e-05
-2.25684e-05
4.14128e-05
-2.4645e-05
4.50878e-05
-2.67933e-05
4.91563e-05
-2.89368e-05
5.35877e-05
-3.09735e-05
5.83274e-05
-3.27989e-05
6.33043e-05
-3.43249e-05
6.84408e-05
-3.5491e-05
7.36599e-05
-3.62674e-05
7.88908e-05
-3.66516e-05
8.40721e-05
-3.66625e-05
8.91526e-05
-3.63334e-05
9.40916e-05
-3.57062e-05
9.88574e-05
-3.48261e-05
0.000103427
-3.37383e-05
0.000107783
-3.24857e-05
0.000111916
-3.11073e-05
0.00011582
-2.96377e-05
0.000119492
-2.81069e-05
0.000122933
-2.65402e-05
0.000126146
-2.4959e-05
0.000129136
-2.33806e-05
0.000131909
-2.18191e-05
0.000134472
-2.02855e-05
0.000136832
-1.87887e-05
0.000138998
-1.73352e-05
0.000140977
-1.59297e-05
0.000142778
-1.45757e-05
0.000144409
-1.32754e-05
0.000145878
-1.20301e-05
0.000147193
-1.08402e-05
0.000148362
-9.70555e-06
0.000149393
-8.62557e-06
0.000150292
-7.59925e-06
0.000151067
-6.62526e-06
0.000151724
-5.70208e-06
0.00015227
-4.82798e-06
0.000152711
-4.00114e-06
0.000153052
-3.2196e-06
0.0001533
-2.48136e-06
0.000153458
-1.78434e-06
0.000153533
-1.12645e-06
0.00015353
-5.05553e-07
0.000153452
8.0445e-08
0.000153304
6.33782e-07
0.000153091
1.15696e-06
0.000152815
1.65238e-06
0.00015248
2.12231e-06
0.000152091
2.56894e-06
0.00015165
2.99444e-06
0.00015116
3.40089e-06
0.000150625
3.79032e-06
0.000150048
4.16469e-06
0.000149433
4.52586e-06
0.000148782
4.87559e-06
0.000148101
5.21551e-06
0.000147391
5.54708e-06
0.000146659
5.87156e-06
0.000145909
6.18998e-06
0.000145145
6.50309e-06
0.000144373
6.81127e-06
0.000143599
7.11457e-06
0.000142829
7.41256e-06
0.00014207
7.70437e-06
0.000141328
7.98866e-06
0.00014061
8.26358e-06
0.000139921
8.52685e-06
0.000139267
8.77584e-06
0.000138652
9.00765e-06
0.000138078
9.21933e-06
0.000137546
9.40807e-06
0.000137053
9.57148e-06
9.7082e-06
0.000136597
2.48522e-05
-4.34959e-06
2.56912e-05
-8.32901e-06
2.68961e-05
-1.1554e-05
2.84244e-05
-1.43047e-05
3.02531e-05
-1.67329e-05
3.23795e-05
-1.89707e-05
3.48258e-05
-2.11554e-05
3.7637e-05
-2.34063e-05
4.08683e-05
-2.57986e-05
4.4567e-05
-2.83425e-05
4.87538e-05
-3.09789e-05
5.34121e-05
-3.35938e-05
5.84885e-05
-3.60485e-05
6.3902e-05
-3.8211e-05
6.95575e-05
-3.99788e-05
7.53574e-05
-4.12894e-05
8.12107e-05
-4.21193e-05
8.70381e-05
-4.24774e-05
9.27733e-05
-4.23961e-05
9.83636e-05
-4.19221e-05
0.000103769
-4.11095e-05
0.000108958
-4.00142e-05
0.000113912
-3.86904e-05
0.000118616
-3.71882e-05
0.000123063
-3.55525e-05
0.000127249
-3.38226e-05
0.000131176
-3.20319e-05
0.000134846
-3.02088e-05
0.000138266
-2.83764e-05
0.00014144
-2.65538e-05
0.000144379
-2.47559e-05
0.000147089
-2.29947e-05
0.000149582
-2.12793e-05
0.000151864
-1.96164e-05
0.000153947
-1.80111e-05
0.00015584
-1.64667e-05
0.000157551
-1.49851e-05
0.00015909
-1.35675e-05
0.000160465
-1.22141e-05
0.000161685
-1.09244e-05
0.000162759
-9.69748e-06
0.000163693
-8.53202e-06
0.000164495
-7.42637e-06
0.000165173
-6.37865e-06
0.000165733
-5.38683e-06
0.000166182
-4.44874e-06
0.000166526
-3.56214e-06
0.00016677
-2.72472e-06
0.000166921
-1.93416e-06
0.000166983
-1.18811e-06
0.000166963
-4.84229e-07
0.000166864
1.79928e-07
0.000166692
8.0692e-07
0.00016645
1.39943e-06
0.000166143
1.96005e-06
0.000165775
2.49122e-06
0.000165349
2.99524e-06
0.00016487
3.47436e-06
0.000164341
3.9307e-06
0.000163765
4.36629e-06
0.000163147
4.78303e-06
0.00016249
5.1827e-06
0.000161799
5.56691e-06
0.000161078
5.93714e-06
0.00016033
6.29461e-06
0.000159561
6.64037e-06
0.000158776
6.97518e-06
0.000157979
7.29953e-06
0.000157177
7.6136e-06
0.000156374
7.91725e-06
0.000155576
8.20999e-06
0.000154789
8.491e-06
0.000154018
8.75913e-06
0.000153268
9.01296e-06
0.000152544
9.25087e-06
0.000151848
9.47107e-06
0.000151183
9.67179e-06
0.00015055
9.85134e-06
0.00014995
1.00083e-05
0.000149379
1.01416e-05
1.02511e-05
0.000148835
2.65712e-05
-4.77792e-06
2.74466e-05
-9.20417e-06
2.8709e-05
-1.28161e-05
3.03185e-05
-1.59137e-05
3.2259e-05
-1.86727e-05
3.45419e-05
-2.12528e-05
3.72111e-05
-2.38236e-05
4.03366e-05
-2.65308e-05
4.39943e-05
-2.94551e-05
4.82379e-05
-3.25849e-05
5.30762e-05
-3.58158e-05
5.84653e-05
-3.89814e-05
6.43172e-05
-4.18988e-05
7.05172e-05
-4.44094e-05
7.69426e-05
-4.64027e-05
8.34766e-05
-4.78218e-05
9.00163e-05
-4.86573e-05
9.64763e-05
-4.89356e-05
0.000102789
-4.87068e-05
0.000108902
-4.80336e-05
0.000114778
-4.69841e-05
0.000120392
-4.56257e-05
0.000125725
-4.40218e-05
0.000130769
-4.22301e-05
0.000135519
-4.03011e-05
0.000139977
-3.82784e-05
0.000144145
-3.61989e-05
0.000148032
-3.40932e-05
0.000151643
-3.19863e-05
0.00015499
-2.98984e-05
0.000158081
-2.78452e-05
0.000160927
-2.58393e-05
0.00016354
-2.38899e-05
0.000165929
-2.20039e-05
0.000168105
-2.0186e-05
0.00017008
-1.84395e-05
0.000171862
-1.67661e-05
0.000173463
-1.51666e-05
0.000174891
-1.36407e-05
0.000176156
-1.21877e-05
0.000177266
-1.08062e-05
0.00017823
-9.49453e-06
0.000179056
-8.2506e-06
0.000179751
-7.07217e-06
0.000180322
-5.95684e-06
0.000180777
-4.9021e-06
0.000181121
-3.90538e-06
0.000181362
-2.96406e-06
0.000181504
-2.07554e-06
0.000181555
-1.23721e-06
0.000181518
-4.46489e-07
0.000181399
2.99382e-07
0.000181204
1.00327e-06
0.000180936
1.66807e-06
0.0001806
2.29653e-06
0.000180201
2.89121e-06
0.000179742
3.45453e-06
0.000179229
3.98879e-06
0.000178664
4.49613e-06
0.000178052
4.97858e-06
0.000177397
5.43799e-06
0.000176704
5.87606e-06
0.000175977
6.29431e-06
0.00017522
6.69406e-06
0.000174438
7.07643e-06
0.000173636
7.44229e-06
0.000172819
7.79229e-06
0.000171992
8.12684e-06
0.000171159
8.44605e-06
0.000170326
8.74983e-06
0.000169498
9.0378e-06
0.000168679
9.3094e-06
0.000167874
9.56385e-06
0.000167086
9.80027e-06
0.000166319
1.00177e-05
0.000165574
1.02151e-05
0.000164854
1.03917e-05
0.000164158
1.05467e-05
0.000163486
1.06796e-05
0.000162837
1.07903e-05
1.08794e-05
0.000162208
2.84103e-05
-5.22713e-06
2.93279e-05
-1.01215e-05
3.06562e-05
-1.4144e-05
3.236e-05
-1.76169e-05
3.44351e-05
-2.0747e-05
3.69153e-05
-2.37321e-05
3.9876e-05
-2.67833e-05
4.34197e-05
-3.00733e-05
4.76415e-05
-3.36757e-05
5.25905e-05
-3.75325e-05
5.8246e-05
-4.14698e-05
6.45198e-05
-4.52537e-05
7.12781e-05
-4.86555e-05
7.83679e-05
-5.14975e-05
8.56393e-05
-5.36724e-05
9.29595e-05
-5.51401e-05
0.000100218
-5.59138e-05
0.000107327
-5.60432e-05
0.000114222
-5.55996e-05
0.000120854
-5.46641e-05
0.000127192
-5.33197e-05
0.000133214
-5.16457e-05
0.000138909
-4.97148e-05
0.000144272
-4.75916e-05
0.000149305
-4.53321e-05
0.000154013
-4.29838e-05
0.000158402
-4.05863e-05
0.000162483
-3.81723e-05
0.000166267
-3.5768e-05
0.000169765
-3.33946e-05
0.00017299
-3.10683e-05
0.000175954
-2.88016e-05
0.00017867
-2.6604e-05
0.00018115
-2.4482e-05
0.000183406
-2.24402e-05
0.00018545
-2.04813e-05
0.000187292
-1.86067e-05
0.000188944
-1.68166e-05
0.000190415
-1.51105e-05
0.000191716
-1.34871e-05
0.000192856
-1.19444e-05
0.000193843
-1.04805e-05
0.000194687
-9.09262e-06
0.000195395
-7.77827e-06
0.000195974
-6.53458e-06
0.000196432
-5.35868e-06
0.000196775
-4.24762e-06
0.000197011
-3.19848e-06
0.000197145
-2.20834e-06
0.000197184
-1.27434e-06
0.000197132
-3.93643e-07
0.000196995
4.3683e-07
0.000196779
1.22023e-06
0.000196489
1.95965e-06
0.000196128
2.65798e-06
0.000195702
3.31789e-06
0.000195216
3.94189e-06
0.000194673
4.53233e-06
0.000194078
5.0914e-06
0.000193436
5.62111e-06
0.000192751
6.12329e-06
0.000192028
6.59959e-06
0.000191271
7.05148e-06
0.000190485
7.48022e-06
0.000189675
7.88687e-06
0.000188845
8.27227e-06
0.000188
8.63707e-06
0.000187145
8.9817e-06
0.000186285
9.30639e-06
0.000185423
9.61119e-06
0.000184565
9.89602e-06
0.000183713
1.01606e-05
0.000182872
1.04047e-05
0.000182044
1.06279e-05
0.000181231
1.08298e-05
0.000180436
1.10101e-05
0.000179658
1.11687e-05
0.000178899
1.13056e-05
0.000178157
1.14208e-05
0.000177432
1.15148e-05
1.15887e-05
0.000176722
3.03779e-05
-5.701e-06
3.1345e-05
-1.10883e-05
3.27506e-05
-1.55491e-05
3.4568e-05
-1.94337e-05
3.68126e-05
-2.29908e-05
3.95525e-05
-2.6471e-05
4.29068e-05
-3.01364e-05
4.70146e-05
-3.41799e-05
5.19808e-05
-3.86406e-05
5.78281e-05
-4.33782e-05
6.44825e-05
-4.81225e-05
7.17945e-05
-5.2564e-05
7.95767e-05
-5.64359e-05
8.76384e-05
-5.95573e-05
9.58075e-05
-6.18396e-05
0.000103941
-6.32716e-05
0.000111926
-6.38972e-05
0.00011968
-6.37946e-05
0.000127142
-6.30591e-05
0.000134271
-6.17912e-05
0.000141043
-6.00893e-05
0.000147443
-5.80442e-05
0.000153468
-5.57376e-05
0.000159119
-5.32403e-05
0.000164402
-5.0613e-05
0.000169327
-4.79066e-05
0.000173906
-4.51629e-05
0.000178152
-4.2416e-05
0.000182079
-3.9693e-05
0.000185702
-3.70154e-05
0.000189035
-3.43996e-05
0.000192094
-3.1858e-05
0.000194892
-2.93996e-05
0.000197442
-2.70306e-05
0.000199759
-2.4755e-05
0.000201855
-2.2575e-05
0.000203741
-2.04914e-05
0.000205431
-1.8504e-05
0.000206933
-1.66114e-05
0.00020826
-1.48118e-05
0.00020942
-1.31029e-05
0.000210423
-1.14819e-05
0.000211278
-9.94588e-06
0.000211993
-8.49164e-06
0.000212576
-7.11595e-06
0.000213035
-5.8155e-06
0.000213376
-4.587e-06
0.000213606
-3.42715e-06
0.000213731
-2.33273e-06
0.000213759
-1.3006e-06
0.000213694
-3.27667e-07
0.000213543
5.89458e-07
0.00021331
1.45419e-06
0.000213001
2.26981e-06
0.000212621
3.03932e-06
0.000212174
3.76552e-06
0.000211666
4.45101e-06
0.0002111
5.09818e-06
0.000210483
5.70928e-06
0.000209819
6.28633e-06
0.000209111
6.83119e-06
0.000208366
7.34551e-06
0.000207587
7.83075e-06
0.000206779
8.28819e-06
0.000205947
8.71892e-06
0.000205096
9.12386e-06
0.000204229