/*--------------------------------*- C++ -*----------------------------------*\
  =========                 |
  \\      /  F ield         | OpenFOAM: The Open Source CFD Toolbox
   \\    /   O peration     | Website:  https://openfoam.org
    \\  /    A nd           | Version:  7
     \\/     M anipulation  |
\*---------------------------------------------------------------------------*/
FoamFile
{
    version     2.0;
    format      ascii;
    class       volScalarField;
    location    "7.99";
    object      T;
}
// * * * * * * * * * * * * * * * * * * * * * * * * * * * * * * * * * * * * * //

dimensions      [0 0 0 1 0 0 0];

internalField   nonuniform List<scalar> 
12013
(
300.129
300.391
300.659
300.931
301.204
301.478
301.75
302.019
302.283
302.542
302.796
303.042
303.281
303.513
303.737
303.953
304.162
304.363
304.556
304.742
304.922
305.094
305.26
305.42
305.575
305.724
305.868
306.007
306.142
306.273
306.401
306.526
306.649
306.77
306.889
307.008
307.127
307.247
307.369
307.493
307.621
307.754
307.894
308.041
308.198
308.365
308.546
308.743
308.957
309.192
309.45
309.735
310.051
310.4
310.788
311.22
311.699
312.232
312.825
313.484
314.217
315.031
315.935
316.939
318.051
319.285
320.652
322.167
323.845
325.704
327.764
330.048
332.586
335.41
338.56
342.091
346.07
350.596
355.814
361.968
369.52
300.129
300.391
300.659
300.931
301.205
301.479
301.751
302.02
302.284
302.544
302.797
303.044
303.283
303.515
303.739
303.955
304.164
304.365
304.559
304.745
304.924
305.097
305.263
305.423
305.577
305.726
305.87
306.01
306.145
306.276
306.404
306.529
306.652
306.773
306.892
307.011
307.13
307.25
307.371
307.496
307.624
307.757
307.896
308.043
308.2
308.367
308.548
308.744
308.958
309.193
309.451
309.736
310.051
310.4
310.787
311.218
311.697
312.229
312.821
313.479
314.21
315.022
315.924
316.925
318.035
319.265
320.628
322.137
323.808
325.658
327.707
329.977
332.496
335.295
338.411
341.892
345.797
350.204
355.212
360.946
367.518
300.129
300.391
300.66
300.932
301.206
301.48
301.753
302.022
302.287
302.547
302.8
303.047
303.287
303.519
303.743
303.96
304.169
304.37
304.564
304.75
304.929
305.102
305.269
305.429
305.583
305.732
305.876
306.016
306.151
306.282
306.41
306.535
306.658
306.778
306.898
307.017
307.136
307.255
307.377
307.501
307.629
307.762
307.901
308.048
308.204
308.371
308.552
308.748
308.961
309.195
309.453
309.737
310.051
310.399
310.785
311.214
311.691
312.222
312.811
313.467
314.195
315.003
315.901
316.896
317.999
319.221
320.574
322.07
323.726
325.557
327.582
329.822
332.301
335.046
338.09
341.47
345.23
349.416
354.077
359.24
364.868
300.129
300.392
300.661
300.934
301.209
301.483
301.756
302.026
302.291
302.551
302.806
303.053
303.293
303.526
303.75
303.967
304.177
304.378
304.572
304.759
304.938
305.111
305.278
305.438
305.593
305.742
305.886
306.026
306.161
306.292
306.42
306.545
306.668
306.788
306.908
307.027
307.145
307.265
307.386
307.51
307.638
307.77
307.909
308.056
308.211
308.378
308.558
308.753
308.966
309.199
309.456
309.738
310.051
310.397
310.782
311.209
311.683
312.21
312.796
313.447
314.169
314.972
315.861
316.847
317.94
319.148
320.485
321.962
323.593
325.394
327.38
329.571
331.988
334.651
337.586
340.819
344.376
348.277
352.532
357.123
361.978
300.13
300.393
300.663
300.936
301.212
301.487
301.761
302.031
302.298
302.559
302.813
303.061
303.302
303.535
303.761
303.978
304.188
304.39
304.584
304.772
304.952
305.125
305.292
305.452
305.607
305.757
305.901
306.04
306.176
306.307
306.435
306.56
306.683
306.803
306.922
307.041
307.159
307.279
307.4
307.524
307.651
307.783
307.921
308.067
308.222
308.388
308.567
308.762
308.973
309.205
309.46
309.741
310.051
310.395
310.777
311.2
311.671
312.193
312.773
313.418
314.133
314.926
315.804
316.777
317.854
319.043
320.357
321.806
323.402
325.16
327.093
329.217
331.549
334.104
336.899
339.949
343.265
346.851
350.695
354.763
358.99
300.13
300.395
300.665
300.94
301.216
301.493
301.768
302.039
302.306
302.568
302.824
303.073
303.315
303.549
303.775
303.994
304.204
304.407
304.602
304.789
304.97
305.144
305.311
305.472
305.627
305.777
305.921
306.061
306.196
306.328
306.456
306.581
306.703
306.823
306.943
307.061
307.179
307.298
307.419
307.542
307.669
307.801
307.938
308.083
308.238
308.403
308.58
308.773
308.983
309.213
309.466
309.744
310.052
310.393
310.77
311.189
311.654
312.17
312.743
313.378
314.083
314.863
315.727
316.683
317.738
318.902
320.185
321.596
323.148
324.85
326.715
328.755
330.982
333.406
336.036
338.88
341.938
345.203
348.654
352.259
355.965
300.131
300.397
300.669
300.945
301.222
301.5
301.776
302.049
302.318
302.582
302.839
303.089
303.332
303.567
303.794
304.014
304.225
304.429
304.625
304.813
304.994
305.168
305.336
305.498
305.653
305.803
305.948
306.088
306.223
306.355
306.483
306.608
306.73
306.851
306.969
307.088
307.205
307.324
307.444
307.567
307.693
307.824
307.961
308.105
308.258
308.422
308.598
308.789
308.997
309.224
309.474
309.75
310.054
310.39
310.762
311.175
311.633
312.141
312.704
313.328
314.019
314.783
315.628
316.561
317.59
318.722
319.966
321.331
322.827
324.461
326.245
328.185
330.29
332.566
335.017
337.642
340.437
343.389
346.478
349.674
352.937
300.132
300.399
300.673
300.95
301.23
301.51
301.788
302.063
302.333
302.599
302.857
303.109
303.354
303.591
303.819
304.04
304.253
304.457
304.654
304.843
305.026
305.201
305.369
305.531
305.687
305.838
305.983
306.123
306.259
306.39
306.518
306.643
306.766
306.886
307.004
307.122
307.24
307.358
307.477
307.599
307.724
307.854
307.99
308.133
308.284
308.446
308.621
308.809
309.015
309.239
309.486
309.757
310.056
310.387
310.753
311.158
311.607
312.105
312.656
313.265
313.94
314.684
315.506
316.411
317.407
318.5
319.698
321.008
322.438
323.994
325.684
327.512
329.483
331.6
333.862
336.265
338.802
341.46
344.218
347.052
349.933
300.133
300.402
300.678
300.958
301.24
301.522
301.802
302.08
302.352
302.62
302.881
303.135
303.381
303.62
303.851
304.073
304.287
304.493
304.691
304.882
305.065
305.241
305.411
305.574
305.73
305.881
306.027
306.167
306.303
306.435
306.563
306.688
306.81
306.93
307.049
307.166
307.283
307.4
307.519
307.64
307.764
307.893
308.027
308.169
308.318
308.478
308.65
308.836
309.038
309.259
309.501
309.767
310.061
310.384
310.742
311.139
311.577
312.062
312.598
313.191
313.845
314.566
315.359
316.232
317.189
318.236
319.381
320.628
321.983
323.452
325.038
326.745
328.574
330.526
332.597
334.783
337.073
339.455
341.913
344.427
346.973
300.134
300.406
300.685
300.967
301.252
301.537
301.82
302.101
302.376
302.646
302.91
303.167
303.416
303.657
303.89
304.114
304.33
304.538
304.738
304.93
305.115
305.292
305.463
305.626
305.784
305.936
306.082
306.223
306.359
306.491
306.619
306.744
306.866
306.986
307.104
307.221
307.337
307.454
307.572
307.692
307.815
307.942
308.074
308.214
308.361
308.519
308.687
308.87
309.068
309.285
309.521
309.781
310.068
310.384
310.732
311.117
311.543
312.013
312.532
313.104
313.734
314.428
315.189
316.024
316.936
317.932
319.017
320.194
321.467
322.841
324.317
325.897
327.581
329.367
331.25
333.225
335.283
337.412
339.598
341.826
344.078
300.136
300.411
300.693
300.979
301.267
301.556
301.843
302.126
302.405
302.679
302.946
303.206
303.458
303.702
303.938
304.165
304.383
304.593
304.795
304.989
305.176
305.355
305.527
305.692
305.85
306.003
306.15
306.291
306.428
306.56
306.689
306.814
306.935
307.055
307.172
307.288
307.404
307.52
307.637
307.755
307.877
308.002
308.133
308.27
308.415
308.569
308.734
308.913
309.107
309.318
309.548
309.801
310.079
310.386
310.723
311.096
311.506
311.959
312.458
313.007
313.61
314.272
314.997
315.789
316.653
317.592
318.611
319.712
320.898
322.172
323.534
324.985
326.523
328.145
329.847
331.623
333.464
335.361
337.302
339.275
341.266
300.137
300.417
300.702
300.993
301.285
301.578
301.869
302.158
302.441
302.719
302.99
303.254
303.51
303.757
303.996
304.226
304.448
304.661
304.865
305.062
305.25
305.431
305.605
305.771
305.931
306.085
306.233
306.375
306.512
306.645
306.774
306.898
307.02
307.139
307.256
307.371
307.486
307.601
307.716
307.833
307.953
308.077
308.205
308.339
308.481
308.632
308.793
308.967
309.155
309.36
309.584
309.829
310.097
310.393
310.718
311.075
311.469
311.902
312.378
312.901
313.474
314.101
314.786
315.532
316.342
317.22
318.169
319.191
320.287
321.458
322.706
324.027
325.422
326.886
328.416
330.004
331.645
333.33
335.05
336.795
338.554
300.14
300.424
300.714
301.01
301.308
301.606
301.902
302.195
302.484
302.767
303.043
303.311
303.572
303.823
304.066
304.301
304.526
304.742
304.95
305.149
305.34
305.524
305.699
305.868
306.029
306.185
306.333
306.477
306.615
306.748
306.876
307.001
307.123
307.241
307.358
307.472
307.586
307.699
307.813
307.929
308.046
308.168
308.293
308.424
308.563
308.709
308.866
309.035
309.217
309.415
309.63
309.866
310.124
310.407
310.717
311.059
311.434
311.845
312.296
312.79
313.331
313.92
314.561
315.258
316.012
316.826
317.702
318.642
319.646
320.715
321.848
323.044
324.3
325.614
326.981
328.396
329.854
331.346
332.867
334.407
335.959
300.143
300.432
300.729
301.03
301.334
301.638
301.941
302.241
302.535
302.824
303.106
303.38
303.646
303.903
304.151
304.39
304.62
304.84
305.052
305.255
305.449
305.635
305.813
305.984
306.148
306.304
306.455
306.599
306.738
306.871
307
307.125
307.246
307.365
307.48
307.594
307.706
307.818
307.931
308.044
308.16
308.278
308.4
308.528
308.662
308.805
308.956
309.119
309.294
309.484
309.69
309.916
310.162
310.431
310.726
311.05
311.404
311.792
312.216
312.68
313.184
313.734
314.329
314.974
315.67
316.419
317.221
318.079
318.991
319.959
320.981
322.056
323.181
324.353
325.569
326.824
328.114
329.432
330.773
332.13
333.498
300.146
300.442
300.746
301.054
301.366
301.677
301.988
302.295
302.597
302.893
303.182
303.463
303.735
303.998
304.252
304.497
304.732
304.957
305.173
305.38
305.579
305.768
305.95
306.123
306.289
306.448
306.6
306.745
306.885
307.019
307.149
307.274
307.395
307.512
307.627
307.74
307.851
307.961
308.072
308.183
308.296
308.411
308.53
308.654
308.784
308.921
309.067
309.223
309.39
309.572
309.768
309.982
310.215
310.47
310.749
311.053
311.385
311.748
312.144
312.574
313.042
313.55
314.099
314.691
315.327
316.01
316.739
317.515
318.338
319.208
320.124
321.083
322.085
323.125
324.202
325.311
326.448
327.609
328.788
329.982
331.185
300.15
300.454
300.766
301.083
301.403
301.724
302.043
302.359
302.67
302.974
303.272
303.561
303.841
304.112
304.373
304.624
304.865
305.096
305.318
305.53
305.733
305.927
306.112
306.289
306.457
306.618
306.772
306.919
307.06
307.195
307.325
307.45
307.571
307.688
307.802
307.914
308.024
308.132
308.24
308.349
308.459
308.571
308.686
308.806
308.93
309.062
309.201
309.35
309.51
309.682
309.868
310.069
310.289
310.528
310.788
311.072
311.382
311.718
312.084
312.482
312.912
313.377
313.878
314.417
314.995
315.612
316.269
316.967
317.704
318.481
319.296
320.147
321.034
321.953
322.902
323.878
324.877
325.896
326.931
327.978
329.034
300.154
300.468
300.79
301.117
301.447
301.779
302.108
302.435
302.756
303.071
303.378
303.677
303.966
304.245
304.515
304.774
305.023
305.261
305.49
305.708
305.916
306.114
306.304
306.484
306.656
306.82
306.976
307.125
307.268
307.404
307.534
307.659
307.78
307.897
308.01
308.12
308.228
308.335
308.44
308.546
308.653
308.761
308.872
308.987
309.107
309.232
309.365
309.506
309.657
309.819
309.993
310.182
310.387
310.61
310.852
311.115
311.4
311.71
312.046
312.409
312.802
313.224
313.679
314.165
314.685
315.239
315.827
316.449
317.105
317.794
318.515
319.267
320.048
320.856
321.688
322.544
323.419
324.311
325.216
326.133
327.057
300.16
300.485
300.818
301.157
301.5
301.843
302.185
302.524
302.857
303.184
303.503
303.813
304.113
304.403
304.683
304.951
305.209
305.456
305.692
305.917
306.131
306.336
306.53
306.715
306.891
307.058
307.217
307.368
307.512
307.649
307.78
307.905
308.026
308.142
308.254
308.363
308.469
308.574
308.677
308.78
308.883
308.987
309.094
309.204
309.317
309.436
309.562
309.694
309.836
309.988
310.151
310.326
310.516
310.722
310.945
311.186
311.448
311.731
312.036
312.366
312.721
313.102
313.51
313.947
314.411
314.905
315.427
315.979
316.558
317.166
317.8
318.46
319.144
319.851
320.579
321.326
322.09
322.868
323.658
324.458
325.265
300.166
300.504
300.851
301.204
301.561
301.919
302.276
302.629
302.977
303.317
303.65
303.973
304.286
304.589
304.88
305.16
305.428
305.684
305.929
306.162
306.384
306.595
306.795
306.985
307.165
307.336
307.498
307.651
307.797
307.936
308.068
308.193
308.314
308.429
308.54
308.647
308.752
308.854
308.954
309.054
309.153
309.253
309.355
309.459
309.567
309.679
309.797
309.921
310.053
310.194
310.345
310.507
310.682
310.871
311.075
311.295
311.532
311.788
312.064
312.361
312.679
313.02
313.385
313.773
314.185
314.622
315.083
315.568
316.078
316.61
317.165
317.742
318.339
318.955
319.589
320.238
320.903
321.579
322.267
322.963
323.666
300.174
300.527
300.89
301.26
301.633
302.008
302.382
302.752
303.116
303.474
303.822
304.161
304.489
304.806
305.111
305.404
305.684
305.951
306.206
306.448
306.679
306.897
307.104
307.3
307.485
307.66
307.825
307.981
308.129
308.269
308.402
308.528
308.648
308.763
308.873
308.978
309.081
309.18
309.277
309.373
309.469
309.565
309.661
309.76
309.861
309.967
310.076
310.192
310.314
310.444
310.583
310.731
310.891
311.063
311.247
311.446
311.66
311.891
312.138
312.403
312.687
312.99
313.312
313.655
314.019
314.403
314.807
315.232
315.677
316.142
316.625
317.126
317.645
318.18
318.729
319.293
319.868
320.455
321.051
321.655
322.266
300.183
300.554
300.936
301.324
301.718
302.112
302.506
302.895
303.28
303.656
304.024
304.381
304.726
305.06
305.38
305.688
305.982
306.262
306.528
306.781
307.021
307.248
307.462
307.664
307.855
308.035
308.204
308.363
308.514
308.655
308.789
308.915
309.035
309.149
309.257
309.361
309.461
309.558
309.652
309.744
309.836
309.927
310.018
310.111
310.206
310.304
310.405
310.512
310.624
310.743
310.869
311.004
311.149
311.304
311.47
311.649
311.84
312.046
312.266
312.501
312.752
313.019
313.303
313.604
313.923
314.258
314.611
314.981
315.368
315.772
316.191
316.625
317.074
317.536
318.011
318.498
318.995
319.502
320.018
320.54
321.069
300.193
300.586
300.989
301.4
301.816
302.234
302.65
303.063
303.47
303.869
304.258
304.636
305.002
305.355
305.694
306.018
306.327
306.622
306.902
307.166
307.417
307.653
307.876
308.085
308.282
308.467
308.64
308.803
308.955
309.099
309.233
309.36
309.479
309.592
309.699
309.801
309.899
309.992
310.083
310.172
310.258
310.344
310.43
310.517
310.605
310.696
310.789
310.887
310.989
311.097
311.211
311.333
311.463
311.602
311.751
311.91
312.08
312.262
312.456
312.663
312.884
313.118
313.367
313.629
313.907
314.199
314.505
314.826
315.161
315.509
315.871
316.246
316.633
317.031
317.44
317.86
318.288
318.725
319.17
319.621
320.077
300.205
300.622
301.051
301.488
301.931
302.375
302.819
303.258
303.692
304.116
304.531
304.933
305.322
305.697
306.056
306.399
306.727
307.037
307.332
307.61
307.872
308.118
308.35
308.567
308.77
308.961
309.139
309.305
309.46
309.605
309.74
309.867
309.986
310.098
310.204
310.303
310.398
310.489
310.576
310.66
310.742
310.823
310.903
310.983
311.065
311.148
311.233
311.322
311.414
311.511
311.614
311.723
311.839
311.962
312.094
312.235
312.385
312.545
312.715
312.897
313.089
313.294
313.51
313.738
313.979
314.231
314.496
314.773
315.062
315.362
315.673
315.996
316.328
316.671
317.022
317.382
317.751
318.126
318.508
318.896
319.29
300.219
300.665
301.123
301.591
302.064
302.54
303.015
303.485
303.949
304.404
304.847
305.277
305.692
306.092
306.474
306.839
307.186
307.514
307.825
308.117
308.392
308.65
308.891
309.117
309.327
309.523
309.705
309.875
310.033
310.179
310.316
310.443
310.561
310.671
310.775
310.872
310.964
311.051
311.134
311.214
311.291
311.367
311.441
311.515
311.589
311.665
311.742
311.822
311.905
311.992
312.083
312.18
312.282
312.391
312.507
312.63
312.762
312.902
313.05
313.208
313.376
313.553
313.74
313.937
314.145
314.363
314.591
314.829
315.077
315.335
315.602
315.878
316.163
316.457
316.758
317.067
317.383
317.705
318.033
318.366
318.704
300.236
300.715
301.207
301.71
302.22
302.731
303.242
303.749
304.247
304.736
305.212
305.674
306.119
306.546
306.954
307.342
307.711
308.059
308.387
308.695
308.984
309.253
309.505
309.739
309.956
310.158
310.345
310.518
310.678
310.826
310.963
311.09
311.207
311.316
311.417
311.512
311.6
311.683
311.762
311.837
311.909
311.979
312.048
312.115
312.183
312.251
312.32
312.391
312.465
312.542
312.622
312.707
312.797
312.892
312.994
313.101
313.215
313.337
313.466
313.602
313.747
313.9
314.062
314.232
314.41
314.597
314.793
314.997
315.21
315.431
315.659
315.896
316.14
316.391
316.649
316.913
317.183
317.459
317.739
318.025
318.315
300.255
300.773
301.305
301.849
302.4
302.954
303.506
304.053
304.593
305.12
305.633
306.13
306.608
307.066
307.503
307.917
308.309
308.678
309.025
309.349
309.652
309.934
310.196
310.439
310.663
310.871
311.062
311.238
311.4
311.549
311.686
311.812
311.928
312.035
312.133
312.225
312.309
312.389
312.463
312.533
312.6
312.664
312.726
312.787
312.848
312.909
312.97
313.033
313.097
313.165
313.235
313.309
313.387
313.47
313.558
313.651
313.75
313.855
313.966
314.084
314.208
314.34
314.478
314.624
314.777
314.938
315.105
315.28
315.462
315.651
315.846
316.049
316.257
316.471
316.692
316.917
317.148
317.384
317.624
317.869
318.117
300.277
300.84
301.419
302.01
302.609
303.211
303.811
304.406
304.991
305.562
306.117
306.653
307.168
307.66
308.127
308.57
308.987
309.378
309.745
310.086
310.404
310.698
310.97
311.221
311.453
311.665
311.86
312.038
312.202
312.351
312.488
312.612
312.726
312.83
312.926
313.013
313.094
313.168
313.238
313.303
313.364
313.422
313.478
313.533
313.587
313.64
313.694
313.749
313.805
313.863
313.924
313.988
314.055
314.127
314.202
314.282
314.367
314.457
314.553
314.654
314.761
314.873
314.992
315.117
315.248
315.386
315.529
315.678
315.834
315.995
316.162
316.335
316.513
316.696
316.884
317.077
317.275
317.476
317.682
317.891
318.103
300.303
300.918
301.551
302.197
302.851
303.509
304.164
304.812
305.449
306.07
306.671
307.251
307.806
308.335
308.835
309.307
309.751
310.165
310.552
310.91
311.242
311.549
311.83
312.089
312.326
312.543
312.741
312.921
313.084
313.233
313.368
313.491
313.602
313.703
313.794
313.877
313.953
314.023
314.087
314.147
314.202
314.255
314.305
314.353
314.4
314.446
314.493
314.54
314.588
314.638
314.69
314.745
314.803
314.864
314.928
314.997
315.069
315.146
315.228
315.315
315.406
315.503
315.604
315.711
315.824
315.941
316.064
316.192
316.325
316.462
316.605
316.753
316.905
317.062
317.223
317.388
317.556
317.729
317.905
318.084
318.265
300.333
301.009
301.704
302.414
303.132
303.853
304.571
305.279
305.974
306.65
307.304
307.931
308.53
309.097
309.633
310.136
310.607
311.045
311.451
311.826
312.171
312.489
312.779
313.044
313.286
313.505
313.704
313.885
314.048
314.195
314.327
314.446
314.554
314.65
314.737
314.816
314.887
314.951
315.01
315.064
315.113
315.16
315.204
315.246
315.286
315.326
315.366
315.406
315.447
315.49
315.534
315.58
315.629
315.681
315.736
315.795
315.857
315.922
315.992
316.066
316.145
316.228
316.315
316.406
316.503
316.603
316.709
316.818
316.932
317.05
317.173
317.299
317.43
317.564
317.702
317.843
317.988
318.136
318.287
318.44
318.596
300.367
301.114
301.881
302.664
303.456
304.25
305.039
305.816
306.576
307.313
308.023
308.702
309.347
309.956
310.528
311.062
311.559
312.02
312.444
312.835
313.192
313.518
313.815
314.085
314.329
314.55
314.749
314.927
315.088
315.232
315.361
315.476
315.578
315.67
315.752
315.825
315.89
315.949
316.002
316.05
316.094
316.135
316.173
316.209
316.244
316.278
316.311
316.345
316.38
316.416
316.453
316.493
316.534
316.579
316.625
316.675
316.729
316.785
316.845
316.909
316.976
317.047
317.123
317.202
317.285
317.371
317.462
317.556
317.655
317.757
317.862
317.971
318.084
318.199
318.318
318.44
318.564
318.691
318.821
318.953
319.087
300.407
301.236
302.087
302.954
303.83
304.707
305.576
306.43
307.262
308.066
308.837
309.57
310.264
310.915
311.523
312.088
312.611
313.092
313.533
313.936
314.302
314.635
314.936
315.208
315.452
315.671
315.868
316.043
316.2
316.339
316.463
316.572
316.669
316.755
316.831
316.899
316.959
317.012
317.059
317.102
317.14
317.176
317.208
317.239
317.269
317.298
317.326
317.355
317.385
317.415
317.447
317.481
317.516
317.554
317.595
317.638
317.684
317.733
317.785
317.841
317.899
317.961
318.027
318.095
318.168
318.243
318.322
318.404
318.49
318.578
318.67
318.764
318.862
318.962
319.065
319.17
319.278
319.388
319.501
319.615
319.731
300.454
301.377
302.324
303.289
304.261
305.232
306.192
307.131
308.042
308.918
309.753
310.543
311.286
311.979
312.622
313.215
313.76
314.259
314.712
315.124
315.496
315.832
316.133
316.403
316.645
316.86
317.052
317.222
317.373
317.506
317.623
317.727
317.818
317.897
317.967
318.029
318.083
318.131
318.173
318.211
318.245
318.276
318.305
318.331
318.357
318.382
318.407
318.432
318.457
318.484
318.512
318.541
318.573
318.606
318.642
318.68
318.721
318.765
318.811
318.86
318.912
318.967
319.025
319.086
319.15
319.217
319.286
319.359
319.434
319.512
319.592
319.676
319.761
319.849
319.939
320.031
320.125
320.221
320.319
320.418
320.519
300.508
301.54
302.599
303.675
304.757
305.834
306.894
307.927
308.924
309.876
310.778
311.625
312.415
313.148
313.822
314.439
315.002
315.512
315.974
316.389
316.762
317.096
317.394
317.659
317.895
318.103
318.288
318.451
318.594
318.72
318.83
318.926
319.011
319.085
319.149
319.205
319.255
319.298
319.336
319.37
319.401
319.429
319.454
319.479
319.502
319.524
319.547
319.57
319.594
319.618
319.644
319.672
319.701
319.732
319.765
319.8
319.838
319.878
319.92
319.965
320.013
320.063
320.116
320.171
320.229
320.289
320.352
320.417
320.484
320.554
320.626
320.7
320.776
320.853
320.933
321.015
321.098
321.182
321.268
321.355
321.444
300.57
301.728
302.915
304.118
305.325
306.521
307.692
308.826
309.913
310.944
311.913
312.815
313.649
314.415
315.114
315.749
316.322
316.838
317.301
317.714
318.082
318.409
318.7
318.956
319.182
319.382
319.557
319.711
319.846
319.963
320.066
320.156
320.235
320.303
320.363
320.415
320.461
320.501
320.537
320.569
320.598
320.625
320.65
320.674
320.697
320.719
320.742
320.765
320.789
320.813
320.839
320.866
320.895
320.926
320.958
320.993
321.029
321.068
321.109
321.152
321.197
321.244
321.293
321.345
321.399
321.454
321.512
321.572
321.634
321.697
321.763
321.83
321.898
321.968
322.04
322.113
322.187
322.262
322.338
322.416
322.494
300.642
301.945
303.278
304.626
305.973
307.3
308.592
309.834
311.014
312.123
313.155
314.106
314.977
315.768
316.483
317.126
317.701
318.213
318.669
319.073
319.431
319.747
320.025
320.269
320.484
320.672
320.837
320.981
321.107
321.217
321.314
321.398
321.472
321.536
321.593
321.643
321.688
321.728
321.763
321.796
321.826
321.855
321.881
321.907
321.932
321.957
321.982
322.008
322.034
322.061
322.09
322.119
322.15
322.182
322.216
322.252
322.289
322.328
322.369
322.411
322.456
322.502
322.55
322.6
322.651
322.704
322.759
322.815
322.872
322.931
322.992
323.053
323.116
323.18
323.245
323.311
323.378
323.446
323.514
323.583
323.653
300.725
302.194
303.694
305.206
306.708
308.18
309.601
310.954
312.226
313.407
314.493
315.483
316.378
317.183
317.902
318.54
319.105
319.605
320.045
320.433
320.774
321.074
321.336
321.566
321.768
321.945
322.099
322.235
322.353
322.458
322.55
322.631
322.702
322.766
322.823
322.874
322.92
322.962
323.001
323.037
323.071
323.104
323.135
323.166
323.196
323.226
323.256
323.287
323.318
323.35
323.382
323.416
323.45
323.486
323.523
323.562
323.601
323.642
323.685
323.729
323.774
323.82
323.868
323.917
323.967
324.019
324.071
324.125
324.18
324.236
324.292
324.35
324.408
324.467
324.526
324.587
324.648
324.709
324.77
324.833
324.895
300.819
302.478
304.168
305.863
307.538
309.164
310.718
312.18
313.537
314.782
315.905
316.912
317.811
318.61
319.315
319.937
320.484
320.963
321.384
321.751
322.073
322.354
322.601
322.816
323.006
323.172
323.318
323.446
323.56
323.661
323.751
323.832
323.904
323.97
324.03
324.085
324.136
324.184
324.228
324.271
324.312
324.351
324.39
324.428
324.465
324.502
324.54
324.577
324.615
324.653
324.691
324.73
324.77
324.811
324.852
324.895
324.938
324.982
325.027
325.072
325.119
325.167
325.215
325.264
325.314
325.365
325.416
325.468
325.52
325.573
325.627
325.681
325.735
325.789
325.844
325.9
325.955
326.01
326.066
326.122
326.178
300.926
302.801
304.705
306.604
308.465
310.253
311.942
313.495
314.907
316.178
317.314
318.321
319.21
319.991
320.675
321.272
321.793
322.247
322.642
322.987
323.288
323.551
323.781
323.983
324.162
324.319
324.459
324.583
324.695
324.795
324.887
324.97
325.046
325.117
325.183
325.244
325.303
325.358
325.411
325.462
325.512
325.56
325.607
325.654
325.7
325.746
325.791
325.836
325.881
325.926
325.972
326.017
326.063
326.108
326.155
326.201
326.248
326.295
326.343
326.391
326.439
326.488
326.537
326.586
326.635
326.685
326.735
326.785
326.835
326.886
326.936
326.987
327.037
327.088
327.138
327.189
327.239
327.289
327.339
327.388
327.438
301.046
303.164
305.307
307.43
309.491
311.419
313.193
314.803
316.247
317.53
318.66
319.651
320.516
321.268
321.92
322.485
322.975
323.399
323.768
324.088
324.368
324.613
324.828
325.019
325.188
325.339
325.475
325.597
325.709
325.812
325.906
325.994
326.076
326.153
326.227
326.296
326.363
326.428
326.49
326.55
326.609
326.667
326.723
326.778
326.833
326.887
326.94
326.993
327.045
327.097
327.149
327.2
327.251
327.301
327.351
327.402
327.452
327.501
327.551
327.601
327.65
327.7
327.749
327.798
327.847
327.895
327.943
327.992
328.039
328.087
328.134
328.181
328.228
328.274
328.32
328.366
328.411
328.456
328.5
328.544
328.588
301.176
303.559
305.964
308.308
310.511
312.54
314.377
316.018
317.469
318.741
319.848
320.807
321.635
322.348
322.962
323.491
323.946
324.34
324.682
324.979
325.239
325.468
325.67
325.85
326.012
326.159
326.292
326.414
326.527
326.632
326.731
326.823
326.911
326.995
327.075
327.152
327.227
327.299
327.369
327.437
327.504
327.569
327.633
327.696
327.757
327.818
327.877
327.936
327.994
328.051
328.107
328.163
328.217
328.271
328.325
328.378
328.43
328.481
328.532
328.583
328.633
328.682
328.731
328.779
328.827
328.874
328.921
328.967
329.012
329.057
329.102
329.145
329.188
329.231
329.273
329.314
329.355
329.395
329.435
329.474
329.512
301.295
303.932
306.56
309.05
311.35
313.435
315.296
316.937
318.37
319.612
320.683
321.604
322.393
323.068
323.647
324.143
324.57
324.938
325.258
325.537
325.781
325.998
326.191
326.364
326.52
326.663
326.794
326.916
327.029
327.136
327.236
327.332
327.423
327.511
327.595
327.676
327.755
327.832
327.906
327.979
328.05
328.119
328.187
328.254
328.32
328.384
328.447
328.509
328.57
328.63
328.688
328.746
328.803
328.859
328.914
328.968
329.022
329.074
329.126
329.177
329.227
329.276
329.325
329.372
329.419
329.466
329.511
329.556
329.599
329.642
329.685
329.726
329.767
329.807
329.847
329.885
329.923
329.96
329.997
330.032
330.068
379.646
387.575
394.256
400.091
405.279
409.928
414.099
417.825
421.121
423.987
426.411
428.372
429.833
430.746
431.045
430.637
429.394
427.119
423.481
417.822
408.494
402.187
397.359
393.41
390.05
387.12
384.517
382.173
380.039
378.079
376.267
374.578
372.997
371.51
370.103
368.768
367.496
366.279
365.113
363.991
362.909
361.862
360.848
359.863
358.904
357.968
357.054
356.159
355.282
354.421
353.575
352.742
351.921
351.111
350.311
349.521
348.739
347.965
347.199
346.44
345.687
344.941
344.201
343.468
342.739
342.017
341.301
340.59
339.885
339.185
338.492
337.804
337.123
336.447
335.778
335.115
334.459
333.81
333.168
332.534
331.906
331.287
330.676
330.073
329.478
328.893
328.316
327.75
327.192
326.645
326.108
325.582
325.066
324.562
324.068
323.586
323.116
322.656
322.209
321.774
321.35
320.938
320.539
320.151
319.775
319.41
319.057
318.716
318.385
318.066
317.758
317.46
317.173
316.896
316.629
316.371
316.122
315.883
315.651
315.428
315.213
315.006
314.806
314.612
314.426
314.245
314.07
313.901
313.737
313.578
313.424
313.274
313.129
312.987
312.849
312.714
312.582
312.453
312.327
312.203
312.081
311.962
311.845
311.729
311.616
311.504
311.393
311.284
311.176
311.069
310.963
310.858
310.755
310.652
310.55
310.449
310.349
310.25
310.152
310.055
309.961
374.912
381.797
388.006
393.595
398.641
403.201
407.316
411.006
414.282
417.138
419.563
421.533
423.013
423.956
424.3
423.96
422.825
420.738
417.481
412.786
406.609
401.27
396.819
393.05
389.792
386.925
384.364
382.05
379.939
377.997
376.197
374.519
372.947
371.466
370.065
368.735
367.467
366.254
365.091
363.971
362.891
361.847
360.834
359.85
358.892
357.958
357.045
356.151
355.275
354.414
353.568
352.736
351.915
351.106
350.306
349.516
348.735
347.961
347.195
346.436
345.684
344.938
344.199
343.465
342.737
342.015
341.298
340.587
339.882
339.183
338.49
337.802
337.12
336.445
335.776
335.113
334.457
333.808
333.166
332.532
331.904
331.285
330.674
330.071
329.476
328.891
328.315
327.748
327.191
326.643
326.107
325.58
325.065
324.56
324.067
323.584
323.114
322.655
322.208
321.772
321.349
320.937
320.537
320.149
319.773
319.409
319.056
318.715
318.384
318.065
317.757
317.46
317.172
316.895
316.628
316.37
316.122
315.882
315.651
315.428
315.213
315.006
314.806
314.612
314.425
314.245
314.07
313.901
313.737
313.579
313.424
313.275
313.129
312.987
312.849
312.714
312.582
312.453
312.327
312.203
312.082
311.962
311.845
311.73
311.616
311.504
311.393
311.284
311.176
311.069
310.963
310.859
310.755
310.652
310.55
310.449
310.349
310.25
310.152
310.055
309.961
370.833
376.72
382.295
387.478
392.257
396.637
400.628
404.235
407.456
410.282
412.698
414.677
416.188
417.186
417.616
417.407
416.474
414.714
412.02
408.347
403.913
399.609
395.727
392.285
389.229
386.494
384.025
381.778
379.716
377.812
376.042
374.388
372.835
371.37
369.982
368.663
367.404
366.199
365.042
363.928
362.853
361.813
360.804
359.823
358.868
357.936
357.025
356.133
355.259
354.4
353.555
352.724
351.904
351.096
350.297
349.508
348.727
347.954
347.189
346.43
345.678
344.933
344.193
343.46
342.732
342.01
341.293
340.583
339.878
339.179
338.485
337.798
337.116