/*--------------------------------*- C++ -*----------------------------------*\
  =========                 |
  \\      /  F ield         | OpenFOAM: The Open Source CFD Toolbox
   \\    /   O peration     | Website:  https://openfoam.org
    \\  /    A nd           | Version:  7
     \\/     M anipulation  |
\*---------------------------------------------------------------------------*/
FoamFile
{
    version     2.0;
    format      ascii;
    class       volVectorField;
    location    "2.5";
    object      U;
}
// * * * * * * * * * * * * * * * * * * * * * * * * * * * * * * * * * * * * * //

dimensions      [0 1 -1 0 0 0 0];

internalField   nonuniform List<vector> 
12013
(
(0.100294 -8.18135e-05 0)
(0.101495 -0.000151159 0)
(0.103436 -0.000215623 0)
(0.10595 -0.000275626 0)
(0.108991 -0.000332789 0)
(0.112519 -0.000387978 0)
(0.116495 -0.000441633 0)
(0.120887 -0.000493982 0)
(0.125666 -0.000545077 0)
(0.130803 -0.000594864 0)
(0.136271 -0.000643229 0)
(0.142042 -0.00069003 0)
(0.148089 -0.000735128 0)
(0.154382 -0.000778398 0)
(0.160896 -0.000819744 0)
(0.167604 -0.000859099 0)
(0.174479 -0.000896433 0)
(0.181499 -0.000931745 0)
(0.188639 -0.000965063 0)
(0.195879 -0.000996438 0)
(0.203198 -0.00102594 0)
(0.210578 -0.00105366 0)
(0.218002 -0.00107968 0)
(0.225456 -0.00110411 0)
(0.232926 -0.00112704 0)
(0.240399 -0.00114858 0)
(0.247864 -0.00116881 0)
(0.255314 -0.00118784 0)
(0.262738 -0.00120572 0)
(0.270129 -0.00122255 0)
(0.277482 -0.00123838 0)
(0.28479 -0.00125326 0)
(0.292049 -0.00126724 0)
(0.299255 -0.00128035 0)
(0.306403 -0.00129262 0)
(0.313491 -0.00130406 0)
(0.320516 -0.00131466 0)
(0.327476 -0.00132443 0)
(0.334369 -0.00133335 0)
(0.341194 -0.0013414 0)
(0.347948 -0.00134852 0)
(0.354631 -0.00135469 0)
(0.361243 -0.00135983 0)
(0.367782 -0.00136388 0)
(0.374247 -0.00136675 0)
(0.38064 -0.00136835 0)
(0.386958 -0.00136855 0)
(0.393201 -0.00136723 0)
(0.399371 -0.00136424 0)
(0.405466 -0.0013594 0)
(0.411485 -0.00135252 0)
(0.41743 -0.00134336 0)
(0.4233 -0.00133167 0)
(0.429093 -0.00131714 0)
(0.43481 -0.00129944 0)
(0.44045 -0.00127816 0)
(0.446011 -0.00125285 0)
(0.451491 -0.00122297 0)
(0.45689 -0.00118791 0)
(0.462203 -0.00114694 0)
(0.467427 -0.00109919 0)
(0.472558 -0.00104364 0)
(0.477589 -0.000979045 0)
(0.482513 -0.00090391 0)
(0.487318 -0.000816384 0)
(0.491994 -0.00071416 0)
(0.496521 -0.000594318 0)
(0.500879 -0.000453104 0)
(0.505039 -0.000285608 0)
(0.508962 -8.52844e-05 0)
(0.512598 0.0001572 0)
(0.515876 0.000455998 0)
(0.518694 0.000832185 0)
(0.520907 0.00131852 0)
(0.522291 0.00196869 0)
(0.522502 0.00287554 0)
(0.520978 0.00420933 0)
(0.516731 0.00630822 0)
(0.508001 0.00997216 0)
(0.491752 0.0180099 0)
(0.474557 0.0486731 0)
(0.100272 -0.000249793 0)
(0.101468 -0.000463308 0)
(0.103402 -0.000661097 0)
(0.105909 -0.000844994 0)
(0.108944 -0.00102013 0)
(0.112466 -0.00118916 0)
(0.116435 -0.00135342 0)
(0.120821 -0.00151362 0)
(0.125594 -0.00166994 0)
(0.130725 -0.0018222 0)
(0.136186 -0.00197006 0)
(0.14195 -0.00211309 0)
(0.14799 -0.00225088 0)
(0.154276 -0.00238305 0)
(0.160782 -0.0025093 0)
(0.167482 -0.00262944 0)
(0.174349 -0.00274338 0)
(0.18136 -0.00285112 0)
(0.188492 -0.00295275 0)
(0.195722 -0.00304844 0)
(0.203032 -0.0031384 0)
(0.210402 -0.00322289 0)
(0.217815 -0.0033022 0)
(0.225258 -0.00337664 0)
(0.232716 -0.0034465 0)
(0.240177 -0.0035121 0)
(0.247631 -0.00357371 0)
(0.255067 -0.00363162 0)
(0.262478 -0.00368606 0)
(0.269855 -0.00373726 0)
(0.277193 -0.0037854 0)
(0.284486 -0.00383066 0)
(0.291729 -0.00387315 0)
(0.298918 -0.00391299 0)
(0.306049 -0.00395024 0)
(0.313119 -0.00398494 0)
(0.320125 -0.0040171 0)
(0.327066 -0.00404669 0)
(0.333938 -0.00407368 0)
(0.340741 -0.00409798 0)
(0.347473 -0.00411946 0)
(0.354132 -0.00413799 0)
(0.360719 -0.00415338 0)
(0.367231 -0.00416541 0)
(0.373669 -0.00417383 0)
(0.380032 -0.00417833 0)
(0.38632 -0.00417856 0)
(0.392532 -0.00417411 0)
(0.398667 -0.00416453 0)
(0.404727 -0.00414927 0)
(0.410709 -0.00412774 0)
(0.416615 -0.00409923 0)
(0.422443 -0.00406295 0)
(0.428193 -0.00401798 0)
(0.433864 -0.00396328 0)
(0.439455 -0.00389763 0)
(0.444966 -0.00381964 0)
(0.450394 -0.00372769 0)
(0.455738 -0.00361988 0)
(0.460994 -0.003494 0)
(0.466159 -0.00334744 0)
(0.471228 -0.00317706 0)
(0.476196 -0.00297913 0)
(0.481055 -0.0027491 0)
(0.485795 -0.00248137 0)
(0.490405 -0.00216901 0)
(0.494869 -0.00180323 0)
(0.499166 -0.00137278 0)
(0.503271 -0.00086296 0)
(0.507149 -0.000254229 0)
(0.510756 0.000480654 0)
(0.51403 0.00138143 0)
(0.516891 0.00250654 0)
(0.519224 0.00394482 0)
(0.520872 0.0058369 0)
(0.521612 0.00841483 0)
(0.521135 0.0120772 0)
(0.519008 0.0175373 0)
(0.514678 0.026143 0)
(0.508067 0.0404852 0)
(0.506596 0.0651109 0)
(0.10025 -0.000424756 0)
(0.101433 -0.000794898 0)
(0.103351 -0.00113557 0)
(0.105843 -0.00145218 0)
(0.108865 -0.00175365 0)
(0.112374 -0.00204452 0)
(0.11633 -0.00232715 0)
(0.120703 -0.00260276 0)
(0.125463 -0.00287165 0)
(0.130581 -0.00313354 0)
(0.136029 -0.00338784 0)
(0.141779 -0.0036338 0)
(0.147804 -0.00387072 0)
(0.154075 -0.00409794 0)
(0.160566 -0.00431497 0)
(0.167249 -0.00452147 0)
(0.1741 -0.00471728 0)
(0.181094 -0.00490242 0)
(0.188207 -0.00507703 0)
(0.195419 -0.0052414 0)
(0.202708 -0.00539589 0)
(0.210058 -0.00554097 0)
(0.21745 -0.00567712 0)
(0.224871 -0.00580487 0)
(0.232306 -0.00592473 0)
(0.239743 -0.00603724 0)
(0.247172 -0.00614288 0)
(0.254582 -0.00624211 0)
(0.261966 -0.00633535 0)
(0.269316 -0.00642299 0)
(0.276626 -0.00650535 0)
(0.283889 -0.0065827 0)
(0.291101 -0.00665527 0)
(0.298258 -0.00672323 0)
(0.305355 -0.00678668 0)
(0.312391 -0.0068457 0)
(0.319361 -0.0069003 0)
(0.326263 -0.00695043 0)
(0.333096 -0.00699601 0)
(0.339858 -0.00703688 0)
(0.346547 -0.00707283 0)
(0.353162 -0.00710362 0)
(0.359702 -0.00712893 0)
(0.366166 -0.00714836 0)
(0.372553 -0.00716147 0)
(0.378862 -0.00716773 0)
(0.385094 -0.00716652 0)
(0.391247 -0.00715716 0)
(0.397321 -0.00713883 0)
(0.403316 -0.00711061 0)
(0.409231 -0.00707146 0)
(0.415066 -0.00702018 0)
(0.42082 -0.00695539 0)
(0.426493 -0.00687553 0)
(0.432083 -0.00677881 0)
(0.43759 -0.00666316 0)
(0.443013 -0.00652619 0)
(0.448349 -0.00636517 0)
(0.453598 -0.00617688 0)
(0.458755 -0.00595758 0)
(0.463818 -0.00570286 0)
(0.468783 -0.00540748 0)
(0.473643 -0.00506521 0)
(0.478394 -0.00466847 0)
(0.483025 -0.00420805 0)
(0.487527 -0.00367255 0)
(0.491887 -0.00304767 0)
(0.496087 -0.00231524 0)
(0.500107 -0.00145178 0)
(0.503921 -0.000426329 0)
(0.507492 0.000802857 0)
(0.51078 0.0022944 0)
(0.513733 0.00413173 0)
(0.516288 0.00643599 0)
(0.518373 0.00938728 0)
(0.519919 0.0132594 0)
(0.520886 0.0184749 0)
(0.521343 0.0256916 0)
(0.521637 0.0359366 0)
(0.522853 0.0507078 0)
(0.528713 0.071124 0)
(0.100228 -0.00060532 0)
(0.101392 -0.00114523 0)
(0.103286 -0.0016388 0)
(0.105758 -0.00209775 0)
(0.108759 -0.00253455 0)
(0.112248 -0.00295586 0)
(0.116185 -0.00336517 0)
(0.120538 -0.00376425 0)
(0.125278 -0.00415354 0)
(0.130376 -0.00453263 0)
(0.135803 -0.00490069 0)
(0.141532 -0.00525665 0)
(0.147535 -0.00559945 0)
(0.153784 -0.00592818 0)
(0.160251 -0.0062421 0)
(0.166911 -0.00654074 0)
(0.173736 -0.00682386 0)
(0.180704 -0.00709148 0)
(0.18779 -0.00734383 0)
(0.194973 -0.00758131 0)
(0.202233 -0.00780445 0)
(0.209552 -0.00801392 0)
(0.216913 -0.00821042 0)
(0.224301 -0.00839471 0)
(0.231702 -0.00856755 0)
(0.239104 -0.00872968 0)
(0.246496 -0.00888182 0)
(0.253869 -0.00902464 0)
(0.261213 -0.00915873 0)
(0.268523 -0.00928463 0)
(0.27579 -0.00940283 0)
(0.28301 -0.0095137 0)
(0.290177 -0.00961756 0)
(0.297288 -0.00971466 0)
(0.304337 -0.00980515 0)
(0.311322 -0.00988911 0)
(0.318241 -0.00996656 0)
(0.325089 -0.0100374 0)
(0.331867 -0.0101015 0)
(0.33857 -0.0101587 0)
(0.345199 -0.0102086 0)
(0.351751 -0.0102509 0)
(0.358226 -0.0102851 0)
(0.364622 -0.0103106 0)
(0.370938 -0.0103267 0)
(0.377174 -0.0103327 0)
(0.383329 -0.0103277 0)
(0.389402 -0.0103107 0)
(0.395392 -0.0102805 0)
(0.4013 -0.0102357 0)
(0.407125 -0.0101749 0)
(0.412865 -0.0100963 0)
(0.418521 -0.009998 0)
(0.424091 -0.00987767 0)
(0.429575 -0.00973277 0)
(0.434971 -0.00956036 0)
(0.440279 -0.00935707 0)
(0.445497 -0.00911899 0)
(0.450623 -0.00884161 0)
(0.455654 -0.00851968 0)
(0.460589 -0.00814703 0)
(0.465422 -0.00771642 0)
(0.47015 -0.00721921 0)
(0.474768 -0.00664508 0)
(0.479268 -0.00598151 0)
(0.483644 -0.0052132 0)
(0.487885 -0.0043212 0)
(0.491979 -0.00328173 0)
(0.495913 -0.00206459 0)
(0.49967 -0.000630822 0)
(0.50323 0.00106999 0)
(0.506575 0.00310536 0)
(0.509686 0.00556712 0)
(0.512552 0.00858038 0)
(0.515179 0.0123164 0)
(0.517612 0.0170091 0)
(0.519973 0.0229723 0)
(0.522533 0.0306084 0)
(0.525818 0.0403834 0)
(0.530753 0.0526738 0)
(0.538922 0.0671368 0)
(0.100206 -0.0007917 0)
(0.101349 -0.00151393 0)
(0.103214 -0.00217085 0)
(0.105657 -0.00278232 0)
(0.108632 -0.00336405 0)
(0.112094 -0.00392496 0)
(0.116004 -0.00446975 0)
(0.120332 -0.0050008 0)
(0.125045 -0.00551872 0)
(0.130116 -0.00602299 0)
(0.135516 -0.00651248 0)
(0.141217 -0.00698579 0)
(0.147191 -0.00744151 0)
(0.15341 -0.00787841 0)
(0.159846 -0.00829554 0)
(0.166473 -0.00869225 0)
(0.173265 -0.00906825 0)
(0.180198 -0.00942355 0)
(0.187248 -0.00975846 0)
(0.194394 -0.0100735 0)
(0.201615 -0.0103694 0)
(0.208894 -0.0106471 0)
(0.216213 -0.0109074 0)
(0.223558 -0.0111514 0)
(0.230914 -0.0113801 0)
(0.23827 -0.0115945 0)
(0.245615 -0.0117955 0)
(0.252938 -0.011984 0)
(0.260232 -0.0121608 0)
(0.267489 -0.0123266 0)
(0.274703 -0.0124821 0)
(0.281867 -0.0126277 0)
(0.288976 -0.0127638 0)
(0.296027 -0.0128908 0)
(0.303015 -0.0130088 0)
(0.309936 -0.013118 0)
(0.316789 -0.0132184 0)
(0.32357 -0.0133098 0)
(0.330276 -0.0133921 0)
(0.336907 -0.0134648 0)
(0.343461 -0.0135277 0)
(0.349935 -0.0135802 0)
(0.356328 -0.0136216 0)
(0.36264 -0.0136512 0)
(0.368869 -0.0136681 0)
(0.375014 -0.0136712 0)
(0.381075 -0.0136594 0)
(0.387051 -0.0136313 0)
(0.39294 -0.0135853 0)
(0.398743 -0.0135196 0)
(0.404459 -0.0134323 0)
(0.410086 -0.0133211 0)
(0.415624 -0.0131833 0)
(0.421073 -0.0130161 0)
(0.426432 -0.0128161 0)
(0.431699 -0.0125795 0)
(0.436874 -0.0123019 0)
(0.441955 -0.0119782 0)
(0.446941 -0.0116028 0)
(0.45183 -0.011169 0)
(0.456619 -0.0106689 0)
(0.461307 -0.0100935 0)
(0.465889 -0.00943216 0)
(0.470363 -0.00867214 0)
(0.474725 -0.00779831 0)
(0.47897 -0.00679237 0)
(0.483092 -0.0056321 0)
(0.487086 -0.00429016 0)
(0.490946 -0.00273262 0)
(0.494668 -0.000917126 0)
(0.498248 0.0012085 0)
(0.501686 0.00371014 0)
(0.504997 0.0066725 0)
(0.508208 0.0102024 0)
(0.511373 0.0144323 0)
(0.514595 0.0195208 0)
(0.518045 0.0256459 0)
(0.521997 0.0329808 0)
(0.526863 0.0416347 0)
(0.533199 0.0515259 0)
(0.541654 0.0621341 0)
(0.100184 -0.000984171 0)
(0.101306 -0.00190077 0)
(0.103137 -0.00273189 0)
(0.105547 -0.00350651 0)
(0.108488 -0.00424336 0)
(0.111917 -0.00495357 0)
(0.115796 -0.00564321 0)
(0.120091 -0.00631528 0)
(0.124771 -0.00697057 0)
(0.129809 -0.00760844 0)
(0.135175 -0.00822745 0)
(0.140842 -0.00882585 0)
(0.14678 -0.00940185 0)
(0.152962 -0.00995392 0)
(0.15936 -0.0104808 0)
(0.165947 -0.0109818 0)
(0.172698 -0.0114564 0)
(0.179588 -0.0119048 0)
(0.186594 -0.0123272 0)
(0.193694 -0.0127244 0)
(0.200867 -0.0130972 0)
(0.208097 -0.0134469 0)
(0.215365 -0.0137745 0)
(0.222657 -0.0140814 0)
(0.229959 -0.0143688 0)
(0.237258 -0.014638 0)
(0.244544 -0.0148901 0)
(0.251808 -0.0151263 0)
(0.25904 -0.0153476 0)
(0.266234 -0.0155548 0)
(0.273381 -0.0157488 0)
(0.280478 -0.0159301 0)
(0.287518 -0.0160992 0)
(0.294497 -0.0162566 0)
(0.301411 -0.0164025 0)
(0.308256 -0.0165369 0)
(0.315031 -0.0166599 0)
(0.321731 -0.0167713 0)
(0.328354 -0.0168709 0)
(0.334899 -0.0169582 0)
(0.341364 -0.0170326 0)
(0.347746 -0.0170935 0)
(0.354045 -0.0171401 0)
(0.360259 -0.0171714 0)
(0.366387 -0.0171861 0)
(0.372428 -0.0171831 0)
(0.37838 -0.0171608 0)
(0.384244 -0.0171174 0)
(0.390018 -0.017051 0)
(0.395702 -0.0169594 0)
(0.401294 -0.0168401 0)
(0.406794 -0.0166902 0)
(0.412202 -0.0165066 0)
(0.417516 -0.0162855 0)
(0.422735 -0.016023 0)
(0.42786 -0.0157142 0)
(0.43289 -0.015354 0)
(0.437822 -0.0149363 0)
(0.442657 -0.0144541 0)
(0.447393 -0.0138996 0)
(0.452029 -0.0132636 0)
(0.456564 -0.0125356 0)
(0.460996 -0.0117033 0)
(0.465325 -0.0107522 0)
(0.469548 -0.00966556 0)
(0.473666 -0.00842333 0)
(0.477677 -0.00700173 0)
(0.481583 -0.00537231 0)
(0.485386 -0.00350088 0)
(0.489092 -0.00134638 0)
(0.492712 0.00113901 0)
(0.496263 0.00401115 0)
(0.499778 0.00733729 0)
(0.503306 0.0111948 0)
(0.506924 0.0156683 0)
(0.510741 0.020843 0)
(0.514915 0.0267909 0)
(0.519654 0.033545 0)
(0.525218 0.041059 0)
(0.53189 0.0491469 0)
(0.539899 0.0574114 0)
(0.100162 -0.00118308 0)
(0.101263 -0.00230576 0)
(0.103058 -0.00332225 0)
(0.105431 -0.00427104 0)
(0.108334 -0.00517372 0)
(0.111725 -0.00604355 0)
(0.115566 -0.00688797 0)
(0.119822 -0.00771067 0)
(0.124465 -0.0085126 0)
(0.129464 -0.00929298 0)
(0.13479 -0.0100501 0)
(0.140415 -0.0107817 0)
(0.146312 -0.0114858 0)
(0.15245 -0.0121603 0)
(0.158803 -0.0128039 0)
(0.165344 -0.0134155 0)
(0.172047 -0.0139947 0)
(0.178886 -0.0145416 0)
(0.18584 -0.0150566 0)
(0.192885 -0.0155405 0)
(0.200003 -0.0159946 0)
(0.207174 -0.0164201 0)
(0.214382 -0.0168185 0)
(0.221612 -0.0171914 0)
(0.22885 -0.0175403 0)
(0.236083 -0.0178668 0)
(0.243302 -0.0181722 0)
(0.250495 -0.018458 0)
(0.257655 -0.0187253 0)
(0.264774 -0.0189752 0)
(0.271846 -0.0192087 0)
(0.278864 -0.0194265 0)
(0.285823 -0.0196292 0)
(0.29272 -0.0198172 0)
(0.299549 -0.0199909 0)
(0.306307 -0.0201502 0)
(0.312991 -0.0202953 0)
(0.319599 -0.0204258 0)
(0.326127 -0.0205414 0)
(0.332575 -0.0206417 0)
(0.338939 -0.0207258 0)
(0.345217 -0.0207929 0)
(0.35141 -0.020842 0)
(0.357514 -0.0208719 0)
(0.363529 -0.0208812 0)
(0.369453 -0.0208682 0)
(0.375286 -0.0208311 0)
(0.381026 -0.0207678 0)
(0.386673 -0.0206759 0)
(0.392225 -0.0205528 0)
(0.397683 -0.0203954 0)
(0.403045 -0.0202004 0)
(0.408311 -0.0199639 0)
(0.413479 -0.0196816 0)
(0.418551 -0.0193488 0)
(0.423524 -0.01896 0)
(0.428399 -0.018509 0)
(0.433176 -0.017989 0)
(0.437854 -0.0173921 0)
(0.442432 -0.0167094 0)
(0.446912 -0.0159307 0)
(0.451293 -0.0150444 0)
(0.455575 -0.0140373 0)
(0.459761 -0.0128941 0)
(0.463851 -0.0115973 0)
(0.46785 -0.0101265 0)
(0.47176 -0.00845845 0)
(0.47559 -0.00656593 0)
(0.479348 -0.00441766 0)
(0.483048 -0.00197781 0)
(0.486715 0.000793353 0)
(0.49037 0.00393685 0)
(0.494057 0.00749817 0)
(0.497833 0.011524 0)
(0.501771 0.0160568 0)
(0.505967 0.0211271 0)
(0.510538 0.0267412 0)
(0.515619 0.0328652 0)
(0.521351 0.0394047 0)
(0.527856 0.0461847 0)
(0.53518 0.0529413 0)
(0.10014 -0.00138891 0)
(0.101222 -0.00272916 0)
(0.10298 -0.00394251 0)
(0.105312 -0.00507682 0)
(0.108174 -0.00615654 0)
(0.111523 -0.00719685 0)
(0.115321 -0.00820658 0)
(0.119535 -0.00919007 0)
(0.124134 -0.0101484 0)
(0.129088 -0.0110808 0)
(0.134369 -0.011985 0)
(0.139948 -0.0128585 0)
(0.145797 -0.0136986 0)
(0.151886 -0.0145033 0)
(0.158188 -0.0152707 0)
(0.164675 -0.0159996 0)
(0.171322 -0.0166895 0)
(0.178105 -0.0173406 0)
(0.184999 -0.0179533 0)
(0.191982 -0.0185288 0)
(0.199036 -0.0190683 0)
(0.206141 -0.0195735 0)
(0.21328 -0.0200462 0)
(0.220439 -0.0204881 0)
(0.227603 -0.0209013 0)
(0.234761 -0.0212873 0)
(0.241902 -0.0216481 0)
(0.249015 -0.0219851 0)
(0.256094 -0.0222999 0)
(0.263128 -0.0225937 0)
(0.270113 -0.0228675 0)
(0.277043 -0.0231223 0)
(0.283911 -0.0233588 0)
(0.290714 -0.0235774 0)
(0.297447 -0.0237785 0)
(0.304108 -0.0239621 0)
(0.310691 -0.0241283 0)
(0.317196 -0.0242766 0)
(0.323619 -0.0244067 0)
(0.329957 -0.0245179 0)
(0.33621 -0.0246093 0)
(0.342374 -0.02468 0)
(0.348449 -0.0247285 0)
(0.354433 -0.0247536 0)
(0.360324 -0.0247535 0)
(0.366122 -0.0247262 0)
(0.371824 -0.0246696 0)
(0.377431 -0.0245812 0)
(0.382941 -0.0244581 0)
(0.388353 -0.0242974 0)
(0.393667 -0.0240955 0)
(0.398882 -0.0238484 0)
(0.403997 -0.0235519 0)
(0.409013 -0.0232009 0)
(0.413929 -0.0227902 0)
(0.418746 -0.0223136 0)
(0.423462 -0.0217642 0)
(0.428078 -0.0211346 0)
(0.432596 -0.020416 0)
(0.437016 -0.0195991 0)
(0.441339 -0.0186729 0)
(0.445568 -0.0176256 0)
(0.449704 -0.0164434 0)
(0.453752 -0.0151113 0)
(0.457716 -0.0136121 0)
(0.461602 -0.0119266 0)
(0.46542 -0.0100335 0)
(0.46918 -0.00790899 0)
(0.472898 -0.00552714 0)
(0.476592 -0.00285976 0)
(0.48029 0.000123204 0)
(0.484021 0.0034476 0)
(0.487825 0.00713748 0)
(0.491756 0.0112139 0)
(0.495874 0.0156888 0)
(0.50025 0.0205588 0)
(0.504961 0.0257977 0)
(0.510083 0.0313488 0)
(0.515681 0.0371177 0)
(0.521791 0.0429695 0)
(0.528393 0.0487391 0)
(0.100117 -0.00160234 0)
(0.101182 -0.00317153 0)
(0.102904 -0.00459353 0)
(0.105194 -0.00592503 0)
(0.108011 -0.00719343 0)
(0.111315 -0.00841563 0)
(0.115067 -0.00960174 0)
(0.119234 -0.0107568 0)
(0.123785 -0.0118819 0)
(0.128691 -0.0129762 0)
(0.133922 -0.014037 0)
(0.13945 -0.0150613 0)
(0.145245 -0.0160461 0)
(0.151279 -0.0169888 0)
(0.157523 -0.0178874 0)
(0.163951 -0.0187405 0)
(0.170537 -0.0195474 0)
(0.177255 -0.0203084 0)
(0.184082 -0.0210242 0)
(0.190996 -0.0216959 0)
(0.197977 -0.0223251 0)
(0.205007 -0.0229138 0)
(0.212069 -0.0234641 0)
(0.219148 -0.023978 0)
(0.22623 -0.0244579 0)
(0.233304 -0.0249058 0)
(0.240357 -0.0253237 0)
(0.247381 -0.0257136 0)
(0.254367 -0.026077 0)
(0.261308 -0.0264155 0)
(0.268197 -0.0267302 0)
(0.275027 -0.0270223 0)
(0.281794 -0.0272925 0)
(0.288494 -0.0275414 0)
(0.295121 -0.0277692 0)
(0.301673 -0.0279762 0)
(0.308145 -0.0281621 0)
(0.314537 -0.0283266 0)
(0.320843 -0.0284691 0)
(0.327063 -0.0285889 0)
(0.333194 -0.0286849 0)
(0.339235 -0.0287559 0)
(0.345182 -0.0288004 0)
(0.351036 -0.0288167 0)
(0.356794 -0.0288028 0)
(0.362455 -0.0287564 0)
(0.368018 -0.028675 0)
(0.373483 -0.0285559 0)
(0.378847 -0.0283957 0)
(0.384111 -0.028191 0)
(0.389274 -0.0279377 0)
(0.394335 -0.0276316 0)
(0.399295 -0.0272678 0)
(0.404152 -0.0268408 0)
(0.408909 -0.0263448 0)
(0.413563 -0.0257731 0)
(0.418118 -0.0251185 0)
(0.422573 -0.0243729 0)
(0.42693 -0.0235274 0)
(0.431192 -0.0225722 0)
(0.435361 -0.0214964 0)
(0.43944 -0.020288 0)
(0.443435 -0.0189341 0)
(0.44735 -0.0174203 0)
(0.451193 -0.0157308 0)
(0.454974 -0.013849 0)
(0.458703 -0.0117566 0)
(0.462394 -0.00943463 0)
(0.466066 -0.00686355 0)
(0.46974 -0.00402369 0)
(0.47344 -0.000895884 0)
(0.477204 0.00253454 0)
(0.481058 0.00627374 0)
(0.485048 0.0103243 0)
(0.489217 0.0146794 0)
(0.493613 0.0193184 0)
(0.49828 0.024204 0)
(0.503254 0.0292787 0)
(0.508558 0.0344647 0)
(0.514189 0.0396666 0)
(0.520104 0.0447838 0)
(0.100093 -0.0018241 0)
(0.101144 -0.00363366 0)
(0.102831 -0.00527644 0)
(0.105078 -0.00681717 0)
(0.10785 -0.00828631 0)
(0.111106 -0.00970231 0)
(0.114809 -0.0110764 0)
(0.118926 -0.0124143 0)
(0.123426 -0.0137171 0)
(0.128279 -0.0149837 0)
(0.133456 -0.016211 0)
(0.138927 -0.0173956 0)
(0.144664 -0.0185339 0)
(0.150638 -0.0196229 0)
(0.156819 -0.0206603 0)
(0.163182 -0.0216445 0)
(0.169699 -0.0225749 0)
(0.176345 -0.0234517 0)
(0.183098 -0.0242757 0)
(0.189935 -0.0250483 0)
(0.196836 -0.0257714 0)
(0.203783 -0.0264473 0)
(0.210759 -0.0270784 0)
(0.217749 -0.0276672 0)
(0.224739 -0.0282162 0)
(0.231718 -0.0287279 0)
(0.238675 -0.0292047 0)
(0.245599 -0.0296486 0)
(0.252484 -0.0300616 0)
(0.25932 -0.0304454 0)
(0.266102 -0.0308014 0)
(0.272823 -0.0311308 0)
(0.279479 -0.0314344 0)
(0.286064 -0.0317128 0)
(0.292575 -0.0319664 0)
(0.299008 -0.0321953 0)
(0.30536 -0.0323993 0)
(0.311628 -0.0325779 0)
(0.317808 -0.0327305 0)
(0.3239 -0.0328561 0)
(0.3299 -0.0329535 0)
(0.335806 -0.0330212 0)
(0.341617 -0.0330577 0)
(0.347332 -0.0330608 0)
(0.352948 -0.0330282 0)
(0.358464 -0.0329576 0)
(0.36388 -0.0328459 0)
(0.369195 -0.03269 0)
(0.374407 -0.0324864 0)
(0.379516 -0.032231 0)
(0.384521 -0.0319196 0)
(0.389423 -0.0315475 0)
(0.394222 -0.0311093 0)
(0.398917 -0.0305992 0)
(0.40351 -0.0300111 0)
(0.408002 -0.029338 0)
(0.412394 -0.0285723 0)
(0.416687 -0.0277058 0)
(0.420885 -0.0267297 0)
(0.424991 -0.0256343 0)
(0.429009 -0.024409 0)
(0.432943 -0.0230428 0)
(0.436799 -0.0215235 0)
(0.440586 -0.0198384 0)
(0.444312 -0.0179742 0)
(0.447988 -0.0159171 0)
(0.451627 -0.013653 0)
(0.455244 -0.0111681 0)
(0.458858 -0.00844947 0)
(0.462489 -0.00548539 0)
(0.466161 -0.00226653 0)
(0.469906 0.00121424 0)
(0.473742 0.00495128 0)
(0.477702 0.00893482 0)
(0.481817 0.0131482 0)
(0.486114 0.017565 0)
(0.490614 0.0221476 0)
(0.49533 0.026847 0)
(0.500263 0.0316042 0)
(0.505395 0.0363543 0)
(0.510682 0.0410366 0)
(0.100068 -0.00205503 0)
(0.101107 -0.00411657 0)
(0.102762 -0.00599265 0)
(0.104966 -0.00775502 0)
(0.107691 -0.00943742 0)
(0.110898 -0.0110596 0)
(0.114551 -0.0126339 0)
(0.118615 -0.0141663 0)
(0.12306 -0.0156583 0)
(0.127857 -0.0171081 0)
(0.132976 -0.0185123 0)
(0.138387 -0.0198669 0)
(0.144061 -0.0211678 0)
(0.149969 -0.0224116 0)
(0.156082 -0.0235956 0)
(0.162372 -0.0247181 0)
(0.168814 -0.0257784 0)
(0.175382 -0.0267767 0)
(0.182052 -0.0277141 0)
(0.188804 -0.0285923 0)
(0.195616 -0.0294133 0)
(0.202471 -0.03018 0)
(0.209351 -0.0308949 0)
(0.216243 -0.0315611 0)
(0.223132 -0.0321814 0)
(0.230007 -0.0327587 0)
(0.236856 -0.0332957 0)
(0.243671 -0.0337947 0)
(0.250443 -0.034258 0)
(0.257164 -0.0346874 0)
(0.263828 -0.0350846 0)
(0.27043 -0.0354508 0)
(0.276963 -0.0357871 0)
(0.283424 -0.0360941 0)
(0.289809 -0.0363721 0)
(0.296113 -0.0366212 0)
(0.302333 -0.0368412 0)
(0.308467 -0.0370315 0)
(0.314512 -0.0371913 0)
(0.320465 -0.0373195 0)
(0.326324 -0.0374147 0)
(0.332087 -0.0374753 0)
(0.337753 -0.0374993 0)
(0.343319 -0.0374844 0)
(0.348785 -0.0374282 0)
(0.354149 -0.0373277 0)
(0.359411 -0.0371799 0)
(0.364568 -0.0369811 0)
(0.369621 -0.0367275 0)
(0.37457 -0.0364149 0)
(0.379413 -0.0360386 0)
(0.384152 -0.0355936 0)
(0.388786 -0.0350742 0)
(0.393317 -0.0344747 0)
(0.397745 -0.0337884 0)
(0.402073 -0.0330083 0)
(0.406302 -0.032127 0)
(0.410435 -0.0311365 0)
(0.414476 -0.030028 0)
(0.418428 -0.0287925 0)
(0.422297 -0.0274205 0)
(0.426089 -0.0259017 0)
(0.429811 -0.0242259 0)
(0.433472 -0.0223824 0)
(0.437081 -0.0203606 0)
(0.44065 -0.0181501 0)
(0.444193 -0.0157411 0)
(0.447725 -0.0131249 0)
(0.451262 -0.0102943 0)
(0.454823 -0.00724444 0)
(0.458427 -0.0039734 0)
(0.462097 -0.000480851 0)
(0.465857 0.00322567 0)
(0.469717 0.00712701 0)
(0.473699 0.0112028 0)
(0.477815 0.0154267 0)
(0.482074 0.0197659 0)
(0.486476 0.0241817 0)
(0.491011 0.0286311 0)
(0.495658 0.0330704 0)
(0.500378 0.0374636 0)
(0.100041 -0.002296 0)
(0.101072 -0.00462148 0)
(0.102696 -0.00674381 0)
(0.104858 -0.0087407 0)
(0.107537 -0.0106493 0)
(0.110694 -0.0124906 0)
(0.114294 -0.0142777 0)
(0.118304 -0.0160171 0)
(0.122692 -0.01771 0)
(0.12743 -0.0193544 0)
(0.132487 -0.0209462 0)
(0.137834 -0.0224808 0)
(0.14344 -0.0239537 0)
(0.149276 -0.0253608 0)
(0.155314 -0.0266993 0)
(0.161526 -0.0279672 0)
(0.167885 -0.0291638 0)
(0.174366 -0.0302894 0)
(0.180947 -0.0313452 0)
(0.187604 -0.0323333 0)
(0.194318 -0.0332562 0)
(0.201071 -0.0341168 0)
(0.207846 -0.0349184 0)
(0.214629 -0.0356642 0)
(0.221406 -0.0363577 0)
(0.228165 -0.0370021 0)
(0.234897 -0.0376002 0)
(0.24159 -0.038155 0)
(0.248239 -0.0386688 0)
(0.254834 -0.0391439 0)
(0.261369 -0.0395819 0)
(0.26784 -0.0399843 0)
(0.27424 -0.0403523 0)
(0.280565 -0.0406864 0)
(0.286812 -0.0409871 0)
(0.292976 -0.0412543 0)
(0.299054 -0.0414879 0)
(0.305044 -0.041687 0)
(0.310943 -0.0418509 0)
(0.316748 -0.0419781 0)
(0.322457 -0.0420672 0)
(0.328068 -0.0421163 0)
(0.333579 -0.0421231 0)
(0.33899 -0.0420853 0)
(0.344298 -0.0419999 0)
(0.349502 -0.0418639 0)
(0.354602 -0.0416738 0)
(0.359597 -0.0414259 0)
(0.364485 -0.041116 0)
(0.369268 -0.0407396 0)
(0.373946 -0.0402919 0)
(0.378518 -0.0397675 0)
(0.382985 -0.039161 0)
(0.38735 -0.0384662 0)
(0.391613 -0.0376766 0)
(0.395776 -0.0367854 0)
(0.399843 -0.0357855 0)
(0.403817 -0.034669 0)
(0.407703 -0.0334282 0)
(0.411504 -0.0320548 0)
(0.415227 -0.0305404 0)
(0.41888 -0.0288765 0)
(0.422468 -0.0270545 0)
(0.426003 -0.0250664 0)
(0.429493 -0.0229042 0)
(0.432951 -0.0205611 0)
(0.436388 -0.0180311 0)
(0.439819 -0.0153099 0)
(0.443258 -0.0123951 0)
(0.446721 -0.0092868 0)
(0.450223 -0.00598806 0)
(0.453777 -0.00250424 0)
(0.457411 0.00115924 0)
(0.461116 0.00498047 0)
(0.464908 0.00893743 0)
(0.468793 0.0130062 0)
(0.47277 0.0171599 0)
(0.476833 0.0213694 0)
(0.48097 0.0256039 0)
(0.485162 0.0298339 0)
(0.489374 0.0340384 0)
(0.100013 -0.00254791 0)
(0.101037 -0.00514979 0)
(0.102634 -0.00753179 0)
(0.104755 -0.00977658 0)
(0.107387 -0.0119248 0)
(0.110495 -0.0139985 0)
(0.114042 -0.0160115 0)
(0.117995 -0.0179706 0)
(0.122324 -0.0198768 0)
(0.127 -0.0217274 0)
(0.131991 -0.0235179 0)
(0.137269 -0.0252428 0)
(0.142802 -0.026897 0)
(0.148561 -0.0284762 0)
(0.154517 -0.0299769 0)
(0.160643 -0.0313973 0)
(0.166912 -0.0327364 0)
(0.173298 -0.0339948 0)
(0.179778 -0.0351739 0)
(0.186331 -0.036276 0)
(0.192937 -0.0373041 0)
(0.199577 -0.0382616 0)
(0.206236 -0.0391523 0)
(0.212899 -0.0399797 0)
(0.219552 -0.0407479 0)
(0.226185 -0.0414602 0)
(0.232786 -0.0421203 0)
(0.239347 -0.0427311 0)
(0.245859 -0.0432954 0)
(0.252316 -0.0438156 0)
(0.25871 -0.0442937 0)
(0.265038 -0.0447312 0)
(0.271293 -0.0451294 0)
(0.277471 -0.0454889 0)
(0.283569 -0.0458101 0)
(0.289582 -0.0460931 0)
(0.295507 -0.0463374 0)
(0.301342 -0.0465423 0)
(0.307085 -0.0467067 0)
(0.312731 -0.0468291 0)
(0.318281 -0.0469078 0)
(0.323731 -0.0469407 0)
(0.32908 -0.0469255 0)
(0.334326 -0.0468594 0)
(0.339469 -0.0467393 0)
(0.344506 -0.046562 0)
(0.349439 -0.0463237 0)
(0.354265 -0.0460205 0)
(0.358985 -0.045648 0)
(0.363599 -0.0452017 0)
(0.368107 -0.0446765 0)
(0.37251 -0.0440671 0)
(0.376809 -0.043368 0)
(0.381006 -0.0425731 0)
(0.385104 -0.0416763 0)
(0.389104 -0.0406711 0)
(0.393011 -0.0395508 0)
(0.396828 -0.0383083 0)
(0.40056 -0.0369368 0)
(0.404212 -0.0354291 0)
(0.407791 -0.0337782 0)
(0.411305 -0.0319774 0)
(0.41476 -0.0300203 0)
(0.418166 -0.027901 0)
(0.421533 -0.0256146 0)
(0.424871 -0.023157 0)
(0.428192 -0.0205256 0)
(0.431506 -0.0177196 0)
(0.434827 -0.0147401 0)
(0.438165 -0.0115904 0)
(0.441533 -0.00827661 0)
(0.444939 -0.00480725 0)
(0.448393 -0.00119094 0)
(0.451912 0.00256228 0)
(0.455482 0.0064261 0)
(0.459108 0.010379 0)
(0.462788 0.0143997 0)
(0.466511 0.0184663 0)
(0.470267 0.022557 0)
(0.474038 0.0266518 0)
(0.477798 0.0307386 0)
(0.0999824 -0.0028117 0)
(0.101003 -0.00570309 0)
(0.102575 -0.00835867 0)
(0.104656 -0.0108653 0)
(0.107243 -0.0132669 0)
(0.110301 -0.0155869 0)
(0.113794 -0.0178395 0)
(0.117689 -0.0200314 0)
(0.121957 -0.0221634 0)
(0.126567 -0.0242322 0)
(0.131489 -0.0262324 0)
(0.136692 -0.0281579 0)
(0.142146 -0.030003 0)
(0.147821 -0.0317627 0)
(0.153689 -0.0334334 0)
(0.15972 -0.0350129 0)
(0.165889 -0.0365005 0)
(0.172171 -0.0378968 0)
(0.178541 -0.0392035 0)
(0.184979 -0.0404234 0)
(0.191465 -0.0415598 0)
(0.197981 -0.0426167 0)
(0.204511 -0.0435982 0)
(0.211041 -0.0445088 0)
(0.217558 -0.0453525 0)
(0.22405 -0.0461335 0)
(0.230508 -0.0468556 0)
(0.236923 -0.0475223 0)
(0.243286 -0.0481366 0)
(0.249591 -0.0487011 0)
(0.255833 -0.0492181 0)
(0.262004 -0.0496893 0)
(0.268102 -0.0501159 0)
(0.27412 -0.0504986 0)
(0.280057 -0.050838 0)
(0.285907 -0.0511339 0)
(0.291669 -0.0513858 0)
(0.297338 -0.051593 0)
(0.302914 -0.0517541 0)
(0.308393 -0.0518676 0)
(0.313773 -0.0519315 0)
(0.319053 -0.0519436 0)
(0.324231 -0.0519013 0)
(0.329306 -0.0518016 0)
(0.334276 -0.0516413 0)
(0.339141 -0.0514169 0)
(0.3439 -0.0511246 0)
(0.348554 -0.0507602 0)
(0.353101 -0.0503194 0)
(0.357542 -0.0497975 0)
(0.361878 -0.0491894 0)
(0.366111 -0.04849 0)
(0.370241 -0.0476939 0)
(0.374271 -0.0467953 0)
(0.378204 -0.0457886 0)
(0.382042 -0.0446677 0)
(0.38579 -0.0434266 0)
(0.389452 -0.0420593 0)
(0.393032 -0.0405598 0)
(0.396537 -0.0389225 0)
(0.399973 -0.0371419 0)
(0.403348 -0.0352129 0)
(0.406668 -0.0331311 0)
(0.409943 -0.0308931 0)
(0.41318 -0.028496 0)
(0.41639 -0.0259385 0)
(0.419582 -0.0232205 0)
(0.422765 -0.0203436 0)
(0.425949 -0.0173112 0)
(0.429143 -0.0141286 0)
(0.432354 -0.0108031 0)
(0.435588 -0.00734412 0)
(0.43885 -0.00376202 0)
(0.442148 -6.47536e-05 0)
(0.445481 0.00373146 0)
(0.448837 0.0076043 0)
(0.452217 0.0115361 0)
(0.455611 0.0155103 0)
(0.459009 0.0195112 0)
(0.462397 0.0235251 0)
(0.465754 0.0275455 0)
(0.0999498 -0.00308836 0)
(0.100969 -0.00628309 0)
(0.102519 -0.00922672 0)
(0.104563 -0.0120096 0)
(0.107103 -0.0146791 0)
(0.110112 -0.0172596 0)
(0.11355 -0.0197656 0)
(0.117386 -0.0222037 0)
(0.12159 -0.0245743 0)
(0.126131 -0.0268733 0)
(0.130978 -0.0290945 0)
(0.136102 -0.0312309 0)
(0.141471 -0.0332761 0)
(0.147055 -0.0352246 0)
(0.152824 -0.0370725 0)
(0.158752 -0.0388175 0)
(0.164811 -0.040459 0)
(0.170977 -0.0419977 0)
(0.177225 -0.0434358 0)
(0.183536 -0.0447765 0)
(0.189889 -0.0460237 0)
(0.196267 -0.0471819 0)
(0.202655 -0.0482557 0)
(0.209038 -0.0492502 0)
(0.215404 -0.0501699 0)
(0.221742 -0.0510196 0)
(0.228043 -0.0518035 0)
(0.234297 -0.0525253 0)
(0.240497 -0.0531887 0)
(0.246637 -0.0537963 0)
(0.252711 -0.0543506 0)
(0.258714 -0.0548535 0)
(0.26464 -0.0553063 0)
(0.270487 -0.05571 0)
(0.276249 -0.0560647 0)
(0.281925 -0.0563705 0)
(0.287511 -0.0566267 0)
(0.293004 -0.0568325 0)
(0.298402 -0.0569865 0)
(0.303704 -0.0570868 0)
(0.308906 -0.0571314 0)
(0.314007 -0.0571179 0)
(0.319006 -0.0570434 0)
(0.323902 -0.056905 0)
(0.328694 -0.0566992 0)
(0.333381 -0.0564224 0)
(0.337962 -0.0560707 0)
(0.342438 -0.0556398 0)
(0.346809 -0.0551254 0)
(0.351076 -0.0545229 0)
(0.355239 -0.0538274 0)
(0.3593 -0.053034 0)
(0.363261 -0.0521375 0)
(0.367125 -0.0511328 0)
(0.370894 -0.0500145 0)
(0.374572 -0.0487774 0)
(0.378162 -0.0474165 0)
(0.38167 -0.0459266 0)
(0.385101 -0.044303 0)
(0.38846 -0.0425413 0)
(0.391753 -0.0406376 0)
(0.394988 -0.0385886 0)
(0.398171 -0.0363917 0)
(0.401309 -0.0340452 0)
(0.404412 -0.0315484 0)
(0.407486 -0.0289017 0)
(0.410539 -0.0261071 0)
(0.413579 -0.0231676 0)
(0.416612 -0.020088 0)
(0.419645 -0.0168745 0)
(0.422683 -0.013535 0)
(0.425729 -0.0100786 0)
(0.428787 -0.00651562 0)
(0.431853 -0.00285519 0)
(0.434943 0.000897521 0)
(0.438033 0.00472254 0)
(0.441123 0.00860288 0)
(0.444206 0.0125253 0)
(0.447275 0.0164781 0)
(0.450317 0.0204516 0)
(0.453317 0.0244432 0)
(0.0999148 -0.00337888 0)