/*--------------------------------*- C++ -*----------------------------------*\
  =========                 |
  \\      /  F ield         | OpenFOAM: The Open Source CFD Toolbox
   \\    /   O peration     | Website:  https://openfoam.org
    \\  /    A nd           | Version:  7
     \\/     M anipulation  |
\*---------------------------------------------------------------------------*/
FoamFile
{
    version     2.0;
    format      ascii;
    class       surfaceScalarField;
    location    "2.07";
    object      phi;
}
// * * * * * * * * * * * * * * * * * * * * * * * * * * * * * * * * * * * * * //

dimensions      [1 0 -1 0 0 0 0];

internalField   nonuniform List<scalar> 
23692
(
1.17316e-05
-9.6791e-08
1.19091e-05
-1.77396e-07
1.21604e-05
-2.51177e-07
1.24784e-05
-3.17918e-07
1.28575e-05
-3.78971e-07
1.32926e-05
-4.34928e-07
1.37788e-05
-4.86012e-07
1.43114e-05
-5.3236e-07
1.48857e-05
-5.74068e-07
1.54971e-05
-6.11249e-07
1.61414e-05
-6.4406e-07
1.68142e-05
-6.72709e-07
1.75118e-05
-6.9745e-07
1.82304e-05
-7.18575e-07
1.89669e-05
-7.36399e-07
1.97181e-05
-7.51254e-07
2.04815e-05
-7.63464e-07
2.12546e-05
-7.73348e-07
2.20356e-05
-7.81202e-07
2.28225e-05
-7.873e-07
2.36139e-05
-7.91885e-07
2.44085e-05
-7.95171e-07
2.52052e-05
-7.97342e-07
2.60029e-05
-7.98553e-07
2.68009e-05
-7.98928e-07
2.75983e-05
-7.9857e-07
2.83947e-05
-7.97558e-07
2.91892e-05
-7.95951e-07
2.99815e-05
-7.93791e-07
3.07709e-05
-7.91108e-07
3.15569e-05
-7.87919e-07
3.23392e-05
-7.84232e-07
3.3117e-05
-7.80049e-07
3.389e-05
-7.75364e-07
3.46577e-05
-7.7017e-07
3.54194e-05
-7.64454e-07
3.61748e-05
-7.58203e-07
3.69231e-05
-7.514e-07
3.76639e-05
-7.44029e-07
3.83966e-05
-7.36072e-07
3.91206e-05
-7.27511e-07
3.98351e-05
-7.18327e-07
4.05397e-05
-7.085e-07
4.12337e-05
-6.98009e-07
4.19163e-05
-6.86833e-07
4.25868e-05
-6.74948e-07
4.32446e-05
-6.62329e-07
4.38888e-05
-6.48948e-07
4.45188e-05
-6.34776e-07
4.51335e-05
-6.19778e-07
4.57323e-05
-6.03918e-07
4.63142e-05
-5.87152e-07
4.68782e-05
-5.69433e-07
4.74234e-05
-5.50707e-07
4.79486e-05
-5.30912e-07
4.84528e-05
-5.09976e-07
4.89348e-05
-4.87817e-07
4.93931e-05
-4.6434e-07
4.98265e-05
-4.39435e-07
5.02333e-05
-4.12969e-07
5.06119e-05
-3.84789e-07
5.09603e-05
-3.5471e-07
5.12765e-05
-3.22508e-07
5.1558e-05
-2.87913e-07
5.18022e-05
-2.50589e-07
5.20059e-05
-2.10115e-07
5.21654e-05
-1.65957e-07
5.22764e-05
-1.17431e-07
5.23336e-05
-6.36393e-08
5.23305e-05
-3.40262e-09
5.22591e-05
6.50803e-08
5.21083e-05
1.44429e-07
5.18635e-05
2.38509e-07
5.15041e-05
3.53264e-07
5.09997e-05
4.98279e-07
5.0304e-05
6.89711e-07
4.93421e-05
9.56099e-07
4.79856e-05
1.35074e-06
4.59965e-05
1.98365e-06
4.28654e-05
3.12577e-06
5.88579e-06
3.69745e-05
1.25506e-05
-1.97826e-07
1.27395e-05
-3.66203e-07
1.30076e-05
-5.19171e-07
1.33471e-05
-6.57307e-07
1.3752e-05
-7.83712e-07
1.42168e-05
-8.99551e-07
1.47363e-05
-1.00529e-06
1.53054e-05
-1.10121e-06
1.5919e-05
-1.18752e-06
1.65725e-05
-1.26445e-06
1.72609e-05
-1.33233e-06
1.798e-05
-1.39159e-06
1.87254e-05
-1.44276e-06
1.94934e-05
-1.48644e-06
2.02803e-05
-1.52328e-06
2.1083e-05
-1.55398e-06
2.18986e-05
-1.57919e-06
2.27246e-05
-1.59959e-06
2.35589e-05
-1.61579e-06
2.43996e-05
-1.62835e-06
2.5245e-05
-1.63778e-06
2.60938e-05
-1.64452e-06
2.69446e-05
-1.64896e-06
2.77966e-05
-1.6514e-06
2.86487e-05
-1.65211e-06
2.95003e-05
-1.6513e-06
3.03505e-05
-1.64913e-06
3.11988e-05
-1.64573e-06
3.20446e-05
-1.64119e-06
3.28872e-05
-1.63556e-06
3.37262e-05
-1.62888e-06
3.4561e-05
-1.62116e-06
3.5391e-05
-1.61242e-06
3.62157e-05
-1.60263e-06
3.70347e-05
-1.59178e-06
3.78472e-05
-1.57985e-06
3.86527e-05
-1.56681e-06
3.94507e-05
-1.55262e-06
4.02404e-05
-1.53725e-06
4.10214e-05
-1.52066e-06
4.17929e-05
-1.50281e-06
4.25542e-05
-1.48367e-06
4.33048e-05
-1.46319e-06
4.40437e-05
-1.44134e-06
4.47704e-05
-1.41805e-06
4.54841e-05
-1.3933e-06
4.61839e-05
-1.36702e-06
4.6869e-05
-1.33915e-06
4.75387e-05
-1.30964e-06
4.8192e-05
-1.27842e-06
4.8828e-05
-1.24541e-06
4.94457e-05
-1.21052e-06
5.00441e-05
-1.17366e-06
5.06222e-05
-1.13471e-06
5.11788e-05
-1.09355e-06
5.17127e-05
-1.05003e-06
5.22225e-05
-1.00399e-06
5.2707e-05
-9.55238e-07
5.31647e-05
-9.03544e-07
5.35938e-05
-8.48647e-07
5.39926e-05
-7.90237e-07
5.43591e-05
-7.27944e-07
5.46911e-05
-6.61324e-07
5.49862e-05
-5.89836e-07
5.52416e-05
-5.12815e-07
5.5454e-05
-4.29435e-07
5.56198e-05
-3.3865e-07
5.57346e-05
-2.39122e-07
5.57931e-05
-1.29111e-07
5.57892e-05
-6.31676e-09
5.57148e-05
1.3258e-07
5.55602e-05
2.92255e-07
5.53125e-05
4.79497e-07
5.49548e-05
7.04347e-07
5.44644e-05
9.82138e-07
5.38108e-05
1.33696e-06
5.29531e-05
1.80753e-06
5.18404e-05
2.45736e-06
5.04233e-05
3.39476e-06
4.87376e-05
4.80578e-06
6.91374e-06
4.77042e-05
1.34261e-05
-3.02559e-07
1.36262e-05
-5.66294e-07
1.39111e-05
-8.0395e-07
1.42726e-05
-1.01866e-06
1.47041e-05
-1.21506e-06
1.51998e-05
-1.39499e-06
1.57539e-05
-1.55919e-06
1.6361e-05
-1.70812e-06
1.70158e-05
-1.84209e-06
1.77131e-05
-1.96149e-06
1.84478e-05
-2.06681e-06
1.92151e-05
-2.15873e-06
2.00106e-05
-2.23808e-06
2.083e-05
-2.30578e-06
2.16696e-05
-2.36287e-06
2.2526e-05
-2.4104e-06
2.33961e-05
-2.44942e-06
2.42773e-05
-2.48096e-06
2.51672e-05
-2.50597e-06
2.60637e-05
-2.52533e-06
2.69652e-05
-2.53982e-06
2.78702e-05
-2.55013e-06
2.87773e-05
-2.55685e-06
2.96854e-05
-2.56048e-06
3.05936e-05
-2.56142e-06
3.15011e-05
-2.56e-06
3.2407e-05
-2.55646e-06
3.33107e-05
-2.551e-06
3.42115e-05
-2.54376e-06
3.51088e-05
-2.53483e-06
3.60021e-05
-2.52426e-06
3.68907e-05
-2.51208e-06
3.77741e-05
-2.49828e-06
3.86516e-05
-2.48287e-06
3.95227e-05
-2.46579e-06
4.03868e-05
-2.44703e-06
4.12432e-05
-2.42653e-06
4.20914e-05
-2.40423e-06
4.29305e-05
-2.38009e-06
4.376e-05
-2.35405e-06
4.45792e-05
-2.32604e-06
4.53872e-05
-2.29601e-06
4.61834e-05
-2.26389e-06
4.69671e-05
-2.22961e-06
4.77373e-05
-2.19311e-06
4.84932e-05
-2.15431e-06
4.92341e-05
-2.11312e-06
4.99591e-05
-2.06947e-06
5.06671e-05
-2.02325e-06
5.13573e-05
-1.97437e-06
5.20287e-05
-1.9227e-06
5.26803e-05
-1.86811e-06
5.33109e-05
-1.81046e-06
5.39194e-05
-1.74957e-06
5.45046e-05
-1.68526e-06
5.50653e-05
-1.61731e-06
5.56001e-05
-1.54547e-06
5.61074e-05
-1.46945e-06
5.65859e-05
-1.38892e-06
5.70337e-05
-1.30349e-06
5.7449e-05
-1.2127e-06
5.78299e-05
-1.116e-06
5.8174e-05
-1.01276e-06
5.84791e-05
-9.02176e-07
5.87422e-05
-7.83306e-07
5.89603e-05
-6.54964e-07
5.913e-05
-5.15674e-07
5.9247e-05
-3.63564e-07
5.93067e-05
-1.96227e-07
5.93036e-05
-1.05428e-08
5.92311e-05
1.97767e-07
5.90816e-05
4.3444e-07
5.88464e-05
7.07548e-07
5.85153e-05
1.02833e-06
5.80778e-05
1.41263e-06
5.7525e-05
1.88292e-06
5.6855e-05
2.47077e-06
5.60864e-05
3.21941e-06
5.52907e-05
4.18415e-06
5.46721e-05
5.41819e-06
6.8916e-06
5.46883e-05
1.43623e-05
-4.10813e-07
1.45734e-05
-7.77317e-07
1.48752e-05
-1.10556e-06
1.5259e-05
-1.40239e-06
1.57179e-05
-1.67377e-06
1.62454e-05
-1.92229e-06
1.68355e-05
-2.14902e-06
1.74822e-05
-2.3546e-06
1.81799e-05
-2.53949e-06
1.89228e-05
-2.70421e-06
1.97057e-05
-2.84946e-06
2.05234e-05
-2.97619e-06
2.1371e-05
-3.08553e-06
2.22441e-05
-3.17878e-06
2.31386e-05
-3.25736e-06
2.40509e-05
-3.32273e-06
2.49777e-05
-3.37635e-06
2.59162e-05
-3.41963e-06
2.68637e-05
-3.45389e-06
2.78183e-05
-3.48033e-06
2.8778e-05
-3.50006e-06
2.97412e-05
-3.51401e-06
3.07065e-05
-3.523e-06
3.16727e-05
-3.52771e-06
3.26388e-05
-3.5287e-06
3.36039e-05
-3.52642e-06
3.45671e-05
-3.52122e-06
3.55278e-05
-3.51336e-06
3.64852e-05
-3.50303e-06
3.74386e-05
-3.49035e-06
3.83875e-05
-3.4754e-06
3.93312e-05
-3.45821e-06
4.0269e-05
-3.43878e-06
4.12003e-05
-3.4171e-06
4.21246e-05
-3.39312e-06
4.3041e-05
-3.36678e-06
4.3949e-05
-3.33803e-06
4.48478e-05
-3.30679e-06
4.57368e-05
-3.27298e-06
4.66151e-05
-3.23652e-06
4.7482e-05
-3.19733e-06
4.83368e-05
-3.15533e-06
4.91785e-05
-3.11043e-06
5.00065e-05
-3.06252e-06
5.08197e-05
-3.01153e-06
5.16174e-05
-2.95735e-06
5.23985e-05
-2.89986e-06
5.31622e-05
-2.83894e-06
5.39075e-05
-2.77448e-06
5.46333e-05
-2.70633e-06
5.53386e-05
-2.63433e-06
5.60223e-05
-2.5583e-06
5.66833e-05
-2.47805e-06
5.73203e-05
-2.39335e-06
5.7932e-05
-2.30396e-06
5.85172e-05
-2.20959e-06
5.90745e-05
-2.10992e-06
5.96023e-05
-2.00456e-06
6.0099e-05
-1.89309e-06
6.0563e-05
-1.77501e-06
6.09924e-05
-1.64973e-06
6.13852e-05
-1.51656e-06
6.17394e-05
-1.37469e-06
6.20525e-05
-1.22315e-06
6.23221e-05
-1.06074e-06
6.25453e-05
-8.86055e-07
6.2719e-05
-6.97311e-07
6.28398e-05
-4.92316e-07
6.2904e-05
-2.68302e-07
6.29074e-05
-2.17894e-08
6.28456e-05
2.51681e-07
6.27145e-05
5.57787e-07
6.25102e-05
9.04122e-07
6.22304e-05
1.30046e-06
6.18763e-05
1.75925e-06
6.14559e-05
2.29593e-06
6.09909e-05
2.9286e-06
6.05271e-05
3.6761e-06
6.01519e-05
4.5525e-06
6.00105e-05
5.55293e-06
6.61778e-06
6.02779e-05
1.53638e-05
-5.22569e-07
1.55856e-05
-9.99051e-07
1.59043e-05
-1.42405e-06
1.63109e-05
-1.80885e-06
1.67979e-05
-2.16054e-06
1.73582e-05
-2.48245e-06
1.79855e-05
-2.77604e-06
1.86733e-05
-3.04215e-06
1.94155e-05
-3.28138e-06
2.0206e-05
-3.49444e-06
2.1039e-05
-3.68224e-06
2.1909e-05
-3.84601e-06
2.28109e-05
-3.98722e-06
2.37398e-05
-4.10759e-06
2.46914e-05
-4.20893e-06
2.56618e-05
-4.29316e-06
2.66475e-05
-4.36216e-06
2.76454e-05
-4.41775e-06
2.86528e-05
-4.46166e-06
2.96674e-05
-4.49545e-06
3.06873e-05
-4.52053e-06
3.17107e-05
-4.53813e-06
3.27361e-05
-4.5493e-06
3.37622e-05
-4.55492e-06
3.4788e-05
-4.55572e-06
3.58124e-05
-4.55228e-06
3.68346e-05
-4.54504e-06
3.78538e-05
-4.53435e-06
3.88692e-05
-4.52044e-06
3.98802e-05
-4.50349e-06
4.08859e-05
-4.48357e-06
4.18858e-05
-4.46074e-06
4.28792e-05
-4.435e-06
4.38653e-05
-4.40632e-06
4.48435e-05
-4.37464e-06
4.58131e-05
-4.33989e-06
4.67733e-05
-4.30198e-06
4.77233e-05
-4.26083e-06
4.86624e-05
-4.21632e-06
4.95898e-05
-4.16837e-06
5.05047e-05
-4.11686e-06
5.14062e-05
-4.06167e-06
5.22933e-05
-4.00271e-06
5.31653e-05
-3.93984e-06
5.40211e-05
-3.87294e-06
5.48599e-05
-3.80189e-06
5.56806e-05
-3.72655e-06
5.64823e-05
-3.64676e-06
5.72638e-05
-3.56237e-06
5.80241e-05
-3.4732e-06
5.87621e-05
-3.37906e-06
5.94766e-05
-3.27972e-06
6.01664e-05
-3.17495e-06
6.08302e-05
-3.06448e-06
6.14668e-05
-2.948e-06
6.20748e-05
-2.82517e-06
6.26528e-05
-2.69559e-06
6.31992e-05
-2.55883e-06
6.37125e-05
-2.41437e-06
6.41911e-05
-2.26163e-06
6.46331e-05
-2.09992e-06
6.50368e-05
-1.92847e-06
6.54001e-05
-1.74634e-06
6.5721e-05
-1.55244e-06
6.59973e-05
-1.34549e-06
6.62267e-05
-1.12394e-06
6.64069e-05
-8.85923e-07
6.65352e-05
-6.29183e-07
6.66094e-05
-3.50972e-07
6.66271e-05
-4.79674e-08
6.65867e-05
2.83717e-07
6.64874e-05
6.4874e-07
6.63303e-05
1.05292e-06
6.61196e-05
1.50303e-06
6.58643e-05
2.00655e-06
6.55812e-05
2.57108e-06
6.52991e-05
3.20296e-06
6.50629e-05
3.90468e-06
6.49375e-05
4.67044e-06
6.50044e-05
5.47882e-06
6.28027e-06
6.53349e-05
1.64353e-05
-6.37948e-07
1.66677e-05
-1.23141e-06
1.70033e-05
-1.75956e-06
1.74331e-05
-2.23841e-06
1.79488e-05
-2.67603e-06
1.8543e-05
-3.07643e-06
1.92087e-05
-3.44148e-06
1.99391e-05
-3.77222e-06
2.07274e-05
-4.06943e-06
2.15673e-05
-4.33398e-06
2.24523e-05
-4.56707e-06
2.33768e-05
-4.7702e-06
2.4335e-05
-4.94525e-06
2.53218e-05
-5.09433e-06
2.63327e-05
-5.21973e-06
2.73633e-05
-5.32383e-06
2.841e-05
-5.40897e-06
2.94694e-05
-5.47744e-06
3.05388e-05
-5.53137e-06
3.16156e-05
-5.57271e-06
3.26976e-05
-5.60322e-06
3.37831e-05
-5.62441e-06
3.48704e-05
-5.63761e-06
3.59583e-05
-5.6439e-06
3.70454e-05
-5.64419e-06
3.81308e-05
-5.6392e-06
3.92135e-05
-5.62948e-06
4.02927e-05
-5.61545e-06
4.13675e-05
-5.5974e-06
4.24372e-05
-5.57555e-06
4.35011e-05
-5.55e-06
4.45583e-05
-5.52081e-06
4.56082e-05
-5.48797e-06
4.665e-05
-5.45145e-06
4.76831e-05
-5.41118e-06
4.87065e-05
-5.36706e-06
4.97195e-05
-5.319e-06
5.07212e-05
-5.26686e-06
5.17109e-05
-5.21053e-06
5.26877e-05
-5.14988e-06
5.36506e-05
-5.08478e-06
5.45988e-05
-5.01508e-06
5.55312e-05
-4.94064e-06
5.6447e-05
-4.86134e-06
5.73451e-05
-4.777e-06
5.82246e-05
-4.68748e-06
5.90842e-05
-4.59261e-06
5.99231e-05
-4.49221e-06
6.074e-05
-4.3861e-06
6.15338e-05
-4.27406e-06
6.23034e-05
-4.15586e-06
6.30475e-05
-4.03126e-06
6.37649e-05
-3.89998e-06
6.44544e-05
-3.76171e-06
6.51145e-05
-3.61609e-06
6.5744e-05
-3.46275e-06
6.63414e-05
-3.30125e-06
6.69052e-05
-3.1311e-06
6.74341e-05
-2.95173e-06
6.79263e-05
-2.76251e-06
6.83804e-05
-2.56273e-06
6.87946e-05
-2.35155e-06
6.91674e-05
-2.128e-06
6.94969e-05
-1.891e-06
6.97817e-05
-1.63926e-06
7.00199e-05
-1.37128e-06
7.02102e-05
-1.08533e-06
7.03513e-05
-7.79359e-07
7.04422e-05
-4.51009e-07
7.04828e-05
-9.75708e-08
7.04737e-05
2.83764e-07
7.04175e-05
6.96025e-07
7.03188e-05
1.14268e-06
7.01859e-05
1.62715e-06
7.00316e-05
2.15228e-06
6.98746e-05
2.7195e-06
6.97416e-05
3.32762e-06
6.9667e-05
3.97105e-06
6.9692e-05
4.63742e-06
6.9858e-05
5.30498e-06
5.94006e-06
7.01907e-05
1.75816e-05
-7.57176e-07
1.78248e-05
-1.47446e-06
1.81776e-05
-2.1123e-06
1.86309e-05
-2.69149e-06
1.91761e-05
-3.22093e-06
1.98051e-05
-3.70521e-06
2.05105e-05
-4.14656e-06
2.12848e-05
-4.54625e-06
2.2121e-05
-4.90525e-06
2.30119e-05
-5.22464e-06
2.3951e-05
-5.50585e-06
2.49318e-05
-5.75077e-06
2.59484e-05
-5.96166e-06
2.69953e-05
-6.1411e-06
2.80675e-05
-6.29186e-06
2.91605e-05
-6.41684e-06
3.02702e-05
-6.51888e-06
3.13933e-05
-6.60074e-06
3.25265e-05
-6.66501e-06
3.36674e-05
-6.71406e-06
3.48135e-05
-6.75e-06
3.59629e-05
-6.77468e-06
3.71139e-05
-6.78969e-06
3.82652e-05
-6.79634e-06
3.94153e-05
-6.79573e-06
4.05632e-05
-6.78872e-06
4.17079e-05
-6.77599e-06
4.28484e-05
-6.75803e-06
4.39839e-05
-6.73521e-06
4.51136e-05
-6.70776e-06
4.62367e-05
-6.67582e-06
4.73523e-05
-6.63945e-06
4.84597e-05
-6.59865e-06
4.95581e-05
-6.55336e-06
5.06467e-05
-6.50351e-06
5.17245e-05
-6.44898e-06
5.27909e-05
-6.38964e-06
5.38448e-05
-6.32534e-06
5.48854e-05
-6.25595e-06
5.59117e-05
-6.18129e-06
5.69228e-05
-6.10121e-06
5.79177e-05
-6.01554e-06
5.88953e-05
-5.92413e-06
5.98546e-05
-5.8268e-06
6.07947e-05
-5.72337e-06
6.17142e-05
-5.61367e-06
6.26123e-05
-5.49749e-06
6.34876e-05
-5.37465e-06
6.43392e-05
-5.24492e-06
6.51656e-05
-5.10807e-06
6.59659e-05
-4.96385e-06
6.67387e-05
-4.81198e-06
6.74827e-05
-4.65216e-06
6.81967e-05
-4.48405e-06
6.88794e-05
-4.30728e-06
6.95294e-05
-4.12145e-06
7.01454e-05
-3.9261e-06
7.0726e-05
-3.72071e-06
7.12698e-05
-3.50473e-06
7.17756e-05
-3.27751e-06
7.22418e-05
-3.03835e-06
7.26673e-05
-2.78645e-06
7.30506e-05
-2.52091e-06
7.33907e-05
-2.24071e-06
7.36865e-05
-1.94473e-06
7.39371e-05
-1.63169e-06
7.41422e-05
-1.30016e-06
7.43017e-05
-9.48583e-07
7.44162e-05
-5.75236e-07
7.44872e-05
-1.78324e-07
7.45176e-05
2.43696e-07
7.4512e-05
6.92037e-07
7.44772e-05
1.16788e-06
7.44232e-05
1.67175e-06
7.43631e-05
2.20308e-06
7.43139e-05
2.7595e-06
7.42964e-05
3.33612e-06
7.43339e-05
3.92467e-06
7.445e-05
4.5127e-06
7.46633e-05
5.08319e-06
5.61542e-06
7.49797e-05
1.88082e-05
-8.80567e-07
1.90622e-05
-1.72837e-06
1.94327e-05
-2.48262e-06
1.991e-05
-3.1686e-06
2.04853e-05
-3.79599e-06
2.11502e-05
-4.36977e-06
2.18964e-05
-4.89251e-06
2.27162e-05
-5.36569e-06
2.36018e-05
-5.79047e-06
2.45456e-05
-6.16815e-06
2.55405e-05
-6.50047e-06
2.65797e-05
-6.78966e-06
2.76567e-05
-7.03845e-06
2.87657e-05
-7.2499e-06
2.99012e-05
-7.42734e-06
3.10585e-05
-7.57419e-06
3.22334e-05
-7.69384e-06
3.34219e-05
-7.78957e-06
3.4621e-05
-7.86446e-06
3.58277e-05
-7.92132e-06
3.70396e-05
-7.96264e-06
3.82547e-05
-7.99062e-06
3.9471e-05
-8.00715e-06
4.06872e-05
-8.01378e-06
4.19018e-05
-8.01181e-06
4.31136e-05
-8.00224e-06
4.43215e-05
-7.98589e-06
4.55246e-05
-7.96334e-06
4.6722e-05
-7.93501e-06
4.79127e-05
-7.90118e-06
4.9096e-05
-7.862e-06
5.02709e-05
-7.81756e-06
5.14366e-05
-7.76783e-06
5.25922e-05
-7.71277e-06
5.37369e-05
-7.65225e-06
5.48698e-05
-7.58616e-06
5.59899e-05
-7.51433e-06
5.70963e-05
-7.4366e-06
5.8188e-05
-7.35279e-06
5.92639e-05
-7.2627e-06
6.03232e-05
-7.16617e-06
6.13646e-05
-7.06299e-06
6.23872e-05
-6.95298e-06
6.33898e-05
-6.83593e-06
6.43713e-05
-6.71167e-06
6.53305e-05
-6.57997e-06
6.62664e-05
-6.44063e-06
6.71776e-05
-6.29343e-06
6.80629e-05
-6.13812e-06
6.89213e-05
-5.97448e-06
6.97513e-05
-5.80222e-06
7.05519e-05
-5.62105e-06
7.13217e-05
-5.43067e-06
7.20594e-05
-5.23073e-06
7.27639e-05
-5.02087e-06
7.34338e-05
-4.80068e-06
7.40679e-05
-4.5697e-06
7.46651e-05
-4.32747e-06
7.5224e-05
-4.07344e-06
7.57436e-05
-3.80704e-06
7.62228e-05
-3.52764e-06
7.66608e-05
-3.23453e-06
7.70566e-05
-2.92697e-06
7.74097e-05
-2.60415e-06
7.77198e-05
-2.26521e-06
7.79869e-05
-1.90923e-06
7.82116e-05
-1.53527e-06
7.83949e-05
-1.14238e-06
7.85388e-05
-7.29636e-07
7.86464e-05
-2.9627e-07
7.87215e-05
1.58124e-07
7.87701e-05
6.33127e-07
7.87998e-05
1.12801e-06
7.88201e-05
1.64127e-06
7.88429e-05
2.17029e-06
7.88816e-05
2.71092e-06
7.89508e-05
3.25715e-06
7.9065e-05
3.80088e-06
7.92364e-05
4.33192e-06
7.94721e-05
4.83837e-06
5.30808e-06
7.97704e-05
2.01207e-05
-1.00849e-06
2.03858e-05
-1.99344e-06
2.07744e-05
-2.87098e-06
2.12763e-05
-3.67036e-06
2.18826e-05
-4.40201e-06
2.25843e-05
-5.07113e-06
2.33727e-05
-5.68055e-06
2.42393e-05
-6.23195e-06
2.51759e-05
-6.72667e-06
2.61743e-05
-7.16624e-06
2.72269e-05
-7.55271e-06
2.83263e-05
-7.88873e-06
2.94656e-05
-8.17751e-06
3.06385e-05
-8.42265e-06
3.18393e-05
-8.62805e-06
3.30628e-05
-8.79773e-06
3.43045e-05
-8.93567e-06
3.55603e-05
-9.0457e-06
3.68269e-05
-9.13142e-06
3.81011e-05
-9.1961e-06
3.93804e-05
-9.24268e-06
4.06625e-05
-9.27371e-06
4.19456e-05
-9.29139e-06
4.3228e-05
-9.29754e-06
4.45083e-05
-9.29365e-06
4.57851e-05
-9.28092e-06
4.70574e-05
-9.26026e-06
4.83241e-05
-9.23237e-06
4.95842e-05
-9.19772e-06
5.08368e-05
-9.15664e-06
5.2081e-05
-9.10931e-06
5.33158e-05
-9.0558e-06
5.45404e-05
-8.99611e-06
5.57538e-05
-8.93015e-06
5.6955e-05
-8.85781e-06
5.81432e-05
-8.77892e-06
5.93172e-05
-8.6933e-06
6.04762e-05
-8.60076e-06
6.1619e-05
-8.50109e-06
6.27445e-05
-8.39407e-06
6.38518e-05
-8.2795e-06
6.49395e-05
-8.15716e-06
6.60067e-05
-8.02684e-06
6.70521e-05
-7.88831e-06
6.80745e-05
-7.74137e-06
6.90728e-05
-7.5858e-06
7.00457e-05
-7.42136e-06
7.0992e-05
-7.24783e-06
7.19104e-05
-7.06496e-06
7.27998e-05
-6.87251e-06
7.36589e-05
-6.67019e-06
7.44865e-05
-6.45774e-06
7.52813e-05
-6.23484e-06
7.60422e-05
-6.00117e-06
7.67679e-05
-5.75639e-06
7.74574e-05
-5.50013e-06
7.81096e-05
-5.232e-06
7.87233e-05
-4.95157e-06
7.92978e-05
-4.6584e-06
7.98321e-05
-4.35202e-06
8.03256e-05
-4.03193e-06
8.07779e-05
-3.69763e-06
8.11885e-05
-3.3486e-06
8.15576e-05
-2.98431e-06
8.18855e-05
-2.60427e-06
8.21731e-05
-2.20801e-06
8.24218e-05
-1.79514e-06
8.26336e-05
-1.36541e-06
8.28114e-05
-9.18742e-07
8.29593e-05
-4.55319e-07
8.30818e-05
2.45112e-08
8.31846e-05
5.19194e-07
8.32753e-05
1.02632e-06
8.33623e-05
1.54335e-06
8.3455e-05
2.06677e-06
8.35633e-05
2.59198e-06
8.36967e-05
3.11327e-06
8.38634e-05
3.62385e-06
8.40691e-05
4.11614e-06
8.43152e-05
4.58226e-06
5.01538e-06
8.45982e-05
2.1525e-05
-1.14133e-06
2.18017e-05
-2.27008e-06
2.22089e-05
-3.27794e-06
2.27362e-05
-4.19747e-06
2.33744e-05
-5.03986e-06
2.41139e-05
-5.81035e-06
2.49457e-05
-6.51192e-06
2.58605e-05
-7.14643e-06
2.68496e-05
-7.71536e-06
2.79043e-05
-8.2205e-06
2.90162e-05
-8.66424e-06
3.01775e-05
-9.04969e-06
3.13808e-05
-9.38054e-06
3.26193e-05
-9.66103e-06
3.3887e-05
-9.89566e-06
3.51784e-05
-1.00891e-05
3.64885e-05
-1.02459e-05
3.78131e-05
-1.03706e-05
3.91485e-05
-1.04673e-05
4.04916e-05
-1.05397e-05
4.18394e-05
-1.05913e-05
4.31898e-05
-1.06251e-05
4.45407e-05
-1.06435e-05
4.58903e-05
-1.06486e-05
4.72371e-05
-1.06422e-05
4.85799e-05
-1.06256e-05
4.99172e-05
-1.05998e-05
5.12482e-05
-1.05658e-05
5.25716e-05
-1.05239e-05
5.38866e-05
-1.04747e-05
5.51921e-05
-1.04182e-05
5.64871e-05
-1.03545e-05
5.77708e-05
-1.02837e-05
5.90421e-05
-1.02057e-05
6.03e-05
-1.01203e-05
6.15434e-05
-1.00273e-05
6.27713e-05
-9.92646e-06
6.39826e-05
-9.81765e-06
6.51763e-05
-9.70059e-06
6.6351e-05
-9.57505e-06
6.75058e-05
-9.44078e-06
6.86393e-05
-9.29755e-06
6.97505e-05
-9.14513e-06
7.0838e-05
-8.98329e-06
7.19006e-05
-8.81178e-06
7.29371e-05
-8.6304e-06
7.39462e-05
-8.4389e-06
7.49268e-05
-8.23705e-06
7.58775e-05
-8.02462e-06
7.67971e-05
-7.80136e-06
7.76844e-05
-7.56703e-06
7.85383e-05
-7.32136e-06
7.93575e-05
-7.06408e-06
8.0141e-05
-6.79492e-06
8.08878e-05
-6.51359e-06
8.15967e-05
-6.21979e-06
8.2267e-05
-5.91321e-06
8.28979e-05
-5.59354e-06
8.34888e-05
-5.26048e-06
8.40391e-05
-4.91372e-06
8.45486e-05
-4.55296e-06
8.50172e-05
-4.17794e-06
8.54453e-05
-3.78842e-06
8.58333e-05
-3.38425e-06
8.61824e-05
-2.96532e-06
8.64941e-05
-2.53166e-06
8.67704e-05
-2.08345e-06
8.7014e-05
-1.62107e-06
8.72284e-05
-1.14515e-06
8.74177e-05
-6.56641e-07
8.7587e-05
-1.56767e-07
8.77417e-05
3.52514e-07
8.78882e-05
8.68054e-07
8.80331e-05
1.3867e-06
8.81835e-05
1.90475e-06
8.83461e-05
2.4179e-06
8.85267e-05
2.92131e-06
8.87297e-05
3.40973e-06
8.8957e-05
3.87779e-06
8.92081e-05
4.32046e-06
4.73404e-06
8.94789e-05
2.30275e-05
-1.27952e-06
2.33163e-05
-2.55876e-06
2.37427e-05
-3.70414e-06
2.42962e-05
-4.75072e-06
2.49672e-05
-5.71046e-06
2.57457e-05
-6.58849e-06
2.6622e-05
-7.38783e-06
2.75864e-05
-8.11043e-06
2.86295e-05
-8.75794e-06
2.97418e-05
-9.3324e-06
3.09145e-05
-9.83657e-06
3.21392e-05
-1.0274e-05
3.3408e-05
-1.0649e-05
3.47136e-05
-1.09664e-05
3.60496e-05
-1.12315e-05
3.741e-05
-1.14495e-05
3.87897e-05
-1.16257e-05
4.01842e-05
-1.17653e-05
4.15895e-05
-1.1873e-05
4.30022e-05
-1.19531e-05
4.44195e-05
-1.20094e-05
4.58388e-05
-1.20454e-05
4.7258e-05
-1.2064e-05
4.86754e-05
-1.20674e-05
5.00892e-05
-1.20578e-05
5.14981e-05
-1.20365e-05
5.29008e-05
-1.20049e-05
5.42962e-05
-1.19637e-05
5.5683e-05
-1.19137e-05
5.70604e-05
-1.18552e-05
5.84272e-05
-1.17885e-05
5.97824e-05
-1.17136e-05
6.11249e-05
-1.16305e-05
6.24538e-05
-1.15391e-05
6.37679e-05
-1.14393e-05
6.50662e-05
-1.13307e-05
6.63474e-05
-1.12133e-05
6.76106e-05
-1.10867e-05
6.88543e-05
-1.09507e-05
7.00776e-05
-1.08049e-05
7.12791e-05
-1.06492e-05
7.24575e-05
-1.04833e-05
7.36117e-05
-1.0307e-05
7.47404e-05
-1.01199e-05
7.58422e-05
-9.92194e-06
7.69159e-05
-9.71279e-06
7.79603e-05
-9.49226e-06
7.89741e-05
-9.26012e-06
7.99561e-05
-9.01617e-06
8.0905e-05
-8.76018e-06
8.18197e-05
-8.49194e-06
8.26992e-05
-8.21125e-06
8.35423e-05
-7.91789e-06
8.4348e-05
-7.61166e-06
8.51156e-05
-7.29236e-06
8.58441e-05
-6.95979e-06
8.65331e-05
-6.61379e-06
8.71818e-05
-6.25418e-06
8.77902e-05
-5.88085e-06
8.83579e-05
-5.49368e-06
8.88852e-05
-5.09264e-06
8.93725e-05
-4.67774e-06
8.98206e-05
-4.24907e-06
9.02304e-05
-3.80684e-06
9.06037e-05
-3.35138e-06
9.09423e-05
-2.88317e-06
9.12489e-05
-2.4029e-06
9.15264e-05
-1.91149e-06
9.17784e-05
-1.41013e-06
9.20092e-05
-9.00341e-07
9.22235e-05
-3.83919e-07
9.2426e-05
1.37234e-07
9.26215e-05
6.5983e-07
9.28152e-05
1.18031e-06
9.30122e-05
1.69524e-06
9.32168e-05
2.20095e-06
9.34323e-05
2.6936e-06
9.36607e-05
3.16929e-06
9.39023e-05
3.62433e-06
9.41556e-05
4.05555e-06
4.4611e-06
9.4417e-05
2.46352e-05
-1.42347e-06
2.49366e-05
-2.86003e-06
2.5383e-05
-4.15024e-06
2.59634e-05
-5.33092e-06
2.66681e-05
-6.41475e-06
2.74866e-05
-7.4066e-06
2.84086e-05
-8.30941e-06
2.94238e-05
-9.12516e-06
3.0522e-05
-9.85565e-06
3.16933e-05
-1.05032e-05
3.2928e-05
-1.10709e-05
3.42173e-05
-1.15629e-05
3.55526e-05
-1.1984e-05
3.69263e-05
-1.23399e-05
3.83315e-05
-1.26364e-05
3.97617e-05
-1.28797e-05
4.12117e-05
-1.30758e-05
4.26766e-05
-1.32304e-05
4.41521e-05
-1.3349e-05
4.56349e-05
-1.34364e-05
4.71217e-05
-1.34971e-05
4.86101e-05
-1.35349e-05
5.00977e-05
-1.35529e-05
5.15826e-05
-1.3554e-05
5.30632e-05
-1.35402e-05
5.45381e-05
-1.35135e-05
5.60057e-05
-1.3475e-05
5.7465e-05
-1.34258e-05
5.89148e-05
-1.33666e-05
6.0354e-05
-1.32978e-05
6.17814e-05
-1.32197e-05
6.3196e-05
-1.31323e-05
6.45966e-05
-1.30356e-05
6.59823e-05
-1.29296e-05
6.73517e-05
-1.28139e-05
6.87038e-05
-1.26884e-05
7.00374e-05
-1.25528e-05
7.13512e-05
-1.24068e-05
7.2644e-05
-1.22501e-05
7.39145e-05
-1.20825e-05
7.51614e-05
-1.19036e-05
7.63836e-05
-1.17132e-05
7.75795e-05
-1.15111e-05
7.8748e-05
-1.12969e-05
7.98877e-05
-1.10705e-05
8.09974e-05
-1.08317e-05
8.20757e-05
-1.05802e-05
8.31215e-05
-1.03159e-05
8.41336e-05
-1.00385e-05
8.51109e-05
-9.74798e-06
8.60521e-05
-9.44411e-06
8.69564e-05
-9.12675e-06
8.78229e-05
-8.7958e-06
8.86506e-05
-8.45115e-06
8.9439e-05
-8.09273e-06
9.01874e-05
-7.72047e-06
9.08955e-05
-7.33437e-06
9.15631e-05
-6.93445e-06
9.21901e-05
-6.5208e-06
9.27769e-05
-6.09355e-06
9.33239e-05
-5.65293e-06
9.3832e-05
-5.19925e-06
9.43024e-05
-4.73294e-06
9.47364e-05
-4.25455e-06
9.51361e-05
-3.76482e-06
9.55038e-05
-3.26462e-06
9.58421e-05
-2.75506e-06
9.61542e-05
-2.23746e-06
9.64436e-05
-1.71341e-06
9.67142e-05
-1.18474e-06
9.697e-05
-6.53528e-07
9.72151e-05
-1.2166e-07
9.74531e-05
4.08138e-07
9.76877e-05
9.32096e-07
9.79223e-05
1.4472e-06
9.81595e-05
1.95041e-06
9.84011e-05
2.43879e-06
9.86479e-05
2.90951e-06
9.88994e-05
3.36007e-06
9.91538e-05
3.78846e-06
4.19394e-06
9.94086e-05
2.63553e-05
-1.57359e-06
2.66699e-05
-3.17448e-06
2.71369e-05
-4.61698e-06
2.77452e-05
-5.93893e-06
2.84845e-05
-7.15363e-06
2.93439e-05
-8.26564e-06
3.03127e-05
-9.27764e-06
3.13796e-05
-1.01916e-05
3.2534e-05
-1.10095e-05
3.3765e-05
-1.17337e-05
3.50627e-05
-1.2368e-05
3.64172e-05
-1.29169e-05
3.78197e-05
-1.33861e-05
3.92619e-05
-1.37818e-05
4.07364e-05
-1.41108e-05
4.22367e-05
-1.43799e-05
4.37569e-05
-1.45961e-05
4.5292e-05
-1.47657e-05
4.68375e-05
-1.4895e-05
4.83898e-05
-1.49894e-05
4.99457e-05
-1.50538e-05
5.15023e-05
-1.50927e-05
5.30575e-05
-1.51095e-05
5.46092e-05
-1.51073e-05
5.61556e-05
-1.50886e-05
5.76953e-05
-1.50554e-05
5.92268e-05
-1.50091e-05
6.07488e-05
-1.49508e-05
6.22602e-05
-1.48812e-05
6.37598e-05
-1.4801e-05
6.52464e-05
-1.47103e-05
6.6719e-05
-1.46092e-05
6.81762e-05
-1.44976e-05
6.9617e-05
-1.43755e-05
7.10402e-05
-1.42426e-05
7.24445e-05
-1.40986e-05
7.38287e-05
-1.39433e-05
7.51915e-05
-1.37763e-05
7.65315e-05
-1.35973e-05
7.78476e-05
-1.34061e-05
7.91382e-05
-1.32022e-05
8.04022e-05
-1.29855e-05
8.16381e-05
-1.27557e-05
8.28447e-05
-1.25126e-05
8.40206e-05
-1.2256e-05
8.51646e-05
-1.19856e-05
8.62754e-05
-1.17013e-05
8.73518e-05
-1.14029e-05
8.83927e-05
-1.10904e-05
8.93971e-05
-1.07637e-05
9.03639e-05
-1.04226e-05
9.12924e-05
-1.00672e-05
9.21816e-05
-9.69735e-06
9.30311e-05
-9.31321e-06
9.38403e-05
-8.91479e-06
9.4609e-05
-8.50222e-06
9.53369e-05
-8.07568e-06
9.60242e-05
-7.63538e-06
9.66713e-05
-7.18166e-06
9.72786e-05
-6.7149e-06
9.78471e-05
-6.23561e-06
9.83779e-05
-5.74438e-06
9.88724e-05
-5.24197e-06
9.93325e-05
-4.72924e-06
9.97602e-05
-4.20724e-06
0.000100158
-3.67717e-06
0.000100528
-3.14044e-06
0.000100875
-2.59864e-06
0.0001012
-2.05354e-06
0.000101508
-1.50712e-06
0.000101801
-9.61534e-07
0.000102083
-4.18947e-07
0.000102358
1.18894e-07
0.000102626
6.48857e-07
0.000102891
1.16773e-06
0.000103154
1.67312e-06
0.000103416
2.1628e-06
0.000103677
2.63477e-06
0.000103936
3.0873e-06
0.000104191
3.51913e-06
3.93017e-06
0.000104442
2.81956e-05
-1.73028e-06
2.8524e-05
-3.50271e-06
2.90123e-05
-5.10504e-06
2.96493e-05
-6.57554e-06
3.0424e-05
-7.92795e-06
3.13253e-05
-9.16642e-06
3.23415e-05
-1.02933e-05
3.34609e-05
-1.13105e-05
3.4672e-05
-1.22199e-05
3.59633e-05
-1.30245e-05
3.73241e-05
-1.37282e-05
3.8744e-05
-1.43363e-05
4.02135e-05
-1.48552e-05
4.17239e-05
-1.52919e-05
4.32674e-05
-1.5654e-05
4.4837e-05
-1.59494e-05
4.64265e-05
-1.61856e-05
4.80307e-05
-1.63701e-05
4.9645e-05
-1.65097e-05
5.12655e-05
-1.66105e-05
5.28888e-05
-1.6678e-05
5.45121e-05
-1.67171e-05
5.6133e-05
-1.67318e-05
5.77495e-05
-1.67255e-05
5.93598e-05
-1.67009e-05
6.09622e-05
-1.66602e-05
6.25554e-05
-1.6605e-05
6.41381e-05
-1.65364e-05
6.57089e-05
-1.64555e-05
6.72666e-05
-1.63626e-05
6.88102e-05
-1.6258e-05
7.03383e-05
-1.61419e-05
7.18498e-05
-1.60141e-05
7.33434e-05
-1.58746e-05
7.48179e-05
-1.5723e-05
7.62719e-05
-1.5559e-05
7.77043e-05
-1.53824e-05
7.91136e-05
-1.51927e-05
8.04985e-05
-1.49898e-05
8.18576e-05
-1.47732e-05
8.31896e-05
-1.45426e-05
8.44931e-05
-1.42979e-05
8.57667e-05
-1.40387e-05
8.70091e-05
-1.37648e-05
8.82191e-05
-1.34761e-05
8.93954e-05
-1.31724e-05
9.05367e-05
-1.28536e-05
9.16421e-05
-1.25196e-05
9.27103e-05
-1.21704e-05
9.37405e-05
-1.1806e-05
9.47319e-05
-1.14264e-05
9.56836e-05
-1.10317e-05
9.65952e-05
-1.0622e-05
9.74661e-05
-1.01976e-05
9.82962e-05
-9.75865e-06
9.90854e-05
-9.30544e-06
9.98338e-05
-8.83839e-06
0.000100542
-8.35794e-06
0.00010121
-7.86463e-06
0.000101839
-7.35913e-06
0.000102431
-6.84219e-06
0.000102986
-6.31468e-06
0.000103506
-5.77761e-06
0.000103993
-5.23212e-06
0.000104449
-4.6795e-06
0.000104878
-4.12119e-06
0.00010528
-3.55877e-06
0.000105659
-2.99396e-06
0.000106019
-2.42863e-06
0.00010636
-1.86477e-06
0.000106687
-1.30444e-06
0.000107002
-7.49709e-07
0.000107307
-2.02212e-07
0.000107605
3.36086e-07
0.000107895
8.62115e-07
0.000108178
1.37386e-06
0.000108456
1.86953e-06
0.000108728
2.34765e-06
0.000108994
2.80704e-06
0.000109251
3.24691e-06
3.66753e-06
0.000109499
3.01645e-05
-1.89393e-06
3.05073e-05
-3.84534e-06
3.10176e-05
-5.61512e-06
3.16839e-05
-7.24146e-06
3.24948e-05
-8.73837e-06
3.34385e-05
-1.01095e-05
3.45026e-05
-1.13568e-05
3.56748e-05
-1.2482e-05
3.69426e-05
-1.34871e-05
3.82941e-05
-1.43753e-05
3.97176e-05
-1.5151e-05
4.12022e-05
-1.58203e-05
4.27378e-05
-1.63902e-05
4.43152e-05
-1.68688e-05
4.59261e-05
-1.72646e-05
4.75632e-05
-1.75863e-05
4.92201e-05
-1.78425e-05
5.08912e-05
-1.80414e-05
5.25718e-05
-1.81906e-05
5.42579e-05
-1.82971e-05
5.59459e-05
-1.83669e-05
5.7633e-05
-1.84054e-05
5.93167e-05
-1.8417e-05
6.0995e-05
-1.84055e-05
6.26659e-05
-1.83739e-05
6.43279e-05
-1.83246e-05
6.59795e-05
-1.82594e-05
6.76194e-05
-1.81795e-05
6.92462e-05
-1.80859e-05
7.08588e-05
-1.79791e-05
7.24559e-05
-1.78595e-05
7.40362e-05
-1.77271e-05
7.55985e-05
-1.75817e-05
7.71416e-05
-1.74233e-05
7.8664e-05
-1.72516e-05
8.01645e-05
-1.70661e-05
8.16417e-05
-1.68667e-05
8.30943e-05
-1.66529e-05
8.45208e-05
-1.64243e-05
8.59198e-05
-1.61807e-05
8.729e-05
-1.59218e-05
8.863e-05
-1.56473e-05
8.99385e-05
-1.5357e-05
9.1214e-05
-1.50507e-05
9.24555e-05
-1.47283e-05
9.36616e-05
-1.43897e-05
9.48313e-05
-1.40349e-05
9.59635e-05
-1.36639e-05
9.70573e-05
-1.32766e-05
9.81118e-05
-1.28734e-05
9.91264e-05
-1.24542e-05
0.0001001
-1.20194e-05
0.000101034
-1.15693e-05
0.000101926
-1.11041e-05
0.000102777
-1.06243e-05