/*--------------------------------*- C++ -*----------------------------------*\
  =========                 |
  \\      /  F ield         | OpenFOAM: The Open Source CFD Toolbox
   \\    /   O peration     | Website:  https://openfoam.org
    \\  /    A nd           | Version:  7
     \\/     M anipulation  |
\*---------------------------------------------------------------------------*/
FoamFile
{
    version     2.0;
    format      ascii;
    class       volVectorField;
    location    "2.07";
    object      U;
}
// * * * * * * * * * * * * * * * * * * * * * * * * * * * * * * * * * * * * * //

dimensions      [0 1 -1 0 0 0 0];

internalField   nonuniform List<vector> 
12013
(
(0.100278 -7.81066e-05 0)
(0.10143 -0.000146364 0)
(0.103321 -0.000211481 0)
(0.1058 -0.000273178 0)
(0.108827 -0.000332372 0)
(0.112361 -0.000389345 0)
(0.116358 -0.00044409 0)
(0.120777 -0.000496523 0)
(0.125578 -0.000546524 0)
(0.130722 -0.00059399 0)
(0.136172 -0.000638856 0)
(0.14189 -0.000681117 0)
(0.147843 -0.00072082 0)
(0.153998 -0.000758065 0)
(0.160326 -0.000792998 0)
(0.1668 -0.000825795 0)
(0.173397 -0.000856652 0)
(0.180096 -0.000885779 0)
(0.186877 -0.000913385 0)
(0.193727 -0.000939671 0)
(0.20063 -0.000964827 0)
(0.207576 -0.000989024 0)
(0.214554 -0.00101241 0)
(0.221557 -0.00103512 0)
(0.228578 -0.00105725 0)
(0.235609 -0.00107889 0)
(0.242647 -0.00110009 0)
(0.249687 -0.0011209 0)
(0.256724 -0.00114134 0)
(0.263754 -0.0011614 0)
(0.270776 -0.00118108 0)
(0.277784 -0.00120035 0)
(0.284776 -0.00121918 0)
(0.29175 -0.00123751 0)
(0.298701 -0.00125528 0)
(0.305628 -0.00127245 0)
(0.312527 -0.00128892 0)
(0.319395 -0.00130461 0)
(0.326229 -0.00131946 0)
(0.333026 -0.00133335 0)
(0.339783 -0.00134619 0)
(0.346498 -0.00135788 0)
(0.353167 -0.00136829 0)
(0.359788 -0.00137731 0)
(0.366357 -0.0013848 0)
(0.372871 -0.00139062 0)
(0.379329 -0.00139461 0)
(0.385727 -0.0013966 0)
(0.392062 -0.00139641 0)
(0.398332 -0.00139382 0)
(0.404534 -0.0013886 0)
(0.410664 -0.00138051 0)
(0.416721 -0.00136924 0)
(0.422701 -0.00135448 0)
(0.428601 -0.00133585 0)
(0.434418 -0.00131295 0)
(0.440149 -0.00128529 0)
(0.445789 -0.00125232 0)
(0.451333 -0.0012134 0)
(0.456778 -0.00116779 0)
(0.462117 -0.00111461 0)
(0.467342 -0.00105282 0)
(0.472447 -0.00098117 0)
(0.477421 -0.000898145 0)
(0.482252 -0.000801886 0)
(0.486924 -0.000690081 0)
(0.491419 -0.000559811 0)
(0.495712 -0.000407333 0)
(0.499774 -0.000227778 0)
(0.503563 -1.46771e-05 0)
(0.507027 0.00024152 0)
(0.510092 0.000555123 0)
(0.512654 0.000947221 0)
(0.514563 0.00145061 0)
(0.515594 0.002119 0)
(0.515397 0.00304524 0)
(0.513405 0.00439937 0)
(0.508628 0.0065187 0)
(0.499301 0.0102003 0)
(0.482401 0.0182305 0)
(0.464367 0.0485092 0)
(0.100256 -0.000238448 0)
(0.101404 -0.000448595 0)
(0.103288 -0.00064839 0)
(0.10576 -0.000837489 0)
(0.108781 -0.00101885 0)
(0.112309 -0.00119334 0)
(0.116299 -0.00136093 0)
(0.120712 -0.00152139 0)
(0.125506 -0.00167434 0)
(0.130644 -0.00181949 0)
(0.136086 -0.00195664 0)
(0.141797 -0.00208579 0)
(0.147742 -0.00220708 0)
(0.153889 -0.00232083 0)
(0.160209 -0.0024275 0)
(0.166674 -0.00252761 0)
(0.173261 -0.00262178 0)
(0.179949 -0.00271065 0)
(0.186721 -0.00279486 0)
(0.193559 -0.00287503 0)
(0.200451 -0.00295173 0)
(0.207384 -0.0030255 0)
(0.21435 -0.00309678 0)
(0.22134 -0.00316598 0)
(0.228347 -0.00323341 0)
(0.235365 -0.00329932 0)
(0.242388 -0.0033639 0)
(0.249412 -0.00342726 0)
(0.256433 -0.00348946 0)
(0.263447 -0.00355053 0)
(0.270451 -0.00361041 0)
(0.277441 -0.00366903 0)
(0.284415 -0.00372628 0)
(0.291369 -0.003782 0)
(0.2983 -0.00383603 0)
(0.305205 -0.00388816 0)
(0.312082 -0.00393817 0)
(0.318927 -0.00398581 0)
(0.325737 -0.00403083 0)
(0.332509 -0.00407292 0)
(0.339241 -0.0041118 0)
(0.345928 -0.00414713 0)
(0.352569 -0.00417857 0)
(0.35916 -0.00420573 0)
(0.365698 -0.0042282 0)
(0.37218 -0.00424556 0)
(0.378604 -0.00425731 0)
(0.384967 -0.00426295 0)
(0.391265 -0.00426188 0)
(0.397496 -0.00425349 0)
(0.403657 -0.00423705 0)
(0.409745 -0.0042118 0)
(0.415758 -0.00417684 0)
(0.421691 -0.00413119 0)
(0.427543 -0.00407372 0)
(0.43331 -0.00400317 0)
(0.438987 -0.00391807 0)
(0.444572 -0.00381675 0)
(0.45006 -0.00369726 0)
(0.455446 -0.00355733 0)
(0.460724 -0.00339429 0)
(0.465887 -0.00320498 0)
(0.470928 -0.00298562 0)
(0.475837 -0.00273161 0)
(0.480602 -0.00243734 0)
(0.485209 -0.00209582 0)
(0.489641 -0.00169827 0)
(0.493875 -0.00123344 0)
(0.497883 -0.000686726 0)
(0.50163 -3.87183e-05 0)
(0.505067 0.000738153 0)
(0.508131 0.00168395 0)
(0.510738 0.00285719 0)
(0.512772 0.00434677 0)
(0.51407 0.00629337 0)
(0.514407 0.00892889 0)
(0.513469 0.0126512 0)
(0.510816 0.0181711 0)
(0.505889 0.0268296 0)
(0.498601 0.0411938 0)
(0.49628 0.0657034 0)
(0.100235 -0.000405377 0)
(0.10137 -0.000769604 0)
(0.103238 -0.00111372 0)
(0.105696 -0.00143928 0)
(0.108704 -0.00175145 0)
(0.112219 -0.0020517 0)
(0.116196 -0.00234004 0)
(0.120595 -0.00261603 0)
(0.125376 -0.00287909 0)
(0.1305 -0.00312869 0)
(0.135927 -0.0033645 0)
(0.141623 -0.0035865 0)
(0.147552 -0.00379497 0)
(0.153682 -0.00399045 0)
(0.159983 -0.00417371 0)
(0.16643 -0.00434569 0)
(0.172997 -0.00450743 0)
(0.179665 -0.00466003 0)
(0.186415 -0.0048046 0)
(0.193231 -0.0049422 0)
(0.2001 -0.00507382 0)
(0.20701 -0.00520038 0)
(0.21395 -0.00532266 0)
(0.220914 -0.00544132 0)
(0.227894 -0.00555693 0)
(0.234883 -0.0056699 0)
(0.241877 -0.00578056 0)
(0.248871 -0.0058891 0)
(0.25586 -0.00599562 0)
(0.262842 -0.00610016 0)
(0.269812 -0.00620263 0)
(0.276767 -0.00630289 0)
(0.283705 -0.00640076 0)
(0.290621 -0.00649596 0)
(0.297513 -0.0065882 0)
(0.304378 -0.00667713 0)
(0.311213 -0.00676235 0)
(0.318014 -0.00684345 0)
(0.324779 -0.00691996 0)
(0.331504 -0.00699138 0)
(0.338186 -0.0070572 0)
(0.344822 -0.00711683 0)
(0.35141 -0.00716968 0)
(0.357946 -0.00721509 0)
(0.364426 -0.00725234 0)
(0.370848 -0.00728069 0)
(0.37721 -0.0072993 0)
(0.383507 -0.00730727 0)
(0.389737 -0.00730361 0)
(0.395898 -0.00728721 0)
(0.401985 -0.00725687 0)
(0.407996 -0.00721124 0)
(0.413929 -0.00714881 0)
(0.41978 -0.00706787 0)
(0.425545 -0.00696653 0)
(0.431222 -0.00684259 0)
(0.436807 -0.00669358 0)
(0.442295 -0.00651665 0)
(0.447683 -0.0063085 0)
(0.452967 -0.00606531 0)
(0.458139 -0.00578258 0)
(0.463195 -0.00545502 0)
(0.468126 -0.0050763 0)
(0.472924 -0.0046388 0)
(0.47758 -0.00413324 0)
(0.482079 -0.00354816 0)
(0.486407 -0.00286926 0)
(0.490546 -0.00207834 0)
(0.494471 -0.00115198 0)
(0.498155 -5.93199e-05 0)
(0.50156 0.00124166 0)
(0.504642 0.00280999 0)
(0.507347 0.00472933 0)
(0.509608 0.00712098 0)
(0.511352 0.0101652 0)
(0.512503 0.014136 0)
(0.513019 0.0194556 0)
(0.51296 0.0267806 0)
(0.512664 0.0371344 0)
(0.513197 0.0520018 0)
(0.518252 0.0724499 0)
(0.100214 -0.000577572 0)
(0.101331 -0.00110874 0)
(0.103175 -0.00160728 0)
(0.105613 -0.00207915 0)
(0.108601 -0.0025314 0)
(0.112095 -0.00296624 0)
(0.116053 -0.00338371 0)
(0.120432 -0.00378324 0)
(0.125192 -0.00416396 0)
(0.130294 -0.00452511 0)
(0.135699 -0.00486625 0)
(0.141371 -0.00518734 0)
(0.147275 -0.0054888 0)
(0.153379 -0.00577139 0)
(0.159653 -0.00603625 0)
(0.166072 -0.00628474 0)
(0.17261 -0.00651836 0)
(0.179247 -0.00673872 0)
(0.185965 -0.00694741 0)
(0.192748 -0.00714598 0)
(0.199582 -0.00733586 0)
(0.206456 -0.00751836 0)
(0.213359 -0.00769462 0)
(0.220284 -0.00786562 0)
(0.227224 -0.00803214 0)
(0.234172 -0.0081948 0)
(0.241123 -0.00835406 0)
(0.248072 -0.0085102 0)
(0.255016 -0.00866337 0)
(0.26195 -0.00881358 0)
(0.268871 -0.00896074 0)
(0.275776 -0.00910463 0)
(0.282661 -0.00924496 0)
(0.289523 -0.00938136 0)
(0.296359 -0.00951336 0)
(0.303165 -0.00964047 0)
(0.30994 -0.00976211 0)
(0.316679 -0.00987765 0)
(0.323379 -0.00998643 0)
(0.330037 -0.0100877 0)
(0.33665 -0.0101807 0)
(0.343215 -0.0102646 0)
(0.349728 -0.0103386 0)
(0.356187 -0.0104016 0)
(0.362587 -0.0104526 0)
(0.368927 -0.0104905 0)
(0.375202 -0.0105142 0)
(0.38141 -0.0105222 0)
(0.387548 -0.0105132 0)
(0.393612 -0.0104856 0)
(0.3996 -0.0104376 0)
(0.405508 -0.0103674 0)
(0.411333 -0.0102726 0)
(0.417073 -0.0101509 0)
(0.422724 -0.00999951 0)
(0.428283 -0.0098154 0)
(0.433746 -0.00959502 0)
(0.439109 -0.00933433 0)
(0.444369 -0.00902868 0)
(0.44952 -0.00867272 0)
(0.454559 -0.00826019 0)
(0.459479 -0.00778371 0)
(0.464274 -0.00723458 0)
(0.468936 -0.00660237 0)
(0.473458 -0.00587449 0)
(0.477829 -0.00503557 0)
(0.482039 -0.00406658 0)
(0.486071 -0.00294373 0)
(0.489912 -0.00163679 0)
(0.493543 -0.000106816 0)
(0.496941 0.00169669 0)
(0.500084 0.00384175 0)
(0.502953 0.00642052 0)
(0.505534 0.00955851 0)
(0.50783 0.0134274 0)
(0.509881 0.0182616 0)
(0.511807 0.0243757 0)
(0.51387 0.0321728 0)
(0.516592 0.0421201 0)
(0.520886 0.0545936 0)
(0.528328 0.0692381 0)
(0.100193 -0.000755235 0)
(0.10129 -0.00146564 0)
(0.103105 -0.00212915 0)
(0.105515 -0.00275773 0)
(0.108476 -0.00335992 0)
(0.111944 -0.00393868 0)
(0.115875 -0.00449416 0)
(0.120226 -0.0050256 0)
(0.124958 -0.00553188 0)
(0.130031 -0.006012 0)
(0.135406 -0.00646539 0)
(0.141046 -0.00689201 0)
(0.146917 -0.0072924 0)
(0.152987 -0.00766763 0)
(0.159225 -0.00801918 0)
(0.165606 -0.00834887 0)
(0.172105 -0.00865873 0)
(0.178702 -0.00895087 0)
(0.185377 -0.00922743 0)
(0.192116 -0.00949045 0)
(0.198904 -0.00974186 0)
(0.205731 -0.00998338 0)
(0.212585 -0.0102165 0)
(0.21946 -0.0104426 0)
(0.226347 -0.0106627 0)
(0.233241 -0.0108775 0)
(0.240136 -0.0110877 0)
(0.247028 -0.0112937 0)
(0.253912 -0.0114957 0)
(0.260784 -0.0116936 0)
(0.267642 -0.0118873 0)
(0.274482 -0.0120766 0)
(0.281299 -0.012261 0)
(0.288092 -0.01244 0)
(0.294856 -0.012613 0)
(0.301589 -0.0127793 0)
(0.308288 -0.0129382 0)
(0.314948 -0.0130888 0)
(0.321567 -0.0132302 0)
(0.328141 -0.0133615 0)
(0.334668 -0.0134815 0)
(0.341143 -0.0135891 0)
(0.347564 -0.0136833 0)
(0.353927 -0.0137626 0)
(0.360229 -0.0138258 0)
(0.366467 -0.0138713 0)
(0.372637 -0.0138975 0)
(0.378736 -0.0139026 0)
(0.384762 -0.0138849 0)
(0.39071 -0.0138421 0)
(0.396578 -0.0137719 0)
(0.402362 -0.0136719 0)
(0.40806 -0.0135391 0)
(0.413669 -0.0133704 0)
(0.419185 -0.0131622 0)
(0.424605 -0.0129104 0)
(0.429926 -0.0126106 0)
(0.435144 -0.0122576 0)
(0.440256 -0.0118453 0)
(0.445257 -0.0113671 0)
(0.450144 -0.010815 0)
(0.454913 -0.0101798 0)
(0.459557 -0.00945068 0)
(0.464072 -0.00861488 0)
(0.468452 -0.00765713 0)
(0.47269 -0.00655905 0)
(0.47678 -0.00529832 0)
(0.480713 -0.0038475 0)
(0.484481 -0.0021726 0)
(0.488079 -0.000231194 0)
(0.4915 0.00202874 0)
(0.494744 0.00467367 0)
(0.49782 0.00778878 0)
(0.500756 0.0114815 0)
(0.503603 0.0158849 0)
(0.506459 0.0211585 0)
(0.509492 0.0274817 0)
(0.512974 0.0350297 0)
(0.517312 0.0439145 0)
(0.523058 0.0540573 0)
(0.530861 0.0649368 0)
(0.100172 -0.000938619 0)
(0.101248 -0.00184007 0)
(0.10303 -0.00267948 0)
(0.105408 -0.00347563 0)
(0.108336 -0.00423818 0)
(0.111771 -0.00497074 0)
(0.115668 -0.00567359 0)
(0.119985 -0.00634579 0)
(0.124682 -0.00698594 0)
(0.129718 -0.00759281 0)
(0.135055 -0.00816566 0)
(0.140656 -0.0087045 0)
(0.146486 -0.00921001 0)
(0.152513 -0.00968355 0)
(0.158707 -0.010127 0)
(0.165041 -0.0105427 0)
(0.171491 -0.0109332 0)
(0.178037 -0.0113012 0)
(0.18466 -0.0116494 0)
(0.191344 -0.0119804 0)
(0.198076 -0.0122966 0)
(0.204844 -0.0126001 0)
(0.211639 -0.012893 0)
(0.218451 -0.0131769 0)
(0.225274 -0.013453 0)
(0.232102 -0.0137224 0)
(0.238929 -0.0139859 0)
(0.24575 -0.0142439 0)
(0.252562 -0.0144966 0)
(0.259361 -0.014744 0)
(0.266142 -0.014986 0)
(0.272903 -0.0152222 0)
(0.27964 -0.015452 0)
(0.28635 -0.0156748 0)
(0.293029 -0.0158899 0)
(0.299674 -0.0160962 0)
(0.306282 -0.0162929 0)
(0.312849 -0.0164789 0)
(0.319372 -0.0166529 0)
(0.325848 -0.0168138 0)
(0.332273 -0.0169601 0)
(0.338644 -0.0170906 0)
(0.344958 -0.0172036 0)
(0.35121 -0.0172975 0)
(0.357398 -0.0173706 0)
(0.363518 -0.017421 0)
(0.369567 -0.0174467 0)
(0.375542 -0.0174454 0)
(0.381439 -0.0174148 0)
(0.387255 -0.0173522 0)
(0.392988 -0.0172548 0)
(0.398633 -0.0171193 0)
(0.404188 -0.0169423 0)
(0.40965 -0.0167197 0)
(0.415017 -0.0164473 0)
(0.420284 -0.0161202 0)
(0.425449 -0.0157327 0)
(0.430509 -0.0152787 0)
(0.435461 -0.0147511 0)
(0.440301 -0.0141417 0)
(0.445028 -0.0134414 0)
(0.449637 -0.0126393 0)
(0.454125 -0.0117232 0)
(0.45849 -0.0106783 0)
(0.462728 -0.00948786 0)
(0.466836 -0.00813162 0)
(0.470814 -0.0065857 0)
(0.474658 -0.0048215 0)
(0.478371 -0.00280469 0)
(0.481956 -0.000494102 0)
(0.485421 0.00215759 0)
(0.488783 0.0052069 0)
(0.492072 0.00872175 0)
(0.495337 0.0127803 0)
(0.49865 0.017468 0)
(0.502119 0.0228712 0)
(0.5059 0.0290635 0)
(0.510198 0.0360801 0)
(0.515271 0.0438776 0)
(0.521402 0.0522732 0)
(0.528823 0.0608714 0)
(0.100151 -0.00112802 0)
(0.101206 -0.002232 0)
(0.102954 -0.00325856 0)
(0.105294 -0.00423351 0)
(0.108184 -0.00516735 0)
(0.11158 -0.00606415 0)
(0.115438 -0.00692426 0)
(0.119715 -0.00774654 0)
(0.12437 -0.0085293 0)
(0.129363 -0.00927104 0)
(0.134655 -0.00997091 0)
(0.140208 -0.0106289 0)
(0.145989 -0.0112459 0)
(0.151965 -0.0118237 0)
(0.158105 -0.0123644 0)
(0.164383 -0.012871 0)
(0.170776 -0.0133466 0)
(0.177262 -0.0137946 0)
(0.183822 -0.0142182 0)
(0.190442 -0.0146206 0)
(0.197107 -0.0150048 0)
(0.203806 -0.0153734 0)
(0.21053 -0.0157288 0)
(0.217268 -0.0160731 0)
(0.224016 -0.0164077 0)
(0.230766 -0.016734 0)
(0.237514 -0.0170528 0)
(0.244253 -0.0173647 0)
(0.250981 -0.01767 0)
(0.257694 -0.0179687 0)
(0.264387 -0.0182605 0)
(0.271057 -0.018545 0)
(0.277701 -0.0188214 0)
(0.284315 -0.019089 0)
(0.290896 -0.0193468 0)
(0.29744 -0.0195936 0)
(0.303945 -0.0198284 0)
(0.310407 -0.0200496 0)
(0.316821 -0.0202559 0)
(0.323186 -0.0204457 0)
(0.329496 -0.0206174 0)
(0.33575 -0.0207692 0)
(0.341943 -0.0208993 0)
(0.348071 -0.0210056 0)
(0.354132 -0.021086 0)
(0.360121 -0.0211382 0)
(0.366037 -0.0211597 0)
(0.371874 -0.0211478 0)
(0.37763 -0.0210998 0)
(0.383302 -0.0210123 0)
(0.388886 -0.0208819 0)
(0.394381 -0.0207048 0)
(0.399781 -0.0204768 0)
(0.405086 -0.0201934 0)
(0.410292 -0.0198493 0)
(0.415396 -0.0194389 0)
(0.420397 -0.0189557 0)
(0.425291 -0.0183927 0)
(0.430076 -0.0177416 0)
(0.434751 -0.0169935 0)
(0.439312 -0.0161381 0)
(0.44376 -0.0151634 0)
(0.448093 -0.0140563 0)
(0.45231 -0.0128012 0)
(0.456411 -0.0113804 0)
(0.460397 -0.00977363 0)
(0.464272 -0.00795715 0)
(0.46804 -0.00590369 0)
(0.471709 -0.0035817 0)
(0.475292 -0.000955197 0)
(0.478808 0.00201434 0)
(0.482281 0.00536865 0)
(0.485752 0.00915444 0)
(0.489277 0.0134192 0)
(0.492926 0.0182064 0)
(0.496793 0.0235475 0)
(0.500995 0.0294504 0)
(0.505666 0.0358832 0)
(0.510945 0.0427541 0)
(0.516954 0.0498904 0)
(0.523745 0.0570307 0)
(0.10013 -0.00132388 0)
(0.101166 -0.00264163 0)
(0.102877 -0.00386687 0)
(0.105176 -0.00503216 0)
(0.108024 -0.00614868 0)
(0.111377 -0.00722064 0)
(0.11519 -0.00824839 0)
(0.11942 -0.00923053 0)
(0.124027 -0.010165 0)
(0.12897 -0.0110501 0)
(0.13421 -0.0118849 0)
(0.139709 -0.0126693 0)
(0.145433 -0.0134044 0)
(0.151349 -0.0140923 0)
(0.157428 -0.0147358 0)
(0.163641 -0.0153383 0)
(0.169967 -0.0159036 0)
(0.176383 -0.0164356 0)
(0.182872 -0.0169383 0)
(0.189417 -0.0174156 0)
(0.196005 -0.0178709 0)
(0.202625 -0.0183075 0)
(0.209266 -0.0187282 0)
(0.215921 -0.0191353 0)
(0.222583 -0.0195308 0)
(0.229244 -0.0199161 0)
(0.235901 -0.0202923 0)
(0.242547 -0.0206601 0)
(0.24918 -0.0210197 0)
(0.255795 -0.0213711 0)
(0.262388 -0.021714 0)
(0.268956 -0.0220479 0)
(0.275495 -0.0223719 0)
(0.282002 -0.022685 0)
(0.288473 -0.022986 0)
(0.294906 -0.0232736 0)
(0.301296 -0.0235463 0)
(0.30764 -0.0238025 0)
(0.313934 -0.0240403 0)
(0.320175 -0.0242581 0)
(0.32636 -0.0244536 0)
(0.332485 -0.024625 0)
(0.338545 -0.0247699 0)
(0.344538 -0.0248858 0)
(0.350461 -0.0249704 0)
(0.356309 -0.0250208 0)
(0.362079 -0.0250341 0)
(0.367768 -0.0250071 0)
(0.373373 -0.0249365 0)
(0.378891 -0.0248185 0)
(0.384318 -0.0246492 0)
(0.389652 -0.0244241 0)
(0.394889 -0.0241384 0)
(0.400029 -0.0237869 0)
(0.405067 -0.0233637 0)
(0.410002 -0.0228625 0)
(0.414833 -0.0222761 0)
(0.419556 -0.0215967 0)
(0.424172 -0.0208155 0)
(0.428679 -0.0199227 0)
(0.433076 -0.0189075 0)
(0.437365 -0.0177574 0)
(0.441545 -0.016459 0)
(0.445619 -0.0149968 0)
(0.449589 -0.0133535 0)
(0.453462 -0.0115098 0)
(0.457243 -0.00944415 0)
(0.460942 -0.00713259 0)
(0.464572 -0.00454871 0)
(0.468151 -0.00166409 0)
(0.471707 0.00154955 0)
(0.475263 0.00511802 0)
(0.478862 0.00906758 0)
(0.482554 0.0134201 0)
(0.4864 0.0181884 0)
(0.490468 0.0233699 0)
(0.494835 0.0289399 0)
(0.499576 0.0348431 0)
(0.504758 0.040987 0)
(0.510416 0.0472385 0)
(0.516533 0.0534345 0)
(0.100108 -0.00152674 0)
(0.101127 -0.00306937 0)
(0.102801 -0.0045051 0)
(0.105058 -0.00587256 0)
(0.10786 -0.00718352 0)
(0.111165 -0.00844201 0)
(0.114928 -0.00964823 0)
(0.119107 -0.0108004 0)
(0.12366 -0.0118962 0)
(0.128546 -0.0129335 0)
(0.133727 -0.0139112 0)
(0.139164 -0.0148294 0)
(0.144824 -0.0156894 0)
(0.150672 -0.0164936 0)
(0.15668 -0.0172454 0)
(0.162821 -0.0179488 0)
(0.16907 -0.0186082 0)
(0.175407 -0.0192284 0)
(0.181814 -0.0198141 0)
(0.188274 -0.0203696 0)
(0.194775 -0.0208992 0)
(0.201305 -0.0214066 0)
(0.207854 -0.0218951 0)
(0.214415 -0.0223675 0)
(0.220979 -0.022826 0)
(0.227541 -0.0232724 0)
(0.234096 -0.0237078 0)
(0.240638 -0.0241331 0)
(0.247164 -0.0245485 0)
(0.25367 -0.0249541 0)
(0.260152 -0.0253493 0)
(0.266607 -0.0257336 0)
(0.27303 -0.0261058 0)
(0.279419 -0.0264649 0)
(0.28577 -0.0268094 0)
(0.292079 -0.0271377 0)
(0.298343 -0.027448 0)
(0.304559 -0.0277383 0)
(0.310722 -0.0280067 0)
(0.31683 -0.028251 0)
(0.322878 -0.0284687 0)
(0.328863 -0.0286573 0)
(0.334781 -0.0288144 0)
(0.340629 -0.028937 0)
(0.346403 -0.0290221 0)
(0.3521 -0.0290667 0)
(0.357716 -0.0290673 0)
(0.363248 -0.0290203 0)
(0.368693 -0.0289217 0)
(0.374048 -0.0287675 0)
(0.37931 -0.028553 0)
(0.384476 -0.0282733 0)
(0.389545 -0.0279231 0)
(0.394513 -0.0274966 0)
(0.399379 -0.0269873 0)
(0.404141 -0.0263884 0)
(0.408799 -0.0256922 0)
(0.413351 -0.0248904 0)
(0.417797 -0.0239739 0)
(0.422137 -0.0229325 0)
(0.426372 -0.0217553 0)
(0.430505 -0.0204301 0)
(0.434537 -0.0189437 0)
(0.438474 -0.0172817 0)
(0.442321 -0.0154281 0)
(0.446084 -0.0133661 0)
(0.449776 -0.0110773 0)
(0.453408 -0.00854253 0)
(0.456996 -0.00574192 0)
(0.460559 -0.00265552 0)
(0.464129 0.000736174 0)
(0.467725 0.0044446 0)
(0.471384 0.00847856 0)
(0.475149 0.0128416 0)
(0.479064 0.0175276 0)
(0.483173 0.0225171 0)
(0.487521 0.0277734 0)
(0.492145 0.0332404 0)
(0.497067 0.0388415 0)
(0.502286 0.0444825 0)
(0.507761 0.0500644 0)
(0.100085 -0.00173724 0)
(0.101089 -0.00351581 0)
(0.102728 -0.00517411 0)
(0.10494 -0.00675584 0)
(0.107694 -0.00827334 0)
(0.110948 -0.00973013 0)
(0.114657 -0.011126 0)
(0.118779 -0.0124588 0)
(0.123272 -0.0137257 0)
(0.128095 -0.0149243 0)
(0.13321 -0.0160534 0)
(0.138578 -0.017113 0)
(0.144165 -0.0181047 0)
(0.149938 -0.0190314 0)
(0.155867 -0.0198971 0)
(0.161925 -0.0207064 0)
(0.168088 -0.0214645 0)
(0.174337 -0.0221769 0)
(0.180651 -0.022849 0)
(0.187017 -0.0234861 0)
(0.19342 -0.0240929 0)
(0.199849 -0.0246738 0)
(0.206296 -0.0252326 0)
(0.21275 -0.0257726 0)
(0.219206 -0.0262962 0)
(0.225657 -0.0268055 0)
(0.232099 -0.0273019 0)
(0.238526 -0.0277862 0)
(0.244935 -0.0282588 0)
(0.251321 -0.0287196 0)
(0.257681 -0.0291682 0)
(0.264011 -0.0296035 0)
(0.270307 -0.0300246 0)
(0.276567 -0.0304299 0)
(0.282786 -0.0308178 0)
(0.288962 -0.0311864 0)
(0.295089 -0.0315337 0)
(0.301166 -0.0318573 0)
(0.307188 -0.0321549 0)
(0.313152 -0.0324238 0)
(0.319053 -0.0326615 0)
(0.324889 -0.0328649 0)
(0.330655 -0.0330311 0)
(0.336348 -0.0331569 0)
(0.341965 -0.0332388 0)
(0.347502 -0.0332732 0)
(0.352956 -0.0332563 0)
(0.358323 -0.0331841 0)
(0.363601 -0.033052 0)
(0.368786 -0.0328556 0)
(0.373877 -0.0325898 0)
(0.378871 -0.0322491 0)
(0.383765 -0.0318278 0)
(0.388558 -0.0313197 0)
(0.393249 -0.0307179 0)
(0.397837 -0.0300153 0)
(0.402321 -0.0292038 0)
(0.406701 -0.0282751 0)
(0.410979 -0.0272199 0)
(0.415154 -0.0260283 0)
(0.419231 -0.0246897 0)
(0.423212 -0.0231926 0)
(0.427102 -0.021525 0)
(0.430906 -0.0196738 0)
(0.434632 -0.0176258 0)
(0.438291 -0.0153668 0)
(0.441892 -0.0128827 0)
(0.445451 -0.0101597 0)
(0.448984 -0.00718442 0)
(0.452511 -0.00394503 0)
(0.456055 -0.000430825 0)
(0.459644 0.00336176 0)
(0.463299 0.00742744 0)
(0.467051 0.0117583 0)
(0.47093 0.0163388 0)
(0.474963 0.021143 0)
(0.479171 0.0261339 0)
(0.483567 0.0312633 0)
(0.488153 0.0364729 0)
(0.492911 0.0416984 0)
(0.4978 0.0468807 0)
(0.10006 -0.00195603 0)
(0.101052 -0.00398168 0)
(0.102657 -0.00587491 0)
(0.104824 -0.00768329 0)
(0.107528 -0.00941972 0)
(0.110727 -0.0110869 0)
(0.114378 -0.012684 0)
(0.118438 -0.0142083 0)
(0.122865 -0.0156564 0)
(0.12762 -0.0170257 0)
(0.132662 -0.0183145 0)
(0.137954 -0.0195232 0)
(0.14346 -0.0206536 0)
(0.149148 -0.0217091 0)
(0.154988 -0.0226941 0)
(0.160954 -0.0236142 0)
(0.167022 -0.0244754 0)
(0.173171 -0.0252839 0)
(0.179383 -0.026046 0)
(0.185643 -0.0267677 0)
(0.191937 -0.0274546 0)
(0.198255 -0.0281116 0)
(0.204587 -0.028743 0)
(0.210924 -0.0293526 0)
(0.21726 -0.0299432 0)
(0.223589 -0.0305172 0)
(0.229906 -0.0310761 0)
(0.236207 -0.0316208 0)
(0.242486 -0.0321517 0)
(0.248741 -0.0326687 0)
(0.254967 -0.0331712 0)
(0.261161 -0.0336582 0)
(0.26732 -0.0341283 0)
(0.273439 -0.0345799 0)
(0.279516 -0.0350109 0)
(0.285547 -0.0354193 0)
(0.291527 -0.0358025 0)
(0.297455 -0.0361581 0)
(0.303325 -0.0364832 0)
(0.309135 -0.0367748 0)
(0.31488 -0.03703 0)
(0.320557 -0.0372453 0)
(0.326162 -0.0374174 0)
(0.331692 -0.0375425 0)
(0.337143 -0.037617 0)
(0.342512 -0.0376367 0)
(0.347796 -0.0375974 0)
(0.352991 -0.0374946 0)
(0.358096 -0.0373234 0)
(0.363106 -0.0370789 0)
(0.368021 -0.0367557 0)
(0.372837 -0.0363479 0)
(0.377554 -0.0358495 0)
(0.38217 -0.0352539 0)
(0.386685 -0.0345541 0)
(0.391097 -0.0337429 0)
(0.395408 -0.0328122 0)
(0.399618 -0.0317537 0)
(0.403729 -0.0305585 0)
(0.407743 -0.0292173 0)
(0.411665 -0.0277203 0)
(0.415498 -0.0260572 0)
(0.419248 -0.0242176 0)
(0.422923 -0.0221906 0)
(0.426531 -0.0199657 0)
(0.430083 -0.0175322 0)
(0.43359 -0.0148802 0)
(0.437066 -0.012001 0)
(0.440528 -0.00888711 0)
(0.443992 -0.00553346 0)
(0.447476 -0.00193726 0)
(0.45101 0.00190107 0)
(0.454599 0.00596852 0)
(0.458267 0.0102504 0)
(0.462031 0.0147273 0)
(0.465907 0.0193734 0)
(0.4699 0.024156 0)
(0.474011 0.0290368 0)
(0.478232 0.0339731 0)
(0.482543 0.0389217 0)
(0.486905 0.0438476 0)
(0.100035 -0.00218379 0)
(0.101015 -0.00446784 0)
(0.102588 -0.00660862 0)
(0.104709 -0.00865631 0)
(0.107361 -0.0106243 0)
(0.110503 -0.0125142 0)
(0.114092 -0.0143243 0)
(0.118086 -0.0160512 0)
(0.122443 -0.0176909 0)
(0.127122 -0.0192401 0)
(0.132083 -0.0206974 0)
(0.13729 -0.0220629 0)
(0.142708 -0.0233388 0)
(0.148302 -0.0245291 0)
(0.154044 -0.025639 0)
(0.159908 -0.0266747 0)
(0.165869 -0.0276431 0)
(0.171908 -0.0285515 0)
(0.178006 -0.0294069 0)
(0.184148 -0.0302161 0)
(0.190322 -0.0309856 0)
(0.196516 -0.0317209 0)
(0.20272 -0.0324271 0)
(0.208928 -0.0331081 0)
(0.215132 -0.0337675 0)
(0.221327 -0.0344076 0)
(0.227507 -0.0350302 0)
(0.233668 -0.0356364 0)
(0.239806 -0.0362266 0)
(0.245918 -0.0368006 0)
(0.251998 -0.0373576 0)
(0.258045 -0.0378965 0)
(0.264054 -0.0384157 0)
(0.270022 -0.0389132 0)
(0.275945 -0.0393869 0)
(0.28182 -0.0398341 0)
(0.287643 -0.0402521 0)
(0.29341 -0.0406381 0)
(0.299119 -0.0409887 0)
(0.304764 -0.0413007 0)
(0.310344 -0.0415706 0)
(0.315852 -0.0417946 0)
(0.321288 -0.041969 0)
(0.326646 -0.0420896 0)
(0.331923 -0.0421523 0)
(0.337117 -0.0421526 0)
(0.342224 -0.0420858 0)
(0.347242 -0.0419471 0)
(0.352167 -0.0417314 0)
(0.356998 -0.0414331 0)
(0.361732 -0.0410468 0)
(0.366369 -0.0405663 0)
(0.370906 -0.0399853 0)
(0.375343 -0.0392973 0)
(0.37968 -0.0384952 0)
(0.383918 -0.0375718 0)
(0.388056 -0.0365194 0)
(0.392098 -0.0353301 0)
(0.396045 -0.0339956 0)
(0.399901 -0.0325076 0)
(0.403671 -0.0308573 0)
(0.407359 -0.0290362 0)
(0.410973 -0.0270356 0)
(0.414519 -0.0248474 0)
(0.418007 -0.0224635 0)
(0.421447 -0.0198771 0)
(0.424851 -0.017082 0)
(0.428231 -0.0140741 0)
(0.431601 -0.0108507 0)
(0.434976 -0.00741196 0)
(0.438368 -0.00376045 0)
(0.441799 0.000100873 0)
(0.445276 0.00415849 0)
(0.448807 0.00839242 0)
(0.452403 0.0127827 0)
(0.456071 0.0173062 0)
(0.459809 0.0219363 0)
(0.463612 0.0266436 0)
(0.467468 0.0313973 0)
(0.471358 0.0361681 0)
(0.475251 0.0409357 0)
(0.100008 -0.00242119 0)
(0.100979 -0.00497523 0)
(0.10252 -0.00737642 0)
(0.104596 -0.00967634 0)
(0.107194 -0.0118887 0)
(0.110277 -0.0140139 0)
(0.113801 -0.016049 0)
(0.117723 -0.0179896 0)
(0.122003 -0.0198311 0)
(0.1266 -0.0215699 0)
(0.131474 -0.023204 0)
(0.136588 -0.0247339 0)
(0.141906 -0.0261621 0)
(0.147397 -0.0274931 0)
(0.15303 -0.0287329 0)
(0.158781 -0.0298887 0)
(0.164624 -0.0309684 0)
(0.17054 -0.03198 0)
(0.176512 -0.0329316 0)
(0.182524 -0.0338311 0)
(0.188564 -0.0346855 0)
(0.194621 -0.0355012 0)
(0.200685 -0.0362839 0)
(0.206751 -0.037038 0)
(0.212809 -0.0377675 0)
(0.218856 -0.0384749 0)
(0.224887 -0.0391624 0)
(0.230896 -0.039831 0)
(0.23688 -0.0404812 0)
(0.242835 -0.0411126 0)
(0.248757 -0.0417244 0)
(0.254644 -0.0423152 0)
(0.260491 -0.0428833 0)
(0.266296 -0.0434263 0)
(0.272053 -0.0439417 0)
(0.277761 -0.0444266 0)
(0.283415 -0.044878 0)
(0.289012 -0.0452924 0)
(0.294548 -0.0456664 0)
(0.30002 -0.0459962 0)
(0.305423 -0.0462778 0)
(0.310755 -0.0465072 0)
(0.316012 -0.0466801 0)
(0.32119 -0.0467921 0)
(0.326286 -0.0468386 0)
(0.331298 -0.0468148 0)
(0.336222 -0.0467157 0)
(0.341056 -0.046536 0)
(0.345797 -0.0462704 0)
(0.350444 -0.0459133 0)
(0.354995 -0.0454587 0)
(0.359449 -0.0449006 0)
(0.363805 -0.0442327 0)
(0.368062 -0.0434484 0)
(0.372222 -0.0425409 0)
(0.376286 -0.0415033 0)
(0.380254 -0.0403283 0)
(0.384129 -0.0390089 0)
(0.387915 -0.0375376 0)
(0.391616 -0.0359072 0)
(0.395235 -0.0341104 0)
(0.39878 -0.0321406 0)
(0.402257 -0.029991 0)
(0.405673 -0.0276559 0)
(0.409038 -0.0251303 0)
(0.41236 -0.0224101 0)
(0.41565 -0.0194928 0)
(0.418919 -0.0163776 0)
(0.422178 -0.0130656 0)
(0.425437 -0.00956032 0)
(0.428708 -0.00586762 0)
(0.431998 -0.00199432 0)
(0.43533 0.00205205 0)
(0.438688 0.0062487 0)
(0.442083 0.0105759 0)
(0.445516 0.0150137 0)
(0.448983 0.0195411 0)
(0.452475 0.0241359 0)
(0.455982 0.0287757 0)
(0.459486 0.0334405 0)
(0.462963 0.038119 0)
(0.0999785 -0.0026689 0)
(0.100943 -0.00550485 0)
(0.102455 -0.00817953 0)
(0.104484 -0.0107448 0)
(0.107027 -0.0132146 0)
(0.110048 -0.0155876 0)
(0.113502 -0.0178596 0)
(0.117349 -0.0200251 0)
(0.121545 -0.0220787 0)
(0.126053 -0.0240162 0)
(0.130831 -0.0258354 0)
(0.135842 -0.027537 0)
(0.141052 -0.0291239 0)
(0.146428 -0.0306012 0)
(0.151941 -0.0319759 0)
(0.157565 -0.0332559 0)
(0.163278 -0.0344502 0)
(0.169059 -0.0355681 0)
(0.17489 -0.0366187 0)
(0.180758 -0.0376106 0)
(0.186651 -0.0385518 0)
(0.192557 -0.0394497 0)
(0.198467 -0.0403102 0)
(0.204375 -0.0411388 0)
(0.210275 -0.0419394 0)
(0.21616 -0.0427152 0)
(0.222026 -0.0434683 0)
(0.227869 -0.0441999 0)
(0.233685 -0.0449104 0)
(0.239471 -0.0455995 0)
(0.245222 -0.0462661 0)
(0.250936 -0.0469087 0)
(0.256609 -0.0475251 0)
(0.262237 -0.0481129 0)
(0.267817 -0.048669 0)
(0.273346 -0.0491903 0)
(0.27882 -0.0496733 0)
(0.284235 -0.0501142 0)
(0.289588 -0.0505091 0)
(0.294876 -0.0508539 0)
(0.300094 -0.0511441 0)
(0.30524 -0.0513755 0)
(0.310309 -0.0515432 0)
(0.315299 -0.0516425 0)
(0.320207 -0.0516685 0)
(0.32503 -0.051616 0)
(0.329765 -0.0514798 0)
(0.33441 -0.0512544 0)
(0.338963 -0.0509343 0)
(0.343423 -0.0505137 0)
(0.347787 -0.0499866 0)
(0.352057 -0.0493471 0)
(0.35623 -0.0485888 0)
(0.360308 -0.0477056 0)
(0.364291 -0.046691 0)
(0.368182 -0.0455386 0)
(0.371981 -0.0442419 0)
(0.375692 -0.0427945 0)
(0.379319 -0.0411904 0)
(0.382865 -0.0394234 0)
(0.386336 -0.0374881 0)
(0.389738 -0.0353793 0)
(0.393078 -0.0330926 0)
(0.396361 -0.0306244 0)
(0.399597 -0.027972 0)
(0.402794 -0.0251342 0)
(0.405959 -0.022111 0)
(0.409103 -0.0189041 0)
(0.412233 -0.015517 0)
(0.415358 -0.0119554 0)
(0.418485 -0.00822661 0)
(0.421618 -0.00433965 0)
(0.424768 -0.000301623 0)
(0.427936 0.00387292 0)
(0.431112 0.0081619 0)
(0.434301 0.0125482 0)
(0.437495 0.017015 0)
(0.440688 0.0215456 0)
(0.443869 0.0261235 0)
(0.447024 0.0307348 0)
(0.450134 0.0353735 0)
(0.0999474 -0.00292754 0)
(0.100907 -0.00605771 0)
(0.102391 -0.00901911 0)
(0.104373 -0.0118631 0)
(0.106859 -0.0146031 0)
(0.109815 -0.0172365 0)
(0.113196 -0.0197573 0)
(0.116961 -0.0221587 0)
(0.121068 -0.0244343 0)
(0.125477 -0.0265794 0)
(0.13015 -0.0285917 0)
(0.135049 -0.0304719 0)
(0.140139 -0.0322233 0)
(0.145388 -0.033852 0)
(0.150768 -0.0353656 0)
(0.156253 -0.0367735 0)
(0.161821 -0.0380856 0)
(0.167452 -0.0393123 0)
(0.173129 -0.0404638 0)
(0.178838 -0.0415498 0)
(0.184567 -0.0425794 0)
(0.190307 -0.0435606 0)
(0.196048 -0.0445002 0)
(0.201784 -0.045404 0)
(0.207508 -0.0462766 0)
(0.213216 -0.0471213 0)
(0.218904 -0.0479405 0)
(0.224566 -0.0487354 0)
(0.2302 -0.0495065 0)
(0.235801 -0.0502533 0)
(0.241367 -0.0509745 0)
(0.246894 -0.0516684 0)
(0.252379 -0.0523325 0)
(0.257818 -0.052964 0)
(0.263208 -0.0535596 0)
(0.268546 -0.0541157 0)
(0.273828 -0.0546284 0)
(0.27905 -0.0550936 0)
(0.28421 -0.0555069 0)
(0.289303 -0.0558638 0)
(0.294326 -0.0561596 0)
(0.299276 -0.0563894 0)
(0.30415 -0.0565482 0)
(0.308945 -0.056631 0)
(0.313657 -0.0566324 0)
(0.318285 -0.0565471 0)
(0.322825 -0.0563696 0)
(0.327277 -0.0560944 0)
(0.331638 -0.0557157 0)
(0.335907 -0.0552278 0)
(0.340083 -0.054625 0)
(0.344167 -0.0539011 0)
(0.348157 -0.0530505 0)
(0.352056 -0.0520671 0)
(0.355863 -0.0509451 0)
(0.359581 -0.0496787 0)
(0.363213 -0.0482624 0)
(0.366761 -0.0466909 0)
(0.37023 -0.044959 0)
(0.373624 -0.0430623 0)
(0.376947 -0.0409967 0)
(0.380205 -0.0387588 0)
(0.383405 -0.036346 0)
(0.386552 -0.0337567 0)
(0.389654 -0.0309903 0)
(0.392718 -0.0280475 0)
(0.39575 -0.0249302 0)
(0.398757 -0.021642 0)
(0.401745 -0.0181878 0)
(0.404721 -0.0145741 0)
(0.407688 -0.0108093 0)
(0.41065 -0.00690246 0)
(0.413606 -0.00286237 0)
(0.416575 0.00130596 0)
(0.419529 0.00558094 0)
(0.422474 0.00994607 0)
(0.425406 0.0143873 0)
(0.428317 0.0188916 0)
(0.431199 0.023447 0)
(0.434042 0.028043 0)
(0.436829 0.0326776 0)
(0.0999143 -0.0031977 0)
(0.100869 -0.0066348 0)
(0.102327 -0.00989628 0)