/*--------------------------------*- C++ -*----------------------------------*\
  =========                 |
  \\      /  F ield         | OpenFOAM: The Open Source CFD Toolbox
   \\    /   O peration     | Website:  https://openfoam.org
    \\  /    A nd           | Version:  7
     \\/     M anipulation  |
\*---------------------------------------------------------------------------*/
FoamFile
{
    version     2.0;
    format      ascii;
    class       surfaceScalarField;
    location    "6.2";
    object      phi;
}
// * * * * * * * * * * * * * * * * * * * * * * * * * * * * * * * * * * * * * //

dimensions      [1 0 -1 0 0 0 0];

internalField   nonuniform List<scalar> 
23692
(
1.18972e-05
-2.62553e-07
1.235e-05
-4.526e-07
1.2963e-05
-6.12474e-07
1.37115e-05
-7.47817e-07
1.45778e-05
-8.65535e-07
1.55493e-05
-9.70433e-07
1.66164e-05
-1.06599e-06
1.77725e-05
-1.15476e-06
1.90123e-05
-1.23838e-06
2.03315e-05
-1.31764e-06
2.17257e-05
-1.39254e-06
2.31899e-05
-1.46246e-06
2.47181e-05
-1.52632e-06
2.63029e-05
-1.58278e-06
2.79355e-05
-1.6305e-06
2.96059e-05
-1.66829e-06
3.13033e-05
-1.69524e-06
3.30164e-05
-1.71083e-06
3.47336e-05
-1.71497e-06
3.64439e-05
-1.70789e-06
3.81364e-05
-1.69017e-06
3.98015e-05
-1.66267e-06
4.14302e-05
-1.62637e-06
4.30151e-05
-1.5824e-06
4.45494e-05
-1.53192e-06
4.60279e-05
-1.47607e-06
4.74464e-05
-1.41597e-06
4.88014e-05
-1.35265e-06
5.00909e-05
-1.28704e-06
5.13133e-05
-1.22e-06
5.2468e-05
-1.15227e-06
5.35548e-05
-1.08449e-06
5.45744e-05
-1.01721e-06
5.55276e-05
-9.50897e-07
5.64158e-05
-8.85929e-07
5.72406e-05
-8.2262e-07
5.8004e-05
-7.61217e-07
5.8708e-05
-7.01912e-07
5.93549e-05
-6.4485e-07
5.9947e-05
-5.90134e-07
6.04867e-05
-5.37829e-07
6.09765e-05
-4.87971e-07
6.14188e-05
-4.40569e-07
6.18161e-05
-3.95607e-07
6.21707e-05
-3.53052e-07
6.2485e-05
-3.12851e-07
6.27613e-05
-2.74938e-07
6.30018e-05
-2.39229e-07
6.32085e-05
-2.0563e-07
6.33835e-05
-1.74035e-07
6.35287e-05
-1.44325e-07
6.36458e-05
-1.16371e-07
6.37365e-05
-9.00304e-08
6.38021e-05
-6.51509e-08
6.38439e-05
-4.1568e-08
6.38632e-05
-1.91058e-08
6.38608e-05
2.42216e-09
6.38375e-05
2.31999e-08
6.37938e-05
4.34455e-08
6.37299e-05
6.33983e-08
6.3646e-05
8.33331e-08
6.35417e-05
1.03559e-07
6.34164e-05
1.24425e-07
6.32691e-05
1.46338e-07
6.30982e-05
1.6977e-07
6.29016e-05
1.95285e-07
6.26766e-05
2.23573e-07
6.24196e-05
2.5549e-07
6.21259e-05
2.92138e-07
6.17892e-05
3.34969e-07
6.14014e-05
3.85962e-07
6.09516e-05
4.47917e-07
6.04248e-05
5.24945e-07
5.97994e-05
6.23347e-07
5.90442e-05
7.53233e-07
5.81105e-05
9.31608e-07
5.69199e-05
1.18854e-06
5.53375e-05
1.58038e-06
5.31115e-05
2.22401e-06
4.96981e-05
3.41148e-06
6.40209e-06
4.32941e-05
1.27215e-05
-5.3544e-07
1.3203e-05
-9.33796e-07
1.38566e-05
-1.2655e-06
1.46553e-05
-1.5458e-06
1.55804e-05
-1.78976e-06
1.66181e-05
-2.00714e-06
1.77585e-05
-2.20516e-06
1.89943e-05
-2.38915e-06
2.032e-05
-2.56251e-06
2.17309e-05
-2.72687e-06
2.32224e-05
-2.88228e-06
2.47893e-05
-3.02743e-06
2.64251e-05
-3.16007e-06
2.81218e-05
-3.27743e-06
2.98702e-05
-3.37668e-06
3.16596e-05
-3.45534e-06
3.34782e-05
-3.51153e-06
3.53139e-05
-3.54417e-06
3.71544e-05
-3.553e-06
3.89876e-05
-3.53855e-06
4.0802e-05
-3.50203e-06
4.2587e-05
-3.44515e-06
4.43332e-05
-3.37001e-06
4.60324e-05
-3.27894e-06
4.76774e-05
-3.17434e-06
4.92626e-05
-3.05861e-06
5.07832e-05
-2.93403e-06
5.2236e-05
-2.80276e-06
5.36183e-05
-2.66675e-06
5.49286e-05
-2.52777e-06
5.61662e-05
-2.38734e-06
5.73311e-05
-2.24681e-06
5.84237e-05
-2.10732e-06
5.94451e-05
-1.96983e-06
6.03967e-05
-1.83513e-06
6.12803e-05
-1.70387e-06
6.2098e-05
-1.57656e-06
6.28519e-05
-1.45359e-06
6.35445e-05
-1.33527e-06
6.41783e-05
-1.2218e-06
6.47558e-05
-1.11333e-06
6.52797e-05
-1.00992e-06
6.57526e-05
-9.1159e-07
6.61771e-05
-8.18312e-07
6.65557e-05
-7.3001e-07
6.6891e-05
-6.46576e-07
6.71854e-05
-5.67868e-07
6.74412e-05
-4.93717e-07
6.76607e-05
-4.23925e-07
6.7846e-05
-3.5827e-07
6.79991e-05
-2.96506e-07
6.81219e-05
-2.38364e-07
6.8216e-05
-1.83551e-07
6.82831e-05
-1.31751e-07
6.83245e-05
-8.2623e-08
6.83414e-05
-3.58023e-08
6.83347e-05
9.08897e-09
6.83054e-05
5.24371e-08
6.82538e-05
9.46809e-08
6.81805e-05
1.36316e-07
6.80853e-05
1.77902e-07
6.7968e-05
2.20066e-07
6.7828e-05
2.63519e-07
6.76641e-05
3.09075e-07
6.7475e-05
3.57684e-07
6.72585e-05
4.10471e-07
6.70117e-05
4.68797e-07
6.67313e-05
5.34341e-07
6.64124e-05
6.09235e-07
6.60493e-05
6.96246e-07
6.56343e-05
7.9908e-07
6.51573e-05
9.22848e-07
6.46054e-05
1.07483e-06
6.39609e-05
1.26571e-06
6.32002e-05
1.51175e-06
6.22913e-05
1.83839e-06
6.11911e-05
2.28654e-06
5.98458e-05
2.92347e-06
5.82033e-05
3.8644e-06
5.63019e-05
5.31079e-06
7.53127e-06
5.51706e-05
1.36001e-05
-8.16099e-07
1.41087e-05
-1.44207e-06
1.48019e-05
-1.95818e-06
1.56515e-05
-2.39458e-06
1.6637e-05
-2.77429e-06
1.77435e-05
-3.11259e-06
1.89605e-05
-3.4208e-06
2.02801e-05
-3.70724e-06
2.16965e-05
-3.97725e-06
2.32048e-05
-4.23341e-06
2.48002e-05
-4.47579e-06
2.64772e-05
-4.70238e-06
2.82289e-05
-4.90962e-06
3.0047e-05
-5.09319e-06
3.19213e-05
-5.24862e-06
3.38404e-05
-5.372e-06
3.57917e-05
-5.46036e-06
3.77621e-05
-5.51198e-06
3.97381e-05
-5.52643e-06
4.17068e-05
-5.50452e-06
4.36556e-05
-5.44812e-06
4.55731e-05
-5.35992e-06
4.74491e-05
-5.2432e-06
4.92745e-05
-5.10159e-06
5.10418e-05
-4.93883e-06
5.27447e-05
-4.75869e-06
5.43782e-05
-4.56474e-06
5.59385e-05
-4.36035e-06
5.74231e-05
-4.14856e-06
5.88302e-05
-3.93212e-06
6.01591e-05
-3.71343e-06
6.14096e-05
-3.49459e-06
6.25823e-05
-3.27736e-06
6.36783e-05
-3.06325e-06
6.46993e-05
-2.85348e-06
6.5647e-05
-2.64906e-06
6.65237e-05
-2.45079e-06
6.73318e-05
-2.25928e-06
6.80739e-05
-2.07499e-06
6.87526e-05
-1.89826e-06
6.93708e-05
-1.72928e-06
6.99311e-05
-1.56817e-06
7.04365e-05
-1.41496e-06
7.08896e-05
-1.26958e-06
7.12933e-05
-1.13192e-06
7.16502e-05
-1.00182e-06
7.1963e-05
-8.79039e-07
7.2234e-05
-7.63323e-07
7.24657e-05
-6.5436e-07
7.26604e-05
-5.51803e-07
7.28201e-05
-4.55269e-07
7.2947e-05
-3.64338e-07
7.30427e-05
-2.78555e-07
7.31089e-05
-1.9743e-07
7.3147e-05
-1.20435e-07
7.31584e-05
-4.70066e-08
7.31441e-05
2.34309e-08
7.3105e-05
9.14691e-08
7.30415e-05
1.5778e-07
7.29542e-05
2.23122e-07
7.28431e-05
2.88343e-07
7.2708e-05
3.54388e-07
7.25482e-05
4.22319e-07
7.23628e-05
4.93344e-07
7.21503e-05
5.6886e-07
7.19088e-05
6.50505e-07
7.16358e-05
7.4023e-07
7.1328e-05
8.40412e-07
7.09814e-05
9.54002e-07
7.05909e-05
1.08474e-06
7.01504e-05
1.2375e-06
6.96524e-05
1.41873e-06
6.90879e-05
1.63716e-06
6.84464e-05
1.90489e-06
6.7717e-05
2.23882e-06
6.68903e-05
2.66278e-06
6.59643e-05
3.21019e-06
6.49588e-05
3.92667e-06
6.39502e-05
4.87075e-06
6.31582e-05
6.10046e-06
7.59795e-06
6.30894e-05
1.45381e-05
-1.10317e-06
1.50719e-05
-1.97556e-06
1.58041e-05
-2.68981e-06
1.67049e-05
-3.29453e-06
1.77522e-05
-3.82059e-06
1.893e-05
-4.28922e-06
2.02269e-05
-4.71625e-06
2.16346e-05
-5.11328e-06
2.31469e-05
-5.48781e-06
2.47589e-05
-5.84347e-06
2.64655e-05
-6.18039e-06
2.82611e-05
-6.49577e-06
3.01384e-05
-6.78463e-06
3.20886e-05
-7.04087e-06
3.41007e-05
-7.25823e-06
3.61625e-05
-7.43115e-06
3.82602e-05
-7.55544e-06
4.03796e-05
-7.62862e-06
4.25061e-05
-7.65004e-06
4.46252e-05
-7.62081e-06
4.67235e-05
-7.54351e-06
4.87884e-05
-7.42189e-06
5.08087e-05
-7.26053e-06
5.27746e-05
-7.06448e-06
5.46777e-05
-6.83901e-06
5.65114e-05
-6.58932e-06
5.82701e-05
-6.32042e-06
5.99497e-05
-6.037e-06
6.15474e-05
-5.74331e-06
6.30614e-05
-5.44316e-06
6.44909e-05
-5.13991e-06
6.58356e-05
-4.83644e-06
6.70963e-05
-4.53523e-06
6.82743e-05
-4.23834e-06
6.9371e-05
-3.94749e-06
7.03888e-05
-3.66406e-06
7.13298e-05
-3.38916e-06
7.21967e-05
-3.12362e-06
7.29923e-05
-2.8681e-06
7.37195e-05
-2.62302e-06
7.43813e-05
-2.38868e-06
7.49806e-05
-2.16522e-06
7.55204e-05
-1.95267e-06
7.60038e-05
-1.75094e-06
7.64337e-05
-1.55988e-06
7.68129e-05
-1.37924e-06
7.71442e-05
-1.20871e-06
7.74304e-05
-1.04791e-06
7.76738e-05
-8.96417e-07
7.7877e-05
-7.53748e-07
7.80422e-05
-6.1937e-07
7.81714e-05
-4.92705e-07
7.82667e-05
-3.73124e-07
7.83298e-05
-2.59952e-07
7.83623e-05
-1.52465e-07
7.83654e-05
-4.98946e-08
7.83403e-05
4.85311e-08
7.8288e-05
1.43609e-07
7.82092e-05
2.36253e-07
7.81043e-05
3.27486e-07
7.79735e-05
4.18435e-07
7.78167e-05
5.10343e-07
7.76334e-05
6.04595e-07
7.74227e-05
7.02753e-07
7.71836e-05
8.06592e-07
7.69144e-05
9.18163e-07
7.66131e-05
1.03986e-06
7.62771e-05
1.17455e-06
7.59035e-05
1.32566e-06
7.54887e-05
1.49742e-06
7.5029e-05
1.69507e-06
7.45202e-05
1.92524e-06
7.39587e-05
2.1963e-06
7.33422e-05
2.51894e-06
7.2672e-05
2.90659e-06
7.19565e-05
3.37578e-06
7.12184e-05
3.94574e-06
7.05063e-05
4.63636e-06
6.99121e-05
5.4624e-06
6.95906e-05
6.41962e-06
7.45145e-06
6.97347e-05
1.55404e-05
-1.39608e-06
1.60982e-05
-2.53296e-06
1.68688e-05
-3.45988e-06
1.78212e-05
-4.24605e-06
1.89318e-05
-4.93012e-06
2.01835e-05
-5.53954e-06
2.15638e-05
-6.09506e-06
2.30641e-05
-6.61192e-06
2.46782e-05
-7.1e-06
2.64009e-05
-7.56415e-06
2.82273e-05
-8.00458e-06
3.01515e-05
-8.4176e-06
3.2166e-05
-8.79665e-06
3.42614e-05
-9.1336e-06
3.64259e-05
-9.4201e-06
3.86463e-05
-9.64868e-06
4.09074e-05
-9.81371e-06
4.31936e-05
-9.9118e-06
4.54886e-05
-9.94205e-06
4.77767e-05
-9.90583e-06
5.00428e-05
-9.80654e-06
5.22732e-05
-9.64911e-06
5.44554e-05
-9.43956e-06
5.65787e-05
-9.18454e-06
5.86339e-05
-8.89099e-06
6.06135e-05
-8.56575e-06
6.25117e-05
-8.21541e-06
6.43241e-05
-7.84611e-06
6.60474e-05
-7.46343e-06
6.76798e-05
-7.07236e-06
6.92203e-05
-6.67728e-06
7.06689e-05
-6.28196e-06
7.20264e-05
-5.88963e-06
7.32941e-05
-5.50298e-06
7.44738e-05
-5.12422e-06
7.55678e-05
-4.75516e-06
7.65787e-05
-4.39721e-06
7.75093e-05
-4.05148e-06
7.83627e-05
-3.71877e-06
7.9142e-05
-3.39967e-06
7.98503e-05
-3.09451e-06
8.0491e-05
-2.80349e-06
8.10672e-05
-2.52663e-06
8.15823e-05
-2.26381e-06
8.20393e-05
-2.01481e-06
8.24413e-05
-1.77932e-06
8.27913e-05
-1.55691e-06
8.30921e-05
-1.34711e-06
8.33465e-05
-1.14934e-06
8.35571e-05
-9.62973e-07
8.37262e-05
-7.8733e-07
8.38561e-05
-6.21655e-07
8.3949e-05
-4.65139e-07
8.40065e-05
-3.16912e-07
8.40306e-05
-1.76047e-07
8.40225e-05
-4.15757e-08
8.39836e-05
8.74656e-08
8.3915e-05
2.1208e-07
8.38175e-05
3.33427e-07
8.36916e-05
4.52781e-07
8.35378e-05
5.71525e-07
8.3356e-05
6.91168e-07
8.31462e-05
8.13368e-07
8.29077e-05
9.39964e-07
8.26398e-05
1.07301e-06
8.23414e-05
1.21483e-06
8.20114e-05
1.36808e-06
8.16482e-05
1.53579e-06
8.12503e-05
1.72151e-06
8.08161e-05
1.92939e-06
8.03445e-05
2.16432e-06
7.98353e-05
2.43202e-06
7.92899e-05
2.7392e-06
7.87128e-05
3.09348e-06
7.81135e-05
3.50319e-06
7.75099e-05
3.97671e-06
7.6932e-05
4.52098e-06
7.6427e-05
5.13875e-06
7.60627e-05
5.82403e-06
7.59249e-05
6.5548e-06
7.28155e-06
7.60923e-05
1.66123e-05
-1.695e-06
1.71933e-05
-3.11359e-06
1.80024e-05
-4.26828e-06
1.90071e-05
-5.24983e-06
2.01827e-05
-6.1046e-06
2.1511e-05
-6.86635e-06
2.29787e-05
-7.5612e-06
2.4577e-05
-8.2084e-06
2.62996e-05
-8.82052e-06
2.81414e-05
-9.40379e-06
3.00978e-05
-9.95856e-06
3.21629e-05
-1.04801e-05
3.43289e-05
-1.09601e-05
3.6586e-05
-1.13878e-05
3.89214e-05
-1.17526e-05
4.13204e-05
-1.20446e-05
4.37663e-05
-1.22565e-05
4.62415e-05
-1.23838e-05
4.87279e-05
-1.24252e-05
5.12078e-05
-1.23825e-05
5.36645e-05
-1.22598e-05
5.60823e-05
-1.20636e-05
5.84477e-05
-1.18015e-05
6.07486e-05
-1.1482e-05
6.29749e-05
-1.11138e-05
6.51184e-05
-1.07058e-05
6.71727e-05
-1.02663e-05
6.9133e-05
-9.80298e-06
7.0996e-05
-9.32296e-06
7.27596e-05
-8.83253e-06
7.44229e-05
-8.33717e-06
7.59859e-05
-7.84165e-06
7.74495e-05
-7.34999e-06
7.88154e-05
-6.86555e-06
8.00854e-05
-6.3911e-06
8.12623e-05
-5.92887e-06
8.23488e-05
-5.48063e-06
8.3348e-05
-5.04772e-06
8.42633e-05
-4.63116e-06
8.50981e-05
-4.23162e-06
8.58558e-05
-3.84955e-06
8.654e-05
-3.48514e-06
8.71543e-05
-3.13841e-06
8.77021e-05
-2.80921e-06
8.81867e-05
-2.49724e-06
8.86116e-05
-2.2021e-06
8.89798e-05
-1.92325e-06
8.92946e-05
-1.66008e-06
8.95587e-05
-1.41188e-06
8.97751e-05
-1.17787e-06
8.99462e-05
-9.57199e-07
9.00745e-05
-7.48923e-07
9.01623e-05
-5.52048e-07
9.02116e-05
-3.65501e-07
9.02242e-05
-1.88142e-07
9.02017e-05
-1.88394e-08
9.01457e-05
1.43556e-07
9.00573e-05
3.00279e-07
8.99377e-05
4.52721e-07
8.97875e-05
6.0238e-07
8.96074e-05
7.50858e-07
8.93978e-05
8.99877e-07
8.91587e-05
1.0513e-06
8.88901e-05
1.20715e-06
8.85919e-05
1.36964e-06
8.82638e-05
1.54119e-06
8.79055e-05
1.72447e-06
8.75168e-05
1.92245e-06
8.70977e-05
2.13838e-06
8.66488e-05
2.37589e-06
8.61717e-05
2.63891e-06
8.56695e-05
2.9317e-06
8.51474e-05
3.25861e-06
8.46143e-05
3.62388e-06
8.40836e-05
4.03106e-06
8.35753e-05
4.48218e-06
8.31171e-05
4.97635e-06
8.2745e-05
5.50798e-06
8.25019e-05
6.06435e-06
8.24309e-05
6.62299e-06
7.14959e-06
8.25601e-05
1.77592e-05
-2.00069e-06
1.83635e-05
-3.71749e-06
1.92115e-05
-5.11557e-06
2.02698e-05
-6.3071e-06
2.15126e-05
-7.34622e-06
2.29208e-05
-8.27304e-06
2.44808e-05
-9.11938e-06
2.61833e-05
-9.90897e-06
2.80224e-05
-1.06575e-05
2.99937e-05
-1.13727e-05
3.20928e-05
-1.20551e-05
3.43143e-05
-1.26989e-05
3.66504e-05
-1.32933e-05
3.90903e-05
-1.38248e-05
4.16203e-05
-1.42795e-05
4.42238e-05
-1.46448e-05
4.68818e-05
-1.49113e-05
4.95744e-05
-1.5073e-05
5.22808e-05
-1.51282e-05
5.4981e-05
-1.50791e-05
5.76559e-05
-1.49311e-05
6.0288e-05
-1.46921e-05
6.28618e-05
-1.43717e-05
6.53641e-05
-1.39806e-05
6.77837e-05
-1.35297e-05
7.01116e-05
-1.303e-05
7.23409e-05
-1.24918e-05
7.44663e-05
-1.19247e-05
7.64844e-05
-1.13374e-05
7.83932e-05
-1.07376e-05
8.01917e-05
-1.01321e-05
8.18803e-05
-9.52663e-06
8.346e-05
-8.92614e-06
8.49326e-05
-8.33471e-06
8.63007e-05
-7.75566e-06
8.75669e-05
-7.19171e-06
8.87345e-05
-6.64496e-06
8.9807e-05
-6.11703e-06
9.07881e-05
-5.6091e-06
9.16814e-05
-5.12198e-06
9.2491e-05
-4.65616e-06
9.32205e-05
-4.21188e-06
9.38739e-05
-3.78911e-06
9.44548e-05
-3.38765e-06
9.49671e-05
-3.00713e-06
9.54143e-05
-2.64703e-06
9.57998e-05
-2.3067e-06
9.61271e-05
-1.98538e-06
9.63991e-05
-1.68221e-06
9.6619e-05
-1.39623e-06
9.67896e-05
-1.12642e-06
9.69135e-05
-8.71646e-07
9.69932e-05
-6.3072e-07
9.70308e-05
-4.02365e-07
9.70284e-05
-1.8523e-07
9.69879e-05
2.19629e-08
9.69111e-05
2.20524e-07
9.67993e-05
4.11948e-07
9.66538e-05
5.97829e-07
9.64758e-05
7.79851e-07
9.6266e-05
9.59788e-07
9.60254e-05
1.13952e-06
9.57544e-05
1.32101e-06
9.54538e-05
1.50639e-06
9.51239e-05
1.69786e-06
9.47655e-05
1.89779e-06
9.43792e-05
2.10868e-06
9.39663e-05
2.33315e-06
9.35285e-05
2.57391e-06
9.30681e-05
2.83376e-06
9.2589e-05
3.11542e-06
9.20965e-05
3.42144e-06
9.15983e-05
3.75396e-06
9.1105e-05
4.11433e-06
9.06305e-05
4.50259e-06
9.01927e-05
4.9169e-06
8.98135e-05
5.35261e-06
8.95169e-05
5.80148e-06
8.93275e-05
6.25082e-06
8.92643e-05
6.68317e-06
7.07726e-06
8.93337e-05
1.89866e-05
-2.31436e-06
1.9615e-05
-4.34543e-06
2.05033e-05
-6.00304e-06
2.1617e-05
-7.41982e-06
2.29301e-05
-8.65796e-06
2.44225e-05
-9.76382e-06
2.60804e-05
-1.07754e-05
2.78949e-05
-1.17213e-05
2.98606e-05
-1.26209e-05
3.19744e-05
-1.34839e-05
3.42328e-05
-1.43108e-05
3.6631e-05
-1.50942e-05
3.91613e-05
-1.58205e-05
4.18121e-05
-1.64723e-05
4.45677e-05
-1.70318e-05
4.74091e-05
-1.74828e-05
5.03144e-05
-1.7813e-05
5.326e-05
-1.8015e-05
5.62222e-05
-1.80866e-05
5.91774e-05
-1.80306e-05
6.2104e-05
-1.78538e-05
6.49819e-05
-1.75661e-05
6.77938e-05
-1.71796e-05
7.05249e-05
-1.67076e-05
7.31628e-05
-1.61637e-05
7.56978e-05
-1.55611e-05
7.81225e-05
-1.49125e-05
8.04315e-05
-1.42297e-05
8.26212e-05
-1.35232e-05
8.46898e-05
-1.28022e-05
8.66365e-05
-1.20749e-05
8.84619e-05
-1.13482e-05
9.01675e-05
-1.06279e-05
9.17555e-05
-9.91893e-06
9.32287e-05
-9.22518e-06
9.45904e-05
-8.54982e-06
9.58443e-05
-7.89532e-06
9.69943e-05
-7.26356e-06
9.80445e-05
-6.65588e-06
9.8999e-05
-6.07322e-06
9.98621e-05
-5.5161e-06
0.000100638
-4.98476e-06
0.000101331
-4.47915e-06
0.000101945
-3.99898e-06
0.000102484
-3.54378e-06
0.000102953
-3.11292e-06
0.000103354
-2.7056e-06
0.000103691
-2.3209e-06
0.000103969
-1.95781e-06
0.000104189
-1.61518e-06
0.000104356
-1.2918e-06
0.000104472
-9.86356e-07
0.00010454
-6.97453e-07
0.000104562
-4.23622e-07
0.000104541
-1.63328e-07
0.000104478
8.48958e-08
0.000104376
3.22501e-07
0.000104237
5.5119e-07
0.000104062
7.72751e-07
0.000103852
9.89018e-07
0.000103609
1.20188e-06
0.000103334
1.41329e-06
0.000103029
1.62528e-06
0.000102694
1.8399e-06
0.000102331
2.05929e-06
0.000101941
2.28561e-06
0.000101526
2.52102e-06
0.00010109
2.76764e-06
0.000100634
3.02752e-06
0.000100162
3.3025e-06
9.96808e-05
3.59412e-06
9.91959e-05
3.90345e-06
9.8716e-05
4.23083e-06
9.82516e-05
4.57563e-06
9.78152e-05
4.93589e-06
9.7421e-05
5.30796e-06
9.70842e-05
5.68619e-06
9.68198e-05
6.06263e-06
9.66403e-05
6.42711e-06
9.65527e-05
6.76759e-06
7.07163e-06
9.65552e-05
2.03005e-05
-2.63763e-06
2.09545e-05
-4.99889e-06
2.1885e-05
-6.93279e-06
2.30572e-05
-8.59085e-06
2.44444e-05
-1.00437e-05
2.60264e-05
-1.1344e-05
2.77894e-05
-1.25364e-05
2.97256e-05
-1.36552e-05
3.18312e-05
-1.47239e-05
3.41045e-05
-1.57545e-05
3.65442e-05
-1.67475e-05
3.91464e-05
-1.76933e-05
4.19032e-05
-1.8574e-05
4.48017e-05
-1.93673e-05
4.78236e-05
-2.00501e-05
5.09461e-05
-2.06016e-05
5.41431e-05
-2.1006e-05
5.73863e-05
-2.12543e-05
6.06476e-05
-2.13438e-05
6.38995e-05
-2.12784e-05
6.71167e-05
-2.10669e-05
7.02766e-05
-2.07218e-05
7.33597e-05
-2.02585e-05
7.63495e-05
-1.96931e-05
7.92326e-05
-1.90425e-05
8.19988e-05
-1.8323e-05
8.46403e-05
-1.75497e-05
8.71516e-05
-1.67367e-05
8.95294e-05
-1.58966e-05
9.1772e-05
-1.50405e-05
9.38793e-05
-1.41779e-05
9.58522e-05
-1.33169e-05
9.76928e-05
-1.24644e-05
9.94039e-05
-1.16259e-05
0.000100989
-1.08061e-05
0.000102451
-1.00085e-05
0.000103796
-9.23597e-06
0.000105027
-8.49063e-06
0.000106148
-7.77398e-06
0.000107166
-7.08703e-06
0.000108083
-6.43034e-06
0.000108906
-5.80411e-06
0.000109638
-5.20824e-06
0.000110285
-4.64234e-06
0.000110849
-4.10583e-06
0.000111337
-3.59792e-06
0.000111752
-3.11766e-06
0.000112097
-2.66397e-06
0.000112377
-2.23564e-06
0.000112595
-1.83135e-06
0.000112754
-1.44969e-06
0.000112858
-1.08915e-06
0.00011291
-7.48134e-07
0.000112913
-4.24994e-07
0.000112868
-1.18048e-07
0.000112779
1.74348e-07
0.000112648
4.53819e-07
0.000112477
7.22267e-07
0.000112268
9.81624e-07
0.000112022
1.23382e-06
0.000111743
1.48081e-06
0.00011143
1.72456e-06
0.000111087
1.96705e-06
0.000110715
2.21024e-06
0.000110317
2.45605e-06
0.000109894
2.70636e-06
0.00010945
2.96292e-06
0.000108988
3.22731e-06
0.000108512
3.50088e-06
0.000108027
3.78464e-06
0.000107539
4.07913e-06
0.000107055
4.38433e-06
0.000106583
4.69944e-06
0.000106133
5.02274e-06
0.000105714
5.35146e-06
0.000105337
5.6816e-06
0.000105012
6.00791e-06
0.000104747
6.32399e-06
0.000104548
6.62251e-06
0.000104417
6.89574e-06
7.13675e-06
0.000104349
2.17069e-05
-2.97236e-06
2.23886e-05
-5.68008e-06
2.33645e-05
-7.90781e-06
2.4599e-05
-9.8241e-06
2.60655e-05
-1.15086e-05
2.77439e-05
-1.30206e-05
2.96214e-05
-1.44118e-05
3.16921e-05
-1.57234e-05
3.39547e-05
-1.69839e-05
3.6411e-05
-1.82078e-05
3.90618e-05
-1.93951e-05
4.19047e-05
-2.05328e-05
4.49315e-05
-2.15972e-05
4.81266e-05
-2.25587e-05
5.14676e-05
-2.33872e-05
5.49261e-05
-2.4056e-05
5.84697e-05
-2.45454e-05
6.20641e-05
-2.48445e-05
6.56754e-05
-2.49508e-05
6.92714e-05
-2.487e-05
7.28228e-05
-2.46138e-05
7.6304e-05
-2.41985e-05
7.96932e-05
-2.36431e-05
8.29726e-05
-2.2968e-05
8.61282e-05
-2.21935e-05
8.91492e-05
-2.13393e-05
9.20279e-05
-2.04237e-05
9.47591e-05
-1.94633e-05
9.73399e-05
-1.84729e-05
9.97695e-05
-1.74655e-05
0.000102048
-1.6452e-05
0.000104178
-1.5442e-05
0.000106161
-1.44431e-05
0.000108001
-1.34618e-05
0.000109703
-1.25033e-05
0.00011127
-1.15716e-05
0.000112708
-1.06698e-05
0.000114022
-9.80033e-06
0.000115216
-8.96473e-06
0.000116297
-8.16407e-06
0.00011727
-7.39891e-06
0.000118138
-6.66941e-06
0.000118909
-5.97534e-06
0.000119586
-5.31623e-06
0.000120175
-4.69132e-06
0.000120679
-4.09968e-06
0.000121104
-3.54017e-06
0.000121454
-3.01153e-06
0.000121733
-2.51235e-06
0.000121945
-2.04113e-06
0.000122094
-1.59624e-06
0.000122182
-1.176e-06
0.000122214
-7.78596e-07
0.000122192
-4.02187e-07
0.00012212
-4.50718e-08
0.000122
2.94571e-07
0.000121836
6.18692e-07
0.000121629
9.29315e-07
0.000121381
1.22845e-06
0.000121097
1.51808e-06
0.000120776
1.80017e-06
0.000120423
2.07665e-06
0.00012004
2.34939e-06
0.000119628
2.62019e-06
0.000119192
2.89074e-06
0.000118733
3.16258e-06
0.000118257
3.43705e-06
0.000117767
3.71524e-06
0.000117267
3.99791e-06
0.000116763
4.28542e-06
0.000116262
4.57766e-06
0.000115769
4.87394e-06
0.000115292
5.1729e-06
0.000114839
5.47249e-06
0.000114417
5.76989e-06
0.000114034
6.06155e-06
0.000113695
6.34328e-06
0.000113405
6.61038e-06
0.000113166
6.85797e-06
0.000112976
7.08138e-06
7.277e-06
0.000112833
2.32123e-05
-3.3207e-06
2.39247e-05
-6.3919e-06
2.49498e-05
-8.93196e-06
2.62516e-05
-1.11246e-05
2.78039e-05
-1.30592e-05
2.95877e-05
-1.48022e-05
3.1592e-05
-1.64138e-05
3.38143e-05
-1.79431e-05
3.6258e-05
-1.94247e-05
3.89291e-05
-2.08757e-05
4.18322e-05
-2.22948e-05
4.49661e-05
-2.36631e-05
4.83209e-05
-2.49481e-05
5.18765e-05
-2.61103e-05
5.56036e-05
-2.71101e-05
5.94654e-05
-2.79135e-05
6.34211e-05
-2.84966e-05
6.74285e-05
-2.88472e-05
7.14466e-05
-2.89643e-05
7.54379e-05
-2.88564e-05
7.93688e-05
-2.85398e-05
8.32109e-05
-2.80356e-05
8.69405e-05
-2.73678e-05
9.0539e-05
-2.65615e-05
9.39919e-05
-2.56413e-05
9.72886e-05
-2.4631e-05
0.000100422
-2.3552e-05
0.000103388
-2.24239e-05
0.000106184
-2.12639e-05
0.00010881
-2.00867e-05
0.000111268
-1.8905e-05
0.00011356
-1.77295e-05
0.000115691
-1.65689e-05
0.000117664
-1.54304e-05
0.000119485
-1.43196e-05
0.000121159
-1.3241e-05
0.000122692
-1.2198e-05
0.000124089
-1.11931e-05
0.000125357
-1.0228e-05
0.0001265
-9.30374e-06
0.000127526
-8.42078e-06
0.00012844
-7.5792e-06
0.000129247
-6.77866e-06
0.000129953
-6.01852e-06
0.000130563
-5.29785e-06
0.000131082
-4.61552e-06
0.000131515
-3.97021e-06
0.000131866
-3.36045e-06
0.000132141
-2.78463e-06
0.000132343
-2.24104e-06
0.000132477
-1.72786e-06
0.000132546
-1.24322e-06
0.000132554
-7.85137e-07
0.000132504
-3.51594e-07
0.000132401
5.92351e-08
0.000132247
4.49295e-07
0.000132045
8.20817e-07
0.000131799
1.17593e-06
0.00013151
1.51669e-06
0.000131183
1.8451e-06
0.000130819
2.1631e-06
0.000130422
2.47253e-06
0.000129995
2.77515e-06
0.000129541
3.07257e-06
0.000129064
3.36624e-06
0.000128567
3.65739e-06
0.000128054
3.94703e-06
0.000127531
4.23584e-06
0.000127002
4.52419e-06
0.000126473
4.81204e-06
0.000125948
5.09891e-06
0.000125435
5.38386e-06
0.000124939
5.66545e-06
0.000124466
5.94174e-06
0.000124022
6.21033e-06
0.000123612
6.46846e-06
0.000123238
6.71309e-06
0.000122904
6.94106e-06
0.000122609
7.14935e-06
0.000122351
7.33533e-06
7.49737e-06
0.000122127
2.48235e-05
-3.68502e-06
2.55702e-05
-7.13801e-06
2.66494e-05
-1.00101e-05
2.80251e-05
-1.24989e-05
2.96718e-05
-1.47041e-05
3.15725e-05
-1.67007e-05
3.37203e-05
-1.8559e-05
3.61181e-05
-2.0338e-05
3.87761e-05
-2.20796e-05
4.1707e-05
-2.38031e-05
4.49194e-05
-2.55034e-05
4.84122e-05
-2.7152e-05
5.21713e-05
-2.8703e-05
5.61684e-05
-3.01031e-05
6.03633e-05
-3.13004e-05
6.47077e-05
-3.22531e-05
6.91494e-05
-3.29335e-05
7.36366e-05
-3.33295e-05
7.81208e-05
-3.34433e-05
8.25584e-05
-3.32889e-05
8.69123e-05
-3.28885e-05
9.11516e-05
-3.22697e-05
9.52518e-05
-3.14626e-05
9.91938e-05
-3.04981e-05
0.000102964
-2.94059e-05
0.000106552
-2.82137e-05
0.000109952
-2.6947e-05
0.000113162
-2.56281e-05
0.00011618
-2.42766e-05
0.000119008
-2.29094e-05
0.000121649
-2.15406e-05
0.000124107
-2.01819e-05
0.000126386
-1.88431e-05
0.000128493
-1.7532e-05
0.000130433
-1.62547e-05
0.000132213
-1.5016e-05
0.00013384
-1.38194e-05
0.000135319
-1.26675e-05
0.000136657
-1.1562e-05
0.000137862
-1.0504e-05
0.000138939
-9.49369e-06
0.000139896
-8.53108e-06
0.000140737
-7.61565e-06
0.000141468
-6.74655e-06
0.000142097
-5.92266e-06
0.000142627
-5.14262e-06
0.000143065
-4.40489e-06
0.000143416
-3.70779e-06
0.000143683
-3.0495e-06
0.000143873
-2.4281e-06
0.000143989
-1.84158e-06
0.000144036
-1.28789e-06
0.000144017
-7.64899e-07
0.000143937
-2.70485e-07
0.0001438
1.97524e-07
0.000143609
6.41172e-07
0.000143368
1.06278e-06
0.000143079
1.4646e-06
0.000142747
1.84873e-06
0.000142375
2.21716e-06
0.000141965
2.57179e-06
0.000141522
2.91438e-06
0.00014105
3.24656e-06
0.000140551
3.56977e-06
0.00014003
3.88526e-06
0.000139491
4.19403e-06
0.000138939
4.49683e-06
0.000138378
4.79413e-06
0.000137814
5.08606e-06
0.00013725
5.37242e-06
0.000136693
5.65265e-06
0.000136148
5.92586e-06
0.000135619
6.19079e-06
0.000135111
6.44591e-06
0.000134629
6.68944e-06
0.000134174
6.91943e-06
0.000133749
7.1339e-06
0.000133355
7.33095e-06
0.000132992
7.50887e-06
0.000132657
7.66635e-06
7.80296e-06
0.000132347
2.65478e-05
-4.06795e-06
2.73333e-05
-7.9229e-06
2.84728e-05
-1.11485e-05
2.99305e-05
-1.3955e-05
3.16827e-05
-1.64543e-05
3.37162e-05
-1.87319e-05
3.60305e-05
-2.08705e-05
3.86376e-05
-2.2942e-05
4.15576e-05
-2.49962e-05
4.48113e-05
-2.70531e-05
4.84109e-05
-2.9099e-05
5.23526e-05
-3.10894e-05
5.66131e-05
-3.2959e-05
6.11502e-05
-3.46355e-05
6.59079e-05
-3.60532e-05
7.08223e-05
-3.71624e-05
7.58277e-05
-3.79337e-05
8.08616e-05
-3.83581e-05
8.58678e-05
-3.8444e-05
9.07977e-05
-3.82132e-05
9.56114e-05
-3.76964e-05
0.000100277
-3.69293e-05
0.00010477
-3.59495e-05
0.000109071
-3.47942e-05
0.00011317
-3.34987e-05
0.000117058
-3.20955e-05
0.00012073
-3.06136e-05
0.000124187
-2.90784e-05
0.000127428
-2.7512e-05
0.000130457
-2.59329e-05
0.000133279
-2.43568e-05
0.0001359
-2.27966e-05
0.000138325
-2.12626e-05
0.000140562
-1.97631e-05
0.000142617
-1.83048e-05
0.000144499
-1.68925e-05
0.000146215
-1.55299e-05
0.000147772
-1.42195e-05
0.000149178
-1.29629e-05
0.00015044
-1.1761e-05
0.000151565
-1.0614e-05
0.00015256
-9.52156e-06
0.000153432
-8.48298e-06
0.000154187
-7.49717e-06
0.000154831
-6.56275e-06
0.00015537
-5.67813e-06
0.000155811
-4.84155e-06
0.000156157
-4.05106e-06
0.000156415
-3.30464e-06
0.00015659
-2.60015e-06
0.000156687
-1.9354e-06
0.000156709
-1.30814e-06
0.000156662
-7.16131e-07
0.000156551
-1.57138e-07
0.000156378
3.7127e-07
0.000156149
8.71356e-07
0.000155867
1.34557e-06
0.000155536
1.79619e-06
0.000155159
2.22533e-06
0.000154741
2.63498e-06
0.000154286
3.02698e-06
0.000153796
3.40303e-06
0.000153277
3.76465e-06
0.000152732
4.11316e-06
0.000152166
4.44967e-06
0.000151583
4.77506e-06
0.000150987
5.08995e-06
0.000150384
5.39471e-06
0.000149778
5.68943e-06
0.000149173
5.97394e-06
0.000148575
6.2478e-06
0.000147987
6.51035e-06
0.000147414
6.76069e-06
0.000146858
6.9978e-06
0.000146323
7.22053e-06
0.000145811
7.42771e-06
0.000145323
7.61823e-06
0.000144858
7.7911e-06
0.000144418
7.94556e-06
0.000143999
8.08116e-06
8.19817e-06
0.0001436
2.83929e-05
-4.47247e-06
2.92228e-05
-8.75201e-06
3.04301e-05
-1.23546e-05
3.19804e-05
-1.55036e-05
3.3853e-05
-1.83248e-05
3.60413e-05
-2.09176e-05
3.85552e-05
-2.33815e-05
4.14203e-05
-2.58037e-05
4.467e-05
-2.82422e-05
4.83342e-05
-3.07132e-05
5.24255e-05
-3.31859e-05
5.6931e-05
-3.55903e-05
6.18104e-05
-3.78335e-05
6.70005e-05
-3.98204e-05
7.24236e-05
-4.1471e-05
7.79972e-05
-4.27304e-05
8.36407e-05
-4.35715e-05
8.92813e-05
-4.39928e-05
9.4856e-05
-4.40128e-05
0.000100313
-4.36643e-05
0.000105612
-4.29888e-05
0.00011072
-4.20316e-05
0.000115616
-4.08389e-05
0.000120283
-3.94551e-05
0.000124712
-3.79212e-05
0.000128898
-3.62744e-05
0.000132838
-3.45475e-05
0.000136535
-3.27689e-05
0.000139992
-3.09627e-05
0.000143215
-2.91493e-05
0.00014621
-2.73455e-05
0.000148985
-2.5565e-05
0.000151547
-2.38188e-05
0.000153906
-2.21156e-05
0.000156069
-2.0462e-05
0.000158046
-1.88631e-05
0.000159844
-1.73224e-05
0.000161472
-1.58423e-05
0.000162939
-1.44244e-05
0.000164253
-1.30691e-05
0.000165421
-1.17765e-05
0.00016645
-1.05459e-05
0.000167348
-9.37643e-06
0.000168123
-8.26662e-06
0.000168779
-7.21485e-06
0.000169325
-6.21926e-06
0.000169765
-5.2778e-06
0.000170106
-4.3883e-06
0.000170353
-3.54849e-06
0.000170512
-2.75603e-06
0.000170588
-2.00851e-06
0.000170586
-1.30352e-06
0.000170511
-6.38606e-07
0.000170367
-1.1648e-08
0.00017016
5.80019e-07
0.000169894
1.13923e-06
0.000169572
1.66839e-06
0.000169199
2.16977e-06
0.000168779
2.64548e-06
0.000168316
3.09751e-06
0.000167815
3.52769e-06
0.00016728
3.93767e-06
0.000166715
4.32891e-06
0.000166124
4.70268e-06
0.000165512
5.06003e-06
0.000164883
5.4018e-06
0.000164242
5.72862e-06
0.000163593
6.04088e-06
0.000162941
6.33877e-06
0.00016229
6.62228e-06
0.000161643
6.89123e-06
0.000161005
7.14527e-06
0.000160378
7.38394e-06
0.000159766
7.60672e-06
0.000159169
7.81307e-06
0.000158591
8.00246e-06
0.00015803
8.17445e-06
0.000157489
8.32875e-06
0.000156965
8.46522e-06
0.000156458
8.58399e-06
8.68576e-06
0.000155966
3.03674e-05
-4.90202e-06
3.12482e-05
-9.63202e-06
3.25331e-05
-1.36382e-05
3.41899e-05
-1.71585e-05
3.62033e-05
-2.03359e-05
3.85777e-05
-2.32892e-05
4.13394e-05
-2.61398e-05
4.45329e-05
-2.89935e-05
4.82082e-05
-3.19135e-05
5.24016e-05
-3.49021e-05
5.71189e-05
-3.78984e-05
6.23275e-05
-4.07939e-05
6.79595e-05
-4.34602e-05
7.39223e-05
-4.57777e-05
8.01125e-05
-4.76553e-05
8.64268e-05
-4.90386e-05
9.27708e-05
-4.99093e-05
9.90632e-05
-5.02788e-05
0.000105237
-5.01803e-05
0.00011124
-4.96608e-05
0.000117033
-4.87746e-05
0.000122586
-4.75782e-05
0.000127881
-4.61269e-05
0.000132906
-4.44724e-05
0.000137653
-4.26619e-05
0.000142123
-4.0737e-05
0.000146317
-3.87341e-05
0.000150239
-3.66841e-05
0.000153896
-3.46131e-05
0.000157297
-3.25429e-05
0.00016045
-3.04912e-05
0.000163364
-2.84723e-05
0.000166049
-2.64976e-05
0.000168516
-2.45758e-05
0.000170775
-2.27136e-05
0.000172834
-2.09159e-05
0.000174704
-1.91861e-05
0.000176394
-1.75263e-05
0.000177914
-1.59376e-05
0.000179271
-1.44204e-05
0.000180474
-1.29742e-05
0.000181532
-1.15981e-05
0.000182452
-1.02908e-05
0.000183241
-9.05051e-06
0.000183906
-7.87536e-06
0.000184455
-6.76314e-06
0.000184893
-5.71152e-06
0.000185227
-4.71807e-06
0.000185463
-3.78029e-06
0.000185606
-2.8956e-06
0.000185662
-2.06145e-06
0.000185637
-1.27526e-06
0.000185535
-5.34491e-07
0.000185363
1.63594e-07
0.000185123
8.21673e-07
0.000184821
1.44251e-06
0.000184462
2.02869e-06
0.00018405
2.58256e-06
0.00018359
3.10627e-06
0.000183086
3.60184e-06
0.000182542
4.07108e-06
0.000181964
4.51566e-06
0.000181355
4.93703e-06
0.00018072
5.33647e-06
0.000180064