/*--------------------------------*- C++ -*----------------------------------*\
  =========                 |
  \\      /  F ield         | OpenFOAM: The Open Source CFD Toolbox
   \\    /   O peration     | Website:  https://openfoam.org
    \\  /    A nd           | Version:  7
     \\/     M anipulation  |
\*---------------------------------------------------------------------------*/
FoamFile
{
    version     2.0;
    format      ascii;
    class       volScalarField;
    location    "3.5";
    object      p;
}
// * * * * * * * * * * * * * * * * * * * * * * * * * * * * * * * * * * * * * //

dimensions      [0 2 -2 0 0 0 0];

internalField   nonuniform List<scalar> 
2790
(
147.386
147.293
147.56
148.132
148.912
149.869
151.001
152.308
153.784
155.425
157.225
159.176
161.269
163.494
165.835
168.27
170.774
173.313
175.845
178.319
180.677
182.855
184.785
186.406
187.665
188.54
188.976
189.031
189.082
189.295
147.183
147.201
147.493
148.061
148.837
149.792
150.92
152.22
153.689
155.322
157.112
159.052
161.135
163.349
165.678
168.104
170.6
173.133
175.663
178.141
180.509
182.704
184.659
186.307
187.592
188.466
188.863
188.918
189.05
189.335
146.984
147.072
147.383
147.941
148.704
149.646
150.759
152.041
153.489
155.097
156.859
158.768
160.816
162.991
165.28
167.662
170.114
172.604
175.096
177.543
179.893
182.086
184.058
185.748
187.099
188.075
188.668
189.023
189.338
189.637
146.76
146.878
147.202
147.751
148.5
149.425
150.518
151.776
153.195
154.77
156.493
158.358
160.357
162.477
164.706
167.023
169.408
171.831
174.258
176.648
178.955
181.127
183.109
184.848
186.303
187.455
188.323
188.994
189.547
190.066
146.499
146.631
146.963
147.505
148.237
149.141
150.209
151.436
152.818
154.349
156.023
157.832
159.768
161.818
163.97
166.206
168.504
170.839
173.18
175.493
177.738
179.873
181.855
183.646
185.216
186.559
187.689
188.652
189.463
190.209
146.198
146.336
146.671
147.202
147.915
148.793
149.828
151.018
152.355
153.835
155.45
157.192
159.053
161.021
163.082
165.22
167.415
169.644
171.88
174.096
176.258
178.335
180.297
182.118
183.781
185.283
186.629
187.835
188.855
189.773
145.855
145.994
146.326
146.845
147.534
148.382
149.381
150.526
151.812
153.232
154.779
156.445
158.22
160.092
162.049
164.075
166.151
168.256
170.369
172.465
174.52
176.511
178.419
180.229
181.934
183.535
185.029
186.408
187.573
188.619
145.471
145.608
145.932
146.434
147.098
147.912
148.869
149.965
151.192
152.545
154.016
155.595
157.274
159.039
160.88
162.779
164.72
166.684
168.651
170.603
172.52
174.387
176.194
177.936
179.615
181.234
182.788
184.261
185.51
186.661
145.044
145.178
145.491
145.974
146.609
147.385
148.296
149.337
150.5
151.779
153.165
154.649
156.222
157.87
159.581
161.339
163.128
164.932
166.731
168.509
170.253
171.951
173.598
175.198
176.76
178.295
179.803
181.273
182.545
183.783
144.578
144.706
145.006
145.467
146.07
146.804
147.665
148.646
149.74
150.938
152.233
153.615
155.071
156.592
158.161
159.765
161.386
163.008
164.614
166.188
167.716
169.19
170.608
171.975
173.308
174.626
175.946
177.284
178.484
179.789
144.073
144.194
144.479
144.915
145.483
146.174
146.981
147.897
148.916
150.029
151.226
152.498
153.831
155.214
156.631
158.067
159.504
160.925
162.312
163.646
164.914
166.104
167.21
168.238
169.202
170.13
171.06
172.058
173.02
174.338
143.53
143.645
143.913
144.322
144.853
145.496
146.246
147.095
148.035
149.057
150.152
151.306
152.509
153.746
155.002
156.258
157.496
158.697
159.839
160.901
161.862
162.705
163.412
163.978
164.403
164.712
164.955
165.262
165.643
166.816
142.954
143.06
143.31
143.69
144.182
144.776
145.466
146.244
147.102
148.029
149.016
150.049
151.116
152.2
153.285
154.352
155.379
156.342
157.218
157.977
158.589
159.023
159.245
159.22
158.916
158.317
157.441
156.447
155.498
156.002
142.344
142.443
142.673
143.022
143.473
144.016
144.644
145.349
146.122
146.951
147.827
148.735
149.661
150.587
151.496
152.365
153.17
153.884
154.475
154.907
155.137
155.114
154.775
154.042
152.819
150.988
148.424
145.119
141.168
139.129
141.705
141.795
142.005
142.322
142.731
143.221
143.785
144.415
145.1
145.83
146.592
147.372
148.154
148.919
149.647
150.314
150.892
151.348
151.644
151.735
151.561
151.051
150.106
148.59
146.311
142.977
138.132
131.112
120.642
108.408
1.91384
1.88879
1.80298
1.68351
1.55627
1.43317
1.31792
1.21108
1.11214
1.02003
0.933457
0.851257
0.772646
0.697356
0.62558
0.557761
0.494303
0.435525
0.382053
0.33529
0.297237
0.26925
0.248763
0.23003
0.208514
0.182352
0.151067
0.115026
0.0744302
0.0295656
1.84995
1.82107
1.74087
1.63132
1.51415
1.39966
1.29143
1.19027
1.09583
1.00719
0.9232
0.842831
0.765447
0.69095
0.619729
0.552368
0.48924
0.430448
0.376497
0.329358
0.292114
0.265941
0.247758
0.230892
0.210396
0.184567
0.153546
0.117545
0.0763617
0.0300038
1.78363
1.74915
1.67232
1.57166
1.46477
1.35954
1.25911
1.16442
1.07522
0.990688
0.909811
0.831686
0.755815
0.682292
0.61177
0.545075
0.48261
0.424216
0.370151
0.322776
0.286208
0.26206
0.24632
0.230971
0.211311
0.185775
0.154821
0.119099
0.0778471
0.0292003
1.72477
1.68473
1.6099
1.51625
1.4182
1.32114
1.2278
1.13909
1.05483
0.974261
0.896461
0.82062
0.746344
0.673876
0.604098
0.538117
0.476486
0.418804
0.364545
0.315574
0.278069
0.257402
0.246519
0.234653
0.21617
0.190462
0.15869
0.12182
0.0794715
0.0290947
1.69185
1.64638
1.5736
1.48436
1.39194
1.2999
1.21088
1.12575
1.0444
0.966166
0.89019
0.815743
0.742505
0.670787
0.601533
0.535933
0.474763
0.417975
0.365716
0.320054
0.284221
0.259166
0.245954
0.23448
0.216902
0.191454
0.159339
0.122287
0.0795209
0.0286874
1.69954
1.64711
1.57556
1.48622
1.39419
1.30218
1.21309
1.12784
1.04639
0.968123
0.892226
0.817999
0.745144
0.673938
0.605189
0.539883
0.478745
0.422082
0.370467
0.326316
0.292097
0.268787
0.253112
0.238941
0.219602
0.192939
0.159701
0.121245
0.0768469
0.0259161
1.75585
1.69485
1.61726
1.5222
1.42352
1.32579
1.23183
1.14258
1.0579
0.977126
0.899458
0.824206
0.75104
0.680096
0.611933
0.547284
0.48675
0.430751
0.379988
0.336201
0.301021
0.275897
0.257897
0.24115
0.220267
0.192792
0.158642
0.118636
0.0727813
0.0239134
1.85945
1.78393
1.69034
1.58075
1.46886
1.36013
1.25731
1.16119
1.07139
0.986973
0.906897
0.830315
0.756744
0.686085
0.618574
0.554692
0.494968
0.439936
0.390374
0.347371
0.311982
0.284751
0.263459
0.243433
0.220257
0.191421
0.155959
0.113724
0.0670154
0.0217195
1.99118
1.89103
1.77184
1.64046
1.51158
1.39018
1.27792
1.17468
1.07979
0.992091
0.910151
0.83286
0.75953
0.689777
0.623405
0.560644
0.501975
0.448031
0.399564
0.357409
0.32216
0.293519
0.269328
0.246066
0.22032
0.189709
0.152584
0.108377
0.06109
0.0195518
2.11518
1.98196
1.83852
1.68602
1.53915
1.40463
1.28397
1.17615
1.07898
0.990173
0.907857
0.8308
0.758316
0.689932
0.625265
0.564083
0.506737
0.454095
0.407102
0.366294
0.331565
0.301913
0.275264
0.248959
0.220517
0.187827
0.148787
0.102702
0.0552289
0.0174832
2.20586
2.04024
1.86871
1.69788
1.53981
1.39837
1.27366
1.16404
1.06694
0.979268
0.898409
0.822984
0.752531
0.686556
0.624222
0.564909
0.508993
0.457773
0.412541
0.373599
0.340014
0.309989
0.281384
0.252246
0.221023
0.18604
0.144953
0.097101
0.049772
0.0155781
2.23554
2.03678
1.84002
1.65445
1.49253
1.35365
1.23391
1.12978
1.03843
0.956184
0.879626
0.807549
0.740459
0.67827
0.619476
0.562653
0.508214
0.458359
0.415208
0.378917
0.347453
0.317897
0.287835
0.255983
0.221839
0.184408
0.141293
0.0918188
0.0446456
0.0137835
2.13069
1.88477
1.69022
1.52306
1.38215
1.26391
1.1618
1.07166
0.992604
0.921056
0.851993
0.784606
0.721854
0.664946
0.611205
0.557511
0.504244
0.455294
0.414483
0.381982
0.354066
0.326036
0.294951
0.260295
0.222919
0.182877
0.137932
0.0872007
0.0402175
0.0122198
1.76476
1.48404
1.36801
1.28412
1.19953
1.12657
1.05882
0.991305
0.930625
0.875749
0.817384
0.754674
0.696237
0.646434
0.600091
0.55036
0.497324
0.448031
0.40962
0.382564
0.360287
0.335105
0.303267
0.265372
0.224156
0.181264
0.134867
0.0834854
0.0367793
0.0109804
0.964935
0.659081
0.797568
0.940209
0.950431
0.951967
0.938036
0.894561
0.852256
0.821968
0.779478
0.719607
0.663639
0.623216
0.588073
0.543257
0.488054
0.435578
0.399181
0.380127
0.366711
0.346085
0.313475
0.271398
0.2253
0.179165
0.131915
0.0808331
0.0345487
0.0101414
141.026
141.107
141.295
141.58
141.945
142.38
142.878
143.43
144.025
144.652
145.297
145.945
146.579
147.178
147.721
148.18
148.524
148.716
148.71
148.45
147.863
146.854
145.29
142.976
139.614
134.706
127.333
115.577
93.3997
33.5356
140.299
140.37
140.536
140.786
141.105
141.483
141.912
142.383
142.885
143.405
143.929
144.442
144.924
145.354
145.707
145.954
146.06
145.984
145.674
145.064
144.071
142.581
140.436
137.404
133.127
127.02
118.051
104.486
84.962
56.5236
139.529
139.59
139.733
139.947
140.219
140.538
140.896
141.284
141.691
142.102
142.504
142.879
143.207
143.466
143.629
143.664
143.535
143.196
142.59
141.648
140.278
138.359
135.727
132.153
127.309
120.743
111.865
100.038
85.8192
69.238
138.719
138.77
138.888
139.066
139.288
139.548
139.834
140.138
140.448
140.75
141.028
141.265
141.44
141.529
141.504
141.333
140.976
140.386
139.504
138.259
136.559
134.286
131.29
127.373
122.289
115.746
107.448
97.0654
84.5374
69.4282
137.869
137.91
138.004
138.144
138.317
138.516
138.73
138.949
139.162
139.354
139.51
139.61
139.634
139.557
139.351
138.982
138.41
137.587
136.456
134.947
132.973
130.429
127.186
123.088
117.954
111.586
103.784
94.306
82.986
70.0316
136.982
137.012
137.082
137.184
137.308
137.445
137.587
137.722
137.839
137.923
137.957
137.924
137.802
137.566
137.187
136.632
135.862
134.83
133.481
131.752
129.564
126.827
123.436
119.273
114.206
108.102
100.839
92.3185
82.5312
71.8905
136.061
136.081
136.126
136.19
136.265
136.341
136.411
136.463
136.485
136.463
136.381
136.219
135.957
135.57
135.03
134.304
133.355
132.14
130.609
128.704
126.358
123.498
120.042
115.903
110.994
105.236
98.5756
91.0016
82.5581
73.5805
135.109
135.118
135.139
135.166
135.192
135.209
135.208
135.178
135.108
134.984
134.789
134.505
134.111
133.583
132.895
132.016
130.911
129.541
127.862
125.823
123.372
120.448
116.993
112.946
108.254
102.879
96.8047
90.0533
82.6742
74.9394
134.129
134.128
134.125
134.115
134.093
134.052
133.982
133.874
133.716
133.493
133.191
132.792
132.276
131.62
130.799
129.785
128.547
127.05
125.255
123.123
120.61
117.673
114.268
110.358
105.913
100.921
95.3856
89.3421
82.8441
76.1186
133.126
133.115
133.088
133.043
132.974
132.877
132.741
132.558
132.315
132
131.598
131.092
130.464
129.692
128.754
127.625
126.276
124.678
122.8
120.609
118.072
115.158
111.839
108.093
103.907
99.2825
94.2371
88.8103
83.0549
77.1556
132.104
132.083
132.034
131.954
131.841
131.689
131.491
131.236
130.914
130.513
130.019
129.416
128.686
127.813
126.773
125.547
124.109
122.435
120.501
118.28
115.749
112.888
109.678
106.109
102.181
97.9032
93.2985
88.4065
83.2752
78.0526
131.068
131.038
130.967
130.854
130.699
130.496
130.238
129.916
129.521
129.04
128.462
127.771
126.953
125.99
124.865
123.56
122.053
120.326
118.359
116.133
113.632
110.842
107.756
104.37
100.691
96.7327
92.5203
88.0903
83.4845
78.8218
130.023
129.985
129.893
129.749
129.554
129.303
128.99
128.606
128.143
127.59
126.936
126.167
125.272
124.234
123.038
121.67
120.113
118.352
116.372
114.16
111.705
109.002
106.046
102.841
99.3973
95.7305
91.8655
87.8346
83.6736
79.4786
128.976
128.929
128.818
128.645
128.413
128.117
127.753
127.313
126.788
126.17
125.448
124.613
123.651
122.55
121.299
119.883
118.292
116.513
114.536
112.353
109.957
107.347
104.524
101.494
98.2685
94.8651
91.3063
87.6206
83.838
80.0365
127.931
127.877
127.748
127.549
127.282
126.945
126.535
126.043
125.463
124.788
124.008
123.114
122.096
120.945
119.65
118.201
116.589
114.806
112.845
110.702
108.373
105.86
103.167
100.302
97.2784
94.1114
90.8223
87.4353
83.976
80.5074
126.897
126.835
126.69
126.466
126.168
125.794
125.342
124.804
124.176
123.45
122.62
121.677
120.614
119.423
118.096
116.625
115.005
113.229
111.293
109.197
106.939
104.524
101.956
99.2461
96.4056
93.45
90.3979
87.2699
84.0875
80.9023
125.879
125.811
125.651
125.404
125.078
124.671
124.181
123.603
122.932
122.163
121.291
120.308
119.209
117.988
116.639
115.156
113.536
111.775
109.872
107.827
105.643
103.323
100.875
98.3073
95.6329
92.8656
90.0214
87.1183
84.174
81.2311
124.884
124.81
124.637
124.37
124.018
123.582
123.06
122.446
121.739
120.934
120.026
119.012
117.885
116.642
115.279
113.793
112.181
110.442
108.576
106.585
104.473
102.245
99.9077
97.4713
94.9465
92.3462
89.6845
86.9766
84.2376
81.5024
123.919
123.84
123.655
123.371
122.997
122.535
121.984
121.341
120.603
119.768
118.832
117.792
116.645
115.387
114.018
112.534
110.936
109.223
107.397
105.461
103.419
101.278
99.0437
96.7262
94.3354
91.8829
89.381
86.8426
84.2807
81.7242
122.993
122.909
122.714
122.414
122.021
121.537
120.961
120.293
119.529
118.669
117.711
116.652
115.491
114.225
112.855
111.379
109.799
108.115
106.33
104.448
102.473
100.412
98.2726
96.0623
93.791
91.4687
89.1064
86.7153
84.3063
81.9034
122.111
122.024
121.819
121.506
121.096
120.593
119.998
119.308
118.524
117.644
116.669
115.596
114.426
113.157
111.791
110.327
108.767
107.113
105.369
103.538
101.627
99.6404
97.5862
95.472
93.3064
91.0986
88.858
86.5944
84.3172
82.0464
121.283
121.193
120.98
120.656
120.231
119.712
119.1
118.393
117.592
116.698
115.71
114.628
113.453
112.185
110.825
109.375
107.837
106.213
104.509
102.727
100.874
98.9555
96.9781
94.9493
92.8768
90.7689
88.634
86.4805
84.3167
82.1592
120.517
120.423
120.204
119.869
119.433
118.901
118.274
117.553
116.74
115.834
114.837
113.75
112.573
111.309
109.958
108.523
107.007
105.414
103.746
102.01
100.21
98.3524
96.4432
94.4895
92.4983
90.4771
88.4332
86.3743
84.3075
82.2468
119.819
119.723
119.498
119.155
118.708
118.165
117.527
116.796
115.972
115.058
114.055
112.966
111.79
110.531
109.191
107.772
106.278
104.712
103.079
101.384
99.6318
97.8279
95.9785
94.0901
92.1691
90.2223
88.2564
86.2781
84.2937
82.315
119.2
119.101
118.87
118.52
118.065
117.512
116.865
116.125
115.295
114.375
113.369
112.278
111.105
109.853
108.523
107.12
105.646
104.106
102.505
100.846
99.1352
97.3781
95.5803
93.7477
91.8865
90.0027
88.1024
86.1917
84.2763
82.366
118.668
118.566
118.33
117.972
117.51
116.95
116.297
115.55
114.714
113.791
112.783
111.693
110.524
109.278
107.959
106.57
105.115
103.598
102.024
100.397
98.7217
97.0043
95.25
93.4643
91.6529
89.8215
87.9757
86.1209
84.2626
82.409
118.233
118.128
117.884
117.518
117.049
116.484
115.824
115.073
114.234
113.308
112.3
111.211
110.046
108.807
107.498
106.122
104.683
103.185
101.633
100.032
98.3866
96.7016
94.9825
93.2345
91.4631
89.6735
87.871
86.0605
84.247
82.4374
117.907
117.796
117.543
117.171
116.697
116.127
115.464
114.709
113.866
112.94
111.931
110.845
109.683
108.45
107.149
105.783
104.357
102.876
101.342
99.7616
98.1391
96.4796
94.788
93.0695
91.3292
89.5721
87.8031
86.0272
84.2489
82.4744
117.705
117.57
117.3
116.922
116.446
115.874
115.207
114.451
113.608
112.681
111.673
110.589
109.431
108.202
106.907
105.549
104.133
102.662
101.141
99.5745
97.9678
96.3254
94.6522
92.9533
91.2335
89.4976
87.7505
85.9967
84.2406
82.4872
117.687
117.488
117.19
116.805
116.326
115.75
115.081
114.323
113.479
112.552
111.545
110.463
109.307
108.082
106.792
105.439
104.03
102.566
101.054
99.4971
97.9007
96.2694
94.608
92.9215
91.2145
89.4919
87.7582
86.018
84.2756
82.5351
-50.5502
-30.3654
-10.954
36.2292
28.9435
17.23
51.8265
39.8225
28.7231
53.2
42.813
34.8131
57.5133
49.2538
42.5265
61.8849
54.9981
49.1269
65.139
59.273
54.2372
67.7167
62.7026
58.4024
69.8891
65.5644
61.8617
71.7223
67.9489
64.7259
73.2632
69.9366
67.1023
74.561
71.601
69.0841
75.6561
72.9997
70.7445
76.5805
74.1781
72.1406
77.3606
75.1724
73.3178
78.0182
76.0121
74.3122
78.5713
76.7209
75.1529
79.0352
77.3185
75.8632
79.4227
77.8212
76.4626
79.7449
78.2427
76.9672
80.011
78.5947
77.3905
80.2299
78.8874
77.7444
80.4081
79.1289
78.0382
80.5537
79.3284
78.2817
80.6691
79.4891
78.4795
80.7662
79.6234
78.6439
80.8362
79.7233
78.7685
80.9077
79.8176
78.88
80.9409
79.867
78.9434
81.0097
79.9499
79.0328
-1.99913
-1.83983
-0.418173
0.639032
0.708201
0.75428
0.801174
0.773177
0.749132
0.769507
0.754908
0.686362
0.621797
0.59104
0.5747
0.537339
0.476093
0.415783
0.3809
0.374361
0.375183
0.361341
0.327208
0.279009
0.226181
0.176013
0.128758
0.0794806
0.0338171
0.00976121
3.53904
0.421105
1.54034
1.22495
0.140533
0.187105
0.670046
0.73863
0.689245
0.752284
0.7449
0.630618
0.540537
0.536536
0.570426
0.54853
0.470866
0.390694
0.352432
0.36315
0.386834
0.382808
0.345151
0.287582
0.225335
0.170079
0.124403
0.0797637
0.0351024
0.00988344
14.5124
6.06807
3.18669
1.01597
0.509254
1.3116
1.54504
0.668933
0.177467
0.414822
0.748476
0.639413
0.501927
0.529216
0.614235
0.5738
0.449505
0.328198
0.283238
0.33141
0.406196
0.419771
0.373087
0.300602
0.225012
0.162591
0.119896
0.0838564
0.0402526
0.0104464
24.1133
14.2678
8.43784
4.70429
2.81153
2.02862
1.08926
0.417321
0.410463
1.40765
1.5661
0.58719
0.138199
0.174009
0.477779
0.620242
0.470018
0.293093
0.243611
0.354353
0.474965
0.474309
0.402344
0.306653
0.213309
0.141311
0.104368
0.0864574
0.0478533
0.0106379
33.2207
23.4862
16.1801
10.8733
7.19633
4.69544
2.88663
1.80598
1.35592
1.41015
0.962648
0.426331
0.165014
0.521938
1.16593
1.031
0.444797
0.0922792
-0.0234972
0.113692
0.445118
0.549499
0.451231
0.326493
0.214193
0.132445
0.1045
0.117109
0.0836585
0.0134347
41.1505
32.2411
24.3608
17.9287
12.9942
9.32831
6.63516
4.71714
3.40146
2.51477
1.73711
1.12512
0.747279
0.760036
0.859017
0.752902
0.406052
0.0781528
0.0154103
0.450433
0.852301
0.722471
0.468718
0.295359
0.168069
0.0728195
0.0414102
0.0937865
0.109169
0.00386734
47.6173
39.8229
32.0553
25.1687
19.5371
15.0592
11.5195
8.75029
6.62973
5.03512
3.7901
2.79272
2.06093
1.63118
1.36676
1.10404
0.724029
0.367715
0.256051
0.445077
0.597724
0.628699
0.512038
0.363601
0.225368
0.110705
0.0789003
0.21145
0.303487
0.00785147
52.8853
46.161
38.9095
32.0819
26.1947
21.239
17.088
13.6517
10.8589
8.61941
6.80648
5.32693
4.16529
3.3118
2.68071
2.13325
1.58609
1.12264
0.869605
0.830587
0.851043
0.820042
0.666523
0.472924
0.302489
0.175864
0.129664
0.190396
0.247611
-0.070083
57.1836
51.3705
44.7895
38.317
32.4962
27.3778
22.899
19.0241
15.7227
12.9419
10.6057
8.65055
7.04327
5.75246
4.71071
3.82466
3.04135
2.39196
1.93344
1.66156
1.48443
1.29404
1.04354
0.78018
0.552183
0.378651
0.277291
0.243077
0.176896
-0.311314
60.6913
55.6252
49.7238
43.7388
38.1822
33.1316
28.5585
24.4589
20.8342
17.6664
14.9182
12.55
10.5291
8.82233
7.38113
6.14675
5.0798
4.18055
3.4665
2.92654
2.49909
2.1086
1.71922
1.34663
1.01781
0.746148
0.535183
0.359589
0.115489
-0.52657
63.572
59.1127
53.8324
48.3629
43.1636
38.3173
33.8115
29.6578
25.8773
22.4756
19.4408
16.7528
14.3894
12.326
10.5303
8.96426
7.59754
6.41811
5.42406
4.60013
3.90452
3.28611
2.713
2.18266
1.7058
1.28764
0.920621
0.568866
0.142066
-0.605863
65.9578
61.9934
57.2542
52.2732
47.4551
42.8783
38.5358
34.4448
30.6351
27.1255
23.9198
21.0125
18.3936
16.0487
13.9581
12.0978
10.4458
8.98779
7.71426
6.60908
5.64261
4.77869
3.98975
3.26498
2.60385
2.00351
1.44953
0.905367
0.30279
-0.533898
67.9476
64.3909
60.114
55.5725
51.1225
46.8343
42.7019
38.7423
34.9873
31.4616
28.178
25.1409
22.3494
19.798
17.4767
15.3718
13.4687
11.7553
10.2206
8.84986
7.62133
6.50875
5.48935
4.54924
3.68095
2.87584
2.11689
1.37231
0.594788
-0.336512
69.6164
66.399
62.5152
58.3597
54.248
50.2421
46.3345
42.5399
38.8887
35.4072
32.1127
29.0151
26.1198
23.4277
20.9361
18.6385
16.5267
14.5919
12.8247
11.2132
9.74113
8.38927
7.13922
5.97672
4.89095
3.87034
2.89804
1.94865
0.991096
-0.0530367
71.0217
68.0892
64.5401
60.7204
56.912
53.1694
49.4834
45.8652
42.3425
38.941
35.6793
32.5703
29.6231
26.843
24.232
21.7891
19.5105
17.3913
15.4245
13.6015
11.9102
10.3364
8.8656
7.48455
6.18153
4.94423
3.75731
2.60116
1.45574
0.274745
72.2084
69.5166
66.2532
62.7248
59.1851
55.6822
52.2053
48.7623
45.3773
42.0743
38.8719
35.784
32.8216
29.9928
27.3027
24.7537
22.3458
20.0768
17.9429
15.938
14.0536
12.2793
10.6037
9.01524
7.50271
6.05426
4.65638
3.29377
1.95282
0.610451
73.2119
70.7244
67.7059
64.43
61.1267
57.8391
54.5549
51.2787
48.0314
44.8348
41.7062
38.6597
35.707
32.8576
30.1187
27.4948
24.9886
22.6002
20.3283
18.1691
16.1171
14.1646
12.3029
10.5221
8.81228
7.16242
5.5606
3.99421
2.45252
0.928026
74.0608
71.7473
68.9391
65.882
62.7862
59.6903
56.5809
53.46
50.3452
47.2558
44.2078
41.2146
38.2879
35.4376
32.6721
29.9974
27.4177
24.9353
22.5504
20.2615
18.0652
15.956
13.9273
11.971
10.0782
8.239
6.44256
4.67757
2.93375
1.2129
74.7783
72.6134
69.986
67.1186
64.2042
61.2779
58.3255
55.3468
52.3564
49.3711
46.4054
43.4717
40.5809
37.7433
34.9674
32.2601
29.6268
27.0709
24.5943
22.1969
19.877
17.631
15.4538
13.3389
11.2783
9.263
7.28288
5.32692
3.3839
1.46014
75.3838
73.3456
70.8737
68.1706
65.4145
62.6376
59.8251
56.975
54.0992
51.2124
48.3274
45.4552
42.6062
39.79
37.0152
34.2892
31.6178
29.0053
26.4547
23.967
21.5419
19.1771
16.8687
14.6114
12.3983
10.2208
8.06918
5.93213
3.79696
1.67132
75.8933
73.9631
71.6249
69.0638
66.4452
63.7991
61.1104
58.3753
55.6037
52.8082
49.9999
47.1887
44.3839
41.5946
38.829
36.0944
33.397
30.7416
28.1317
25.5694
23.0552
20.5877
18.1643
15.7803
13.4296
11.1041
8.79406
6.48776
4.17099
1.85088
76.3205
74.4823
72.2585
69.8197
67.3202
64.7879
62.2077
59.5746
56.8964
54.1841
51.4472
48.6944
45.934
43.1743
40.4231
37.6873
34.9732
32.2858
29.629
27.0054
24.4161
21.8606
19.3369
16.8411
14.3675
11.9083
9.45379
6.99168
4.50657
2.00406
76.6765
74.9161
72.79
70.4559
68.0587
65.6247
63.1388
60.595
57.9996
55.3618
52.69
49.9916
47.274
44.5446
41.8107
39.0788
36.3549
33.6442
30.9506
28.277
25.6251
22.9948
20.3846
17.791
15.2087
12.6303
10.0457
7.44246
4.80416
2.1345
76.9722
75.2773
73.2338
70.9886
68.6785
66.3285
63.9236
61.4571
58.9338
56.3617
53.7479
51.0989
48.4212
45.7213
43.0059
40.281
37.5525
34.8251
32.103
29.3892
26.6855
23.9923
21.3082
18.6302
15.9532
13.2699
10.5702
7.84122
5.0661
2.24611
77.2138
75.5732
73.5987
71.428
69.1911
66.9118
64.5754
62.1746
59.713
57.1976
54.6344
52.029
49.3872
46.7147
44.0175
41.3013
38.5714
35.8325
33.0886
30.3428
27.5968
24.8513
22.1051
19.3554
16.5973
13.8234
11.0238
8.18513
5.29044
2.33857
77.4131
75.8166
73.8988
71.7894
69.6126
67.3916
65.112
62.7657
60.3557
57.8879
55.3676
52.7996
50.189
47.5409
44.8606
42.1535
39.4243
36.6777
33.9175
31.1465
28.3666
25.5786
22.7813
19.9721
17.1461
14.2959
11.4115
8.47961
5.4829
2.4171
77.5668
76.0052
74.1322
72.0713
69.9424
67.7678
65.5334
63.2309
60.8623
58.4329
55.9474
53.4101
50.8252
48.1975
45.5319
42.8331
40.1057
37.354
34.5816
31.7914
28.9852
26.1636
23.3256
20.4686
17.5877
14.6756
11.7221
8.71382
5.63356
2.47469
77.6973
76.1613
74.3224
72.2984
70.2055
68.0661
65.866
63.5967
61.2597
58.8596
56.4009
53.8871
51.3223
48.7106
46.0565
43.3646
40.6391
37.8841
35.103
32.2986
29.4726
26.6256
23.7568
20.8632
17.9401
14.9802
11.973
8.90502
5.75887
2.52401
77.7774
76.2576
74.441
72.442
70.3736
68.2576
66.0804
63.8334
61.5175
59.1373
56.6965
54.1986
51.6473
49.0465
46.4005
43.7134
40.9895
38.2324
35.4457
32.632
29.7928
26.9289
24.0393
21.121
18.1694
15.1767
12.1327
9.02322
5.83095
2.54365
77.8661
76.3474
74.543
72.5591
70.5044
68.401
66.2359
64.0006
61.6958
59.3256
56.8939
54.4038
51.859
49.2632
46.6204
43.9349
41.2107
38.4516
35.6607
32.8409
29.9937
27.1197
24.2179
21.2856
18.3177
15.3067
12.2418
9.10805
5.88552
2.55021
)
;

boundaryField
{
    inlet
    {
        type            zeroGradient;
    }
    outlet
    {
        type            fixedValue;
        value           uniform 0;
    }
    flap
    {
        type            zeroGradient;
    }
    upperWall
    {
        type            zeroGradient;
    }
    lowerWall
    {
        type            zeroGradient;
    }
    frontAndBack
    {
        type            empty;
    }
}


// ************************************************************************* //
