/*--------------------------------*- C++ -*----------------------------------*\
  =========                 |
  \\      /  F ield         | OpenFOAM: The Open Source CFD Toolbox
   \\    /   O peration     | Website:  https://openfoam.org
    \\  /    A nd           | Version:  7
     \\/     M anipulation  |
\*---------------------------------------------------------------------------*/
FoamFile
{
    version     2.0;
    format      ascii;
    class       surfaceScalarField;
    location    "3.5";
    object      phi;
}
// * * * * * * * * * * * * * * * * * * * * * * * * * * * * * * * * * * * * * //

dimensions      [0 3 -1 0 0 0 0];

internalField   nonuniform List<scalar> 
5457
(
0.198418
0.00158237
0.19648
0.00193735
0.194192
0.00228806
0.191509
0.00268355
0.188428
0.00308116
0.184951
0.00347672
0.181072
0.00387851
0.176778
0.00429393
0.17205
0.00472812
0.166865
0.00518509
0.161197
0.00566835
0.155016
0.00618084
0.148291
0.00672474
0.14099
0.00730107
0.133081
0.0079092
0.124535
0.00854612
0.115329
0.00920554
0.105452
0.00987682
0.0949087
0.0105437
0.0837255
0.0111832
0.0719612
0.0117644
0.0597131
0.0122481
0.0471245
0.0125886
0.0343842
0.0127402
0.0216891
0.0126952
0.00903883
0.0126503
-0.00291536
0.0119542
-0.00847181
0.00555645
-0.00804288
-0.000428934
-0.00804288
0.199928
0.00165421
0.199176
0.00268978
0.197965
0.00349898
0.196332
0.00431671
0.194272
0.00514118
0.191782
0.00596675
0.188855
0.00680544
0.185478
0.00767073
0.181633
0.00857294
0.177298
0.00952038
0.172446
0.0105203
0.167048
0.011579
0.161071
0.0127013
0.154482
0.0138898
0.147248
0.015144
0.139335
0.0164589
0.130717
0.0178231
0.121378
0.0192166
0.111313
0.0206082
0.100543
0.0219527
0.0891193
0.0231886
0.0771319
0.0242356
0.064726
0.0249945
0.0521185
0.0253477
0.039658
0.0251557
0.0281075
0.0242007
0.0185967
0.0214649
0.00879875
0.0153545
0.00118426
0.00718555
-0.00685862
0.199781
0.00187364
0.199087
0.00338361
0.197946
0.0046399
0.196409
0.00585331
0.194483
0.00706729
0.192164
0.00828576
0.189447
0.00952283
0.186321
0.0107961
0.182773
0.0121208
0.178785
0.0135091
0.174333
0.0149723
0.169392
0.0165199
0.163933
0.0181597
0.157927
0.0198967
0.151339
0.021732
0.144137
0.0236604
0.136292
0.0256683
0.127778
0.0277302
0.118582
0.0298047
0.108704
0.0318303
0.0981727
0.0337201
0.0870506
0.0353576
0.0754539
0.0365911
0.0635768
0.0372249
0.0517347
0.0369977
0.0403992
0.0355363
0.0297406
0.0321235
0.0191672
0.0259279
0.00959832
0.0167545
0.0027397
0.199703
0.00217057
0.199008
0.00407891
0.197887
0.00576041
0.196376
0.0073642
0.194488
0.00895538
0.192222
0.0105517
0.189575
0.0121705
0.186539
0.0138321
0.183104
0.0155551
0.179258
0.0173555
0.174983
0.0192472
0.170261
0.0212424
0.165069
0.0233512
0.159385
0.0255807
0.153184
0.0279334
0.146439
0.0304053
0.139125
0.0329823
0.131218
0.0356371
0.122699
0.0383236
0.113558
0.0409709
0.103802
0.0434768
0.0934593
0.0457
0.0825981
0.0474522
0.0713353
0.0484877
0.0598432
0.0484898
0.0483189
0.0470606
0.0368126
0.0436298
0.025189
0.0375515
0.0133361
0.0286073
0.0160758
0.199667
0.00250315
0.198964
0.00478217
0.197863
0.00686173
0.196381
0.00884588
0.194532
0.0108041
0.192318
0.0127664
0.189734
0.0147543
0.186775
0.0167906
0.183434
0.0188968
0.179698
0.0210912
0.175555
0.02339
0.17099
0.0258073
0.165987
0.0283548
0.160527
0.0310407
0.154591
0.0338687
0.148161
0.0368355
0.141216
0.0399278
0.133735
0.0431183
0.125698
0.0463601
0.117089
0.0495799
0.107896
0.05267
0.098117
0.0554788
0.0877672
0.057802
0.0768812
0.0593737
0.0655111
0.0598599
0.0537101
0.0588616
0.0414557
0.0558842
0.0285889
0.0504182
0.014853
0.0423433
0.0309288
0.199653
0.00285035
0.198949
0.00548623
0.197871
0.00793967
0.196427
0.0102901
0.194627
0.0126041
0.192473
0.0149198
0.189964
0.0172639
0.187093
0.0196614
0.183853
0.022136
0.180236
0.0247084
0.17623
0.0273964
0.171821
0.0302158
0.166997
0.0331794
0.161741
0.0362964
0.156038
0.0395714
0.149872
0.0430018
0.143224
0.0465758
0.136075
0.0502674
0.128403
0.0540321
0.120184
0.0577992
0.11139
0.061464
0.101991
0.0648773
0.0919571
0.067836
0.0812564
0.0700744
0.0698566
0.0712597
0.057719
0.0709992
0.0447624
0.0688408
0.0308504
0.0643302
0.0158738
0.0573199
0.0468026
0.19965
0.0032003
0.198954
0.00618222
0.197904
0.0089893
0.196505
0.0116898
0.194762
0.0143464
0.19268
0.0170019
0.190257
0.0196875
0.187487
0.022431
0.184365
0.0252581
0.180882
0.0281912
0.177028
0.0312503
0.172792
0.0344523
0.16816
0.0378114
0.163119
0.0413378
0.157653
0.0450374
0.151745
0.0489091
0.145378
0.052943
0.138529
0.0571166
0.131171
0.06139
0.123271
0.0656997
0.114784
0.0699504
0.105657
0.0740049
0.0958191
0.0776736
0.0851887
0.0807048
0.0736708
0.0827777
0.0611639
0.0835061
0.0475573
0.0824474
0.0327601
0.0791274
0.0167837
0.0732963
0.0635863
0.199655
0.00354565
0.198975
0.00686234
0.197959
0.0100051
0.19661
0.0130385
0.194934
0.0160224
0.192933
0.0190024
0.190607
0.0220136
0.187952
0.0250863
0.184962
0.028248
0.18163
0.0315233
0.177947
0.0349336
0.173901
0.0384976
0.169482
0.0422308
0.164675
0.0461451
0.159464
0.0502481
0.153832
0.0545412
0.147757
0.0590179
0.141213
0.0636609
0.134165
0.0684378
0.126569
0.0732961
0.118364
0.0781551
0.109471
0.0828972
0.099789
0.087356
0.0891901
0.0913037
0.0775281
0.0944397
0.0646502
0.0963839
0.05042
0.0966777
0.0347701
0.0947773
0.0177909
0.0902755
0.0813772
0.199664
0.00388148
0.199006
0.00752016
0.19803
0.0109813
0.196739
0.01433
0.195137
0.0176245
0.193227
0.0209123
0.191009
0.0242315
0.18848
0.0276149
0.185636
0.031092
0.182471
0.034689
0.178975
0.038429
0.17514
0.0423324
0.170955
0.0464165
0.166404
0.0506953
0.161473
0.0551789
0.156142
0.0598723
0.150386
0.0647739
0.144174
0.0698734
0.137463
0.0751489
0.130197
0.0805621
0.1223
0.0860523
0.113669
0.0915278
0.104171
0.096854
0.0936371
0.101838
0.0818682
0.106209
0.068653
0.109599
0.0538053
0.111525
0.0372392
0.111343
0.0190848
0.10843
0.100462
0.199677
0.00420427
0.199047
0.00815042
0.198116
0.0119127
0.196887
0.0155583
0.195366
0.0191455
0.193556
0.0227229
0.191456
0.0263313
0.189065
0.0300057
0.18638
0.0337772
0.183395
0.0376738
0.180104
0.0417202
0.176498
0.0459386
0.172566
0.0503481
0.168296
0.0549653
0.163671
0.0598036
0.158671
0.0648723
0.153269
0.0701762
0.147429
0.0757139
0.141102
0.0814761
0.134221
0.0874422
0.126698
0.0935759
0.118408
0.099818
0.109187
0.106075
0.0988232
0.112201
0.0870568
0.117975
0.0735945
0.123061
0.058153
0.126967
0.0405556
0.128941
0.0209035
0.128082
0.121365
0.199693
0.00451136
0.199095
0.00874883
0.198213
0.0127943
0.197053
0.016718
0.19562
0.0205789
0.193916
0.0244268
0.191943
0.0283044
0.1897
0.0322487
0.187185
0.0362923
0.184394
0.0404648
0.181322
0.0447924
0.177961
0.049299
0.174303
0.054006
0.170336
0.0589325
0.166044
0.0640955
0.161407
0.0695094
0.156397
0.0751862
0.150976
0.0811346
0.145093
0.0873595
0.138674
0.0938607
0.13162
0.10063
0.123792
0.107646
0.114999
0.114868
0.104987
0.122213
0.0934243
0.129538
0.0799041
0.136582
0.0639742
0.142897
0.0452403
0.147675
0.023615
0.149707
0.14498
0.199711
0.00480068
0.199148
0.00931187
0.19832
0.013622
0.197234
0.0178043
0.195893
0.0219191
0.194303
0.0260173
0.192464
0.030143
0.190378
0.0343349
0.188043
0.0386271
0.185458
0.0430504
0.182618
0.0476325
0.179518
0.0523988
0.176151
0.0573727
0.172508
0.062576
0.168574
0.0680293
0.164331
0.0737524
0.159753
0.0797644
0.154803
0.0860846
0.149429
0.0927328
0.14356
0.0997299
0.137092
0.107098
0.129881
0.114858
0.121719
0.123029
0.11232
0.131613
0.10128
0.140578
0.0880533
0.149808
0.0719319
0.159018
0.0520946
0.167512
0.0278911
0.173911
0.172872
0.19973
0.00507063
0.199205
0.00983668
0.198435
0.014392
0.197426
0.0188131
0.196184
0.0231612
0.194713
0.0274886
0.193016
0.0318405
0.191094
0.0362569
0.188948
0.0407731
0.186577
0.0454209
0.18398
0.0502292
0.181154
0.0552247
0.178094
0.0604326
0.174793
0.0658772
0.17124
0.0715823
0.16742
0.0775723
0.163311
0.0838733
0.158882
0.0905143
0.154085
0.097529
0.148857
0.104958
0.143102
0.112853
0.136682
0.121278
0.129396
0.130315
0.120948
0.140061
0.110891
0.150634
0.0985537
0.162145
0.0829139
0.174658
0.0624488
0.187977
0.0351345
0.201225
0.208006
0.199751
0.00531994
0.199266
0.010321
0.198557
0.0151015
0.197629
0.0197407
0.196489
0.0243012
0.195142
0.028836
0.193591
0.0333915
0.191839
0.0380085
0.189889
0.0427233
0.187742
0.0475683
0.185398
0.0525733
0.182856
0.0577662
0.180116
0.0631733
0.177172
0.0688207
0.174019
0.074735
0.170647
0.0809444
0.16704
0.0874803
0.163175
0.0943796
0.159017
0.101687
0.154515
0.10946
0.149594
0.117774
0.144144
0.126729
0.137996
0.136462
0.130891
0.147166
0.122416
0.15911
0.111874
0.172687
0.0980354
0.188497
0.0785584
0.207454
0.0486828
0.231101
0.256689
0.199772
0.00554766
0.19933
0.0107629
0.198684
0.015748
0.19784
0.0205843
0.196806
0.0253357
0.195586
0.0300558
0.194186
0.0347917
0.192609
0.039585
0.19086
0.0444722
0.188942
0.0494865
0.186857
0.054658
0.184608
0.0600151
0.182197
0.065585
0.179622
0.0713948
0.176885
0.0774728
0.17398
0.0838495
0.1709
0.0905598
0.167634
0.0976454
0.164163
0.105158
0.160457
0.113166
0.156474
0.121758
0.152146
0.131056
0.147374
0.141234
0.142
0.15254
0.135761
0.165349
0.128187
0.180262
0.118336
0.198347
0.103958
0.221832
0.0777325
0.257326
0.334421
0.00440467
-0.00440467
0.00854986
-0.00414519
0.0120283
-0.00347844
0.0148773
-0.00284901
0.0172086
-0.00233125
0.0191271
-0.00191856
0.0207226
-0.00159543
0.0220703
-0.00134772
0.0232315
-0.00116122
0.0242532
-0.00102167
0.0251684
-0.000915203
0.0259971
-0.000828705
0.0267478
-0.000750726
0.0274212
-0.000673416
0.0280154
-0.000594139
0.028529
-0.000513676
0.0289582
-0.000429209
0.0292857
-0.00032748
0.0294769
-0.000191184
0.0295063
-2.94191e-05
0.0293647
0.000141629
0.0291201
0.000244591
0.0288546
0.000265494
0.0286141
0.000240527
0.0284236
0.000190516
0.0283047
0.000118866
0.0282882
1.65039e-05
0.0284247
-0.00013653
0.028706
-0.000281277
-0.000357491
0.00386433
-0.008269
0.00761084
-0.0078917
0.0108194
-0.00668698
0.013511
-0.00554069
0.0157839
-0.00460414
0.0177272
-0.00386184
0.0194143
-0.00328246
0.0209049
-0.00283836
0.0222471
-0.0025034
0.0234779
-0.00225246
0.0246241
-0.00206146
0.0257028
-0.00190742
0.0267218
-0.00176967
0.0276819
-0.00163349
0.0285819
-0.0014942
0.0294245
-0.00135623
0.0302162
-0.0012209
0.0309585
-0.00106981
0.0316331
-0.000865766
0.0321955
-0.000591824
0.0326308
-0.000293678
0.0329691
-9.37632e-05
0.0332803
-4.57007e-05
0.0335986
-7.77593e-05
0.033935
-0.000145877
0.0342857
-0.000231771
0.0346392
-0.000337003
0.0349812
-0.000478526
0.0353337
-0.000633807
-0.000667508
0.00310153
-0.0113705
0.00603247
-0.0108226
0.00850153
-0.00915603
0.0105655
-0.00760464
0.0123098
-0.00634842
0.013803
-0.00535509
0.0151012
-0.00458066
0.0162489
-0.00398606
0.0172815
-0.00353599
0.0182268
-0.00319782
0.0191059
-0.00294048
0.019932
-0.0027336
0.0207109
-0.00254859
0.021441
-0.00236356
0.0221178
-0.00217099
0.0227422
-0.00198065
0.0233257
-0.00180441
0.0238823
-0.00162637
0.0244054
-0.00138883
0.0248592
-0.00104564
0.0252133
-0.000647834
0.0254816
-0.000361998
0.0257167
-0.000280848
0.0259381
-0.000299094
0.0261469
-0.000354695
0.0263145
-0.000399432
0.0264136
-0.000436038
0.026428
-0.000492944
0.0263739
-0.000579701
-0.000704441
0.0022852
-0.0136557
0.0042621
-0.0127995
0.00583637
-0.0107303
0.00712667
-0.00889493
0.00819891
-0.00742066
0.00909792
-0.0062541
0.0098603
-0.00534305
0.0105144
-0.00464014
0.0110827
-0.00410434
0.0115838
-0.00369891
0.0120326
-0.00338924
0.0124402
-0.00314125
0.0128127
-0.00292104
0.0131484
-0.00269928
0.0134385
-0.00246106
0.0136733
-0.00221542
0.0138584
-0.00198958
0.0140241
-0.00179199
0.0141982
-0.00156294
0.014348
-0.00119546
0.0142925
-0.000592306
0.013883
4.74945e-05
0.0132312
0.000370896
0.0125257
0.000406406
0.0118857
0.000285313
0.0113666
0.000119647
0.0109561
-2.55118e-05
0.010654
-0.00019085
0.0104919
-0.000417609
-0.000761981
0.00135576
-0.0150115
0.0022739
-0.0137177
0.00287296
-0.0113294
0.0032962
-0.00931818
0.00358993
-0.00771439
0.00377801
-0.00644217
0.00388027
-0.00544531
0.00391261
-0.00467248
0.00388805
-0.00407978
0.00381736
-0.00362822
0.00371041
-0.00328228
0.0035766
-0.00300745
0.00342473
-0.00276916
0.00326017
-0.00253472
0.00307897
-0.00227986
0.00285828
-0.00199473
0.00255398
-0.00168528
0.0021247
-0.00136271
0.00157413
-0.00101238
0.000955251
-0.000576581
0.000420992
-5.80474e-05
9.1505e-05
0.000376981
-0.000199588
0.000661989
-0.000483244
0.000690062
-0.000742125
0.000544194
-0.00092941
0.000306932
-0.00101477
5.98477e-05
-0.00103153
-0.000174089
-0.00101136
-0.000437784
-0.000775903
0.000277823
-0.0152893
7.57941e-05
-0.0135156
-0.000353742
-0.0108998
-0.000843994
-0.00882793
-0.00141117
-0.00714722
-0.00202421
-0.00582913
-0.00266805
-0.00480146
-0.00332974
-0.00401079
-0.0040007
-0.00340882
-0.00467493
-0.00295399
-0.00534638
-0.00261084
-0.00600715
-0.00234668
-0.00664708
-0.00212923
-0.0072542
-0.0019276
-0.00781675
-0.00171731
-0.00832569
-0.00148579
-0.0087797
-0.00123127
-0.00918753
-0.000954877
-0.0095514
-0.000648511
-0.00983919
-0.000288791
-0.00999563
9.84004e-05
-0.0100728
0.000454117
-0.0101131
0.000702278
-0.0101764
0.00075337
-0.0102695
0.000637312
-0.0103819
0.000419375
-0.0104924
0.000170353
-0.010583
-8.35099e-05
-0.0106375
-0.000383302
-0.000732952
-0.000870382
-0.0144189
-0.00223871
-0.0121473
-0.00369028
-0.00944827
-0.0051728
-0.0073454
-0.00661933
-0.0057007
-0.00800433
-0.00444412
-0.0093082
-0.00349759
-0.010518
-0.00280101
-0.0116258
-0.00230103
-0.0126299
-0.00194982
-0.0135343
-0.00170651
-0.0143452
-0.0015358
-0.0150689
-0.00140554
-0.0157099
-0.00128656
-0.016271
-0.00115623
-0.0167544
-0.00100239
-0.0171635
-0.000822116
-0.0175035
-0.000614894
-0.0177764
-0.000375646
-0.0179745
-9.06243e-05
-0.0180812
0.000205059
-0.0181189
0.000491843
-0.0181204
0.000703728
-0.018137
0.000770039
-0.0181908
0.000691097
-0.0182819
0.000510441
-0.0183959
0.000284312
-0.0185072
2.77957e-05
-0.0186091
-0.000281344
-0.000607165
-0.00210867
-0.0123103
-0.00460715
-0.00964884
-0.0070981
-0.00695731
-0.00946721
-0.0049763
-0.0116347
-0.00353316
-0.0135698
-0.00250907
-0.0152699
-0.00179746
-0.0167492
-0.0013217
-0.0180302
-0.00102004
-0.0191386
-0.000841474
-0.0200997
-0.000745367
-0.0209358
-0.000699691
-0.0216644
-0.00067696
-0.0222985
-0.000652407
-0.0228479
-0.000606838
-0.0233192
-0.000531149
-0.0237162
-0.000425081
-0.0240416
-0.00028955
-0.0242966
-0.000120583
-0.0244707
8.34623e-05
-0.0245763
0.000310655
-0.0246271
0.000542648
-0.0246466
0.0007232
-0.0246733
0.000796775
-0.0247317
0.000749468
-0.0248273
0.000606081
-0.0249484
0.000405378
-0.0250781
0.000157497
-0.0252154
-0.000144065
-0.000416421
-0.00345118
-0.00885908
-0.00710034
-0.00599968
-0.0105555
-0.00350211
-0.0136641
-0.00186777
-0.0163678
-0.000829437
-0.0186701
-0.000206763
-0.0205894
0.000121865
-0.0221689
0.000257747
-0.0234703
0.00028135
-0.0245568
0.000245009
-0.0254796
0.000177465
-0.0262759
9.65906e-05
-0.0269708
1.79422e-05
-0.0275795
-4.37134e-05
-0.0281107
-7.55875e-05
-0.0285709
-7.0932e-05
-0.0289638
-3.22018e-05
-0.0292878
3.44754e-05
-0.0295387
0.000130277
-0.0297188
0.000263548
-0.0298424
0.00043432
-0.0299214
0.000621582
-0.0299771
0.000778897
-0.0300378
0.000857522
-0.0301231
0.000834738
-0.0302378
0.000720771
-0.0303741
0.000541673
-0.0305263
0.000309675
-0.0307049
3.46242e-05
-0.000194141
-0.00505746
-0.00380163
-0.0102292
-0.000827899
-0.014603
0.000871669
-0.0181676
0.00169676
-0.021015
0.00201802
-0.0232824
0.00206066
-0.02511
0.00194948
-0.0266118
0.0017595
-0.0278627
0.00153228
-0.0289156
0.00129789
-0.0298126
0.00107444
-0.0305836
0.000867628
-0.0312482
0.000682554
-0.0318233
0.000531306
-0.0323258
0.000426981
-0.032768
0.000371274
-0.0331533
0.000353049
-0.0334794
0.000360581
-0.0337435
0.000394348
-0.0339463
0.000466396
-0.0340969
0.000584896
-0.0342109
0.00073557
-0.0343097
0.000877753
-0.0344149
0.000962698
-0.0345396
0.000959462
-0.0346865
0.000867628
-0.0348518
0.000706948
-0.0350355
0.000493414
-0.0352454
0.000244543
4.95603e-05
-0.00680084
0.00299921
-0.0126943
0.0050656
-0.0173061
0.00548347
-0.0209765
0.00536718
-0.0239232
0.00496466
-0.0262911
0.00442858
-0.0282044
0.00386278
-0.0297603
0.00331534
-0.0310367
0.00280869
-0.0321007
0.00236192
-0.0330064
0.0019802
-0.0337888
0.00164998
-0.0344663
0.00136004
-0.0350537
0.00111875
-0.0355691
0.000942388
-0.036029
0.000831129
-0.0364395
0.000763548
-0.0367948
0.000715908
-0.037086
0.000685563
-0.0373131
0.000693475
-0.0374897
0.000761459
-0.0376379
0.000883852
-0.0377809
0.00102071
-0.0379352
0.00111697
-0.0381071
0.00113141
-0.0382946
0.00105511
-0.0384946
0.000906895
-0.0387122
0.000711049
-0.0389614
0.000493733
0.000330792
-0.00782054
0.0108198
-0.0143946
0.0116396
-0.0195714
0.0106603
-0.0235536
0.00934942
-0.0266194
0.00803046
-0.0290022
0.00681132
-0.0308866
0.00574719
-0.0324028
0.00483157
-0.0336361
0.00404197
-0.0346595
0.00338531
-0.0355382
0.00285888
-0.0363094
0.00242121
-0.036983
0.00203365
-0.0375669
0.00170259
-0.0380825
0.00145803
-0.0385543
0.00130289
-0.0389898
0.0011991
-0.0393759
0.00110197
-0.0396941
0.00100378
-0.039942
0.000941334
-0.0401398
0.000959319
-0.0403192
0.00106326
-0.0405066
0.00120809
-0.0407142
0.0013246
-0.0409401
0.00135724
-0.0411745
0.00128955
-0.0414121
0.00114448
-0.0416609
0.000959823
-0.0419376
0.000770475
0.000640349
-0.00929002
0.0201098
-0.0169726
0.0193222
-0.0224875
0.0161752
-0.0264353
0.0132973
-0.0293616
0.0109567
-0.0315626
0.00901235
-0.0332719
0.00745646
-0.0346501
0.00620982
-0.0357682
0.00516004
-0.0366919
0.00430898
-0.0375034
0.00367039
-0.0382444
0.00316219
-0.0389032
0.00269251
-0.0394696
0.00226895
-0.0399703
0.00195875
-0.0404456
0.00177812
-0.040907
0.00166053
-0.0413286
0.00152358
-0.0416748
0.00134994
-0.0419372
0.00120374
-0.0421467
0.00116885
-0.0423499
0.00126646
-0.0425792
0.00143739
-0.0428416
0.00158701
-0.0431238
0.0016395
-0.0434055
0.00157119
-0.0436763
0.00141526
-0.0439478
0.00123134
-0.0442437
0.00106638
0.000971085
-0.0119791
0.0320889
-0.0210925
0.0284356
-0.0264733
0.021556
-0.0298029
0.016627
-0.0322611
0.0134149
-0.0340459
0.0107972
-0.0354012
0.00881177
-0.0365449
0.00735348
-0.0374899
0.00610505
-0.038254
0.00507312
-0.0389573
0.00437364
-0.0396612
0.0038661
-0.0403073
0.00333856
-0.0408433
0.00280503
-0.0413074
0.00242282
-0.0417741
0.00224483
-0.0422653
0.00215176
-0.0427324
0.0019906
-0.0431082
0.00172579
-0.0433728
0.00146829
-0.0435747
0.00137081
-0.0437867
0.00147844
-0.044051
0.00170173
-0.0443671
0.00190311
-0.0447068
0.00197912
-0.0450349
0.00189932
-0.0453341
0.00171447
-0.045621
0.00151825
-0.0459296
0.00137497
0.0013154
-0.0167673
0.0488562
-0.027678
0.0393463
-0.0321714
0.0260493
-0.0336799
0.0181355
-0.0353191
0.0150541
-0.0364351
0.0119132
-0.0372085
0.00958517
-0.0380655
0.0082104
-0.0388525
0.00689206
-0.0393929
0.00561358
-0.0399231
0.00490385
-0.0405943
0.00453725
-0.0412475
0.00399175
-0.0417397
0.00329728
-0.0421301
0.00281316
-0.0425687
0.0026834
-0.0431005
0.00268357
-0.0436334
0.00252358
-0.0440447
0.00213709
-0.0442918
0.00171533
-0.0444558
0.0015348
-0.0446564
0.00167905
-0.0449509
0.00199624
-0.0453248
0.002277
-0.0457281
0.00238239
-0.0461058
0.00227707
-0.0464294
0.00203807
-0.0467224
0.00181122
-0.047036
0.0016886
0.00166504
0.207447
0.00576046
0.207034
0.0111756
0.206432
0.0163507
0.205647
0.0213689
0.204688
0.0262951
0.20356
0.0311834
0.20227
0.0360814
0.200824
0.0410309
0.199228
0.0460687
0.197486
0.0512281
0.195605
0.0565391
0.19359
0.0620302
0.191446
0.0677287
0.189179
0.073662
0.186793
0.0798586
0.184293
0.0863497
0.181681
0.0931714
0.17896
0.100367
0.17613
0.107989
0.173188
0.116108
0.170132
0.124814
0.166956
0.134232
0.163656
0.144534
0.160233
0.155962
0.156712
0.16887
0.153187
0.183787
0.150027
0.201507
0.148914
0.222945
0.160667
0.245574
0.258675
0.236413
0.21249
0.00595291
0.212117
0.0115485
0.211574
0.0168943
0.210868
0.0220749
0.210007
0.0271557
0.208999
0.0321911
0.207852
0.0372288
0.206573
0.0423103
0.205169
0.0474727
0.203648
0.0527485
0.20202
0.0581675
0.200293
0.0637575
0.198476
0.0695452
0.196581
0.075557
0.194619
0.0818206
0.192603
0.0883659
0.190548
0.095227
0.18847
0.102444
0.186392
0.110067
0.184341
0.118158
0.182359
0.126796
0.180506
0.136085
0.178882
0.146158
0.177659
0.157186
0.177159
0.16937
0.178038
0.182908
0.181714
0.197831
0.190796
0.213863
0.206294
0.230076
0.245539
0.219431
0.217658
0.00612288
0.217329
0.0118776
0.21685
0.0173731
0.21623
0.0226948
0.215477
0.0279083
0.2146
0.033068
0.213608
0.0382212
0.212509
0.0434093
0.211313
0.0486684
0.210031
0.0540304
0.208675
0.0595241
0.207256
0.065176
0.20579
0.0710113
0.204293
0.0770546
0.202782
0.0833309
0.201281
0.0898672
0.199815
0.096693
0.198417
0.103842
0.197128
0.111355
0.196006
0.11928
0.195128
0.127674
0.194607
0.136606
0.194614
0.146151
0.195412
0.156387
0.197412
0.16737
0.201226
0.179095
0.207622
0.191435
0.217259
0.204226
0.229851
0.217484
0.228631
0.246758
0.222951
0.00626838
0.22267
0.0121589
0.222262
0.0177814
0.221735
0.0232213
0.221099
0.028544
0.220363
0.0338038
0.219538
0.0390471
0.218632
0.0443147
0.217659
0.0496414
0.216631
0.0550582
0.215563
0.0605921
0.214472
0.0662677
0.213375
0.072108
0.212295
0.0781346
0.211257
0.084369
0.210291
0.090833
0.209434
0.0975499
0.208732
0.104545
0.208243
0.111845
0.208044
0.11948
0.208237
0.127481
0.208962
0.13588
0.210414
0.1447
0.212855
0.153946
0.216631
0.163594
0.222162
0.173564
0.229895
0.183702
0.2404
0.193721
0.25459
0.203293
0.210163
0.273059
0.228374
0.00638754
0.228144
0.012389
0.227811
0.0181141
0.227385
0.0236478
0.226874
0.029055
0.226288
0.0343892
0.22564
0.039696
0.224939
0.0450148
0.224202
0.0503792
0.223442
0.0558183
0.222676
0.0613572
0.221926
0.067018
0.221213
0.0728207
0.220565
0.0787832
0.220012
0.0849223
0.219591
0.0912538
0.219348
0.097793
0.219338
0.104555
0.21963
0.111552
0.220313
0.118796
0.2215
0.126295
0.223334
0.134045
0.226002
0.142032
0.229734
0.150215
0.234808
0.158519
0.241553
0.166819
0.250347
0.174908
0.261634
0.182434
0.275886
0.189041
0.193645
0.292405
0.233929
0.00647868
0.233754
0.0125646
0.233501
0.0183665
0.233181
0.0239683
0.232802
0.0294341
0.232375
0.0348161
0.231912
0.0401587
0.231427
0.0454998
0.230935
0.0508712
0.230454
0.0562999
0.230002
0.0618087
0.229603
0.0674167
0.229284
0.0731403
0.229074
0.0789932
0.229009
0.084987
0.229132
0.0911309
0.229493
0.0974318
0.230154
0.103894
0.231188
0.110517
0.232688
0.117297
0.234764
0.124218
0.237554
0.131256
0.241219
0.138367
0.245953
0.145481
0.251975
0.152497
0.259527
0.159267
0.26885
0.165585
0.280121
0.171162
0.293435
0.175727
0.178767
0.308313
0.23962
0.00654032
0.239501
0.0126828
0.239334
0.0185344
0.239124
0.0241776
0.238883
0.029675
0.238622
0.0350775
0.238353
0.0404278
0.238091
0.0457618
0.237853
0.0511095
0.237657
0.0564954
0.237526
0.0619396
0.237485
0.067458
0.237562
0.0730633
0.23779
0.0787646
0.238209
0.084568
0.238864
0.0904762
0.239808
0.0964883
0.241103
0.102599
0.242824
0.108796
0.245059
0.115062
0.247911
0.121367
0.251498
0.127669
0.255957
0.133908
0.261436
0.140002
0.268091
0.145842
0.276072
0.151286
0.285498
0.156159
0.296414
0.160247
0.308807
0.163334
0.165154
0.32242
0.245448
0.00657118
0.24539
0.0127412
0.24531
0.0186145
0.245216
0.0242714
0.245118
0.0297729
0.245028
0.035168
0.244958
0.0404974
0.244925
0.0457952
0.244945
0.0510888
0.24504
0.0564003
0.245233
0.0617469
0.24555
0.0671412
0.246021
0.0725919
0.246682
0.0781039
0.247572
0.083678
0.248737
0.089311
0.250231
0.0949947
0.252114
0.100716
0.254456
0.106454
0.257337
0.112181
0.260847
0.117858
0.265082
0.123433
0.270148
0.128842
0.276151
0.133999
0.28319
0.138803
0.291347
0.143129
0.300667
0.146839
0.311139
0.149774
0.322696
0.151777
0.152715
0.335135
0.251418
0.00657024
0.251421
0.0127378
0.251432
0.0186039
0.251457
0.0242464
0.251506
0.029724
0.25159
0.0350835
0.251724
0.0403638
0.251923
0.0455965
0.252205
0.0508066
0.252591
0.0560136
0.253107
0.0612316
0.253778
0.0664701
0.254636
0.0717341
0.255715
0.0770244
0.257056
0.0823371
0.258703
0.0876638
0.260707
0.0929909
0.263124
0.0982988
0.266016
0.103561
0.269453
0.108744
0.273506
0.113804
0.278252
0.118687
0.283766
0.123328
0.290118
0.127648
0.297363
0.131558
0.305535
0.134957
0.314637
0.137738
0.324621
0.13979
0.335389
0.141009
0.141335
0.34677
0.257532
0.00653677
0.257599
0.0126713
0.257702
0.0185009
0.257848
0.0241003
0.258046
0.0295258
0.258308
0.034822
0.258646
0.0400253
0.259078
0.0451649
0.259621
0.0502634
0.260297
0.0553376
0.26113
0.0603987
0.262147
0.0654531
0.263378
0.0705027
0.264859
0.0755444
0.266625
0.0805707
0.268719
0.0855692
0.271188
0.0905221
0.274081
0.0954061
0.277451
0.100191
0.281354
0.104841
0.285847
0.109312
0.290984
0.11355
0.296815
0.117497
0.30338
0.121083
0.310703
0.124235
0.318786
0.126874
0.327602
0.128922
0.337086
0.130306
0.347135
0.13096
0.130864
0.357605
0.263794
0.00647028
0.263925
0.0125407
0.264121
0.0183041
0.26439
0.0238318
0.264738
0.0291774
0.265177
0.0343829
0.265721
0.0394821
0.266384
0.0445019
0.267185
0.0494624
0.268144
0.0543778
0.269286
0.0592566
0.270637
0.0641026
0.272225
0.0689146
0.274082
0.0736869
0.276244
0.078409
0.278748
0.0830656
0.281633
0.0876366
0.284943
0.0920964
0.28872
0.0964144
0.293007
0.100554
0.297846
0.104473
0.303272
0.108124
0.309315
0.111454
0.315991
0.114407
0.323301
0.116924
0.331228
0.118947
0.339727
0.120422
0.34873
0.121303
0.358137
0.121553
0.121171
0.36783
0.270207
0.0063706
0.270402
0.0123458
0.270692
0.0180134
0.271083
0.023441
0.271581
0.0286791
0.272197
0.0337672
0.272943
0.0387365
0.273833
0.0436114
0.274886
0.0484095
0.276121
0.0531427
0.277561
0.0578172
0.279229
0.0624343
0.281153
0.0669908
0.283361
0.0714785
0.285885
0.0758851
0.288757
0.0801938
0.29201
0.0843832
0.295679
0.0884276
0.299797
0.092297
0.304394
0.095957
0.309497
0.0993695
0.315128
0.102493
0.321299
0.105284
0.328009
0.107697
0.335245
0.109688
0.342976
0.111216
0.351153
0.112246
0.359706
0.112751
0.368545
0.112713
0.112144
0.377573
0.276774
0.00623783
0.277033
0.0120867
0.277417
0.0176292
0.277929
0.0229288
0.278575
0.0280327
0.279365
0.0329778
0.280309
0.0377927
0.281421
0.0424992
0.282717
0.047113
0.284217
0.0516434
0.285939
0.0560949
0.287906
0.0604669
0.290143
0.0647543
0.292673
0.0689478
0.295525
0.0730338
0.298724
0.0769949
0.302297
0.0808101
0.30627
0.0844545
0.310667
0.0879003
0.315507
0.0911164
0.320807
0.0940699
0.326574
0.096726
0.332808
0.0990498
0.339497
0.101007
0.346619
0.102566
0.354135
0.103699
0.361996
0.104386
0.370135
0.104612
0.378474
0.104373
0.103688
0.386931
0.283498
0.00607236
0.28382
0.0117643
0.284297
0.0171529
0.284928
0.0222971
0.28572
0.0272412
0.286679
0.0320189
0.287815
0.0366564
0.289141
0.0411734
0.290671
0.0455831
0.292421
0.0498932
0.294409
0.0541065
0.296655
0.058221
0.299179
0.0622304
0.302002
0.0661247
0.305146
0.0698902
0.308631
0.0735097
0.312478
0.0769632
0.316705
0.080228
0.321326
0.0832789
0.326353
0.0860894
0.331791
0.0886317
0.337639
0.090878
0.343888
0.0928015
0.350517
0.0943772
0.3575
0.0955836
0.364795
0.0964039
0.372354
0.096827
0.380116
0.0968494
0.388015
0.0964743
0.0957223
0.39598
0.290384
0.00587481
0.290768
0.0113799
0.291335
0.0165865
0.292083
0.0215491
0.293015
0.0263087
0.294138
0.0308961
0.295459
0.0353352
0.296989
0.0396433
0.298741
0.0438319
0.300727
0.047907
0.302963
0.0518702
0.305466
0.0557184
0.308251
0.0594449
0.311336
0.0630395
0.314738
0.0664888
0.318471
0.0697769
0.322548
0.0728853
0.326983
0.0757939
0.33178
0.078481
0.336945
0.0809244
0.342475
0.0831019
0.348361
0.0849919
0.354588
0.0865748
0.361132
0.0878333
0.367961
0.0887541
0.375037
0.0893281
0.382312
0.0895519
0.389734
0.0894278
0.397244
0.088964
0.0881818
0.404785
0.297435
0.00564605
0.297879
0.0109352
0.298533
0.0159326
0.299394
0.0206885
0.300462
0.0252403
0.301742
0.0296162
0.30324
0.0338376
0.304963
0.0379198
0.306922
0.0418726
0.309129
0.0457009
0.311594
0.049405
0.314331
0.0529816
0.317352
0.0564238
0.32067
0.0597217
0.324296
0.0628628
0.32824
0.0658327
0.33251
0.0686152
0.337111
0.0711928
0.342044
0.0735477
0.347307
0.0756619
0.35289
0.0775182
0.358782
0.0791006
0.364961
0.0803956
0.371402
0.0813922
0.378073
0.0820831
0.384936
0.0824652
0.391948
0.0825399
0.399062
0.0823135
0.406229
0.0817969
0.0810109
0.4134
0.304654
0.00538714
0.305157
0.0104323
0.305895
0.0151946
0.306864
0.0197198
0.308062
0.024042
0.309491
0.0281867
0.311156
0.0321731
0.313061
0.0360145
0.315215
0.0397193
0.317624
0.0432914
0.320299
0.0467305
0.323247
0.0500331
0.326479
0.0531924
0.330001
0.0561994
0.333821
0.0590429
0.337943
0.0617101
0.342371
0.0641873
0.347104
0.0664599
0.352138
0.0685137
0.357466
0.0703346
0.363074
0.0719098
0.368946
0.0732284
0.37506
0.0742815
0.381389
0.0750632
0.387902
0.0755706
0.394562
0.0758048
0.401332
0.0757703
0.40817
0.0754758
0.415033
0.0749335
0.0741627
0.421881
0.312046
0.0050993
0.312605
0.00987351
0.313423
0.014376
0.314495
0.018648
0.315817
0.0227204
0.317388
0.026616
0.319209
0.0303518
0.321284
0.0339395
0.323617
0.0373864
0.326213
0.0406954
0.329078
0.0438659
0.332216
0.0468943
0.335634
0.0497747
0.339334
0.0524988
0.34332
0.0550569
0.347592
0.0574383
0.352148
0.0596314
0.356983
0.0616247
0.36209
0.0634071
0.367456
0.0649682
0.373067
0.066299
0.378903
0.0673924
0.384941
0.0682434
0.391155
0.0688498
0.397513
0.0692122
0.403984
0.069334
0.410532
0.0692221
0.417122
0.0688862
0.423716
0.0683386
0.0675973
0.430282
0.319615
0.00478384
0.320227
0.00926153
0.321122
0.0134807
0.322292
0.0174785
0.32373
0.0212823
0.325433
0.0249125
0.327401
0.0283841
0.329633
0.0317073
0.332131
0.0348882
0.334898
0.0379292
0.337934
0.0408295
0.341243
0.0435858
0.344824
0.0461929
0.348679
0.0486436
0.352807
0.0509298
0.357202
0.0530426
0.361861
0.0549728
0.366774
0.0567115
0.371931
0.0582505
0.377317
0.0595823
0.382914
0.0607013
0.388703
0.0616034
0.39466
0.0622865
0.400759
0.0627512
0.406971
0.0630001
0.413266
0.0630387
0.419614
0.0628746
0.425982
0.062518
0.43234
0.0619808
0.0612795
0.438658
0.327365
0.00444213
0.328028
0.00859901
0.328995
0.0125129
0.330257
0.0162167
0.331805
0.0197347
0.333632
0.023085
0.335736
0.0262804
0.338113
0.0293299
0.340763
0.0322386
0.343684
0.0350084
0.346875
0.0376386
0.350334
0.0401263
0.35406
0.0424669
0.358049
0.0446546
0.362296
0.0466827
0.366795
0.0485442
0.371535
0.0502319
0.376508
0.0517393
0.381698