/*--------------------------------*- C++ -*----------------------------------*\
  =========                 |
  \\      /  F ield         | OpenFOAM: The Open Source CFD Toolbox
   \\    /   O peration     | Website:  https://openfoam.org
    \\  /    A nd           | Version:  7
     \\/     M anipulation  |
\*---------------------------------------------------------------------------*/
FoamFile
{
    version     2.0;
    format      ascii;
    class       volVectorField;
    location    "3.5";
    object      U;
}
// * * * * * * * * * * * * * * * * * * * * * * * * * * * * * * * * * * * * * //

dimensions      [0 1 -1 0 0 0 0];

internalField   nonuniform List<vector> 
2790
(
(9.94399 0.0205232 0)
(9.87572 0.0295878 0)
(9.77521 0.0359897 0)
(9.64943 0.0425565 0)
(9.50409 0.0493858 0)
(9.34006 0.0564288 0)
(9.15654 0.0638163 0)
(8.95262 0.071712 0)
(8.72746 0.0802556 0)
(8.48008 0.0895738 0)
(8.20927 0.0997936 0)
(7.91365 0.111045 0)
(7.59169 0.12346 0)
(7.24179 0.137165 0)
(6.86234 0.152272 0)
(6.45181 0.16887 0)
(6.0089 0.186997 0)
(5.53272 0.206619 0)
(5.02301 0.22759 0)
(4.4805 0.249611 0)
(3.90722 0.272176 0)
(3.3069 0.294526 0)
(2.68537 0.315621 0)
(2.05071 0.33429 0)
(1.41189 0.350608 0)
(0.798117 0.372885 0)
(0.110828 0.325101 0)
(-0.469545 -0.114836 0)
(-0.453759 -0.297162 0)
(-0.231158 -0.423857 0)
(9.9985 0.0407032 0)
(9.98145 0.0623832 0)
(9.93574 0.0791408 0)
(9.86416 0.0966256 0)
(9.77097 0.115125 0)
(9.65715 0.134489 0)
(9.52205 0.154976 0)
(9.36485 0.176944 0)
(9.18471 0.200708 0)
(8.98067 0.22655 0)
(8.75152 0.254744 0)
(8.49589 0.285559 0)
(8.21221 0.319248 0)
(7.89883 0.35602 0)
(7.55405 0.396017 0)
(7.17622 0.439259 0)
(6.76382 0.485588 0)
(6.3157 0.534582 0)
(5.83131 0.585457 0)
(5.31095 0.63695 0)
(4.75623 0.6872 0)
(4.1705 0.733645 0)
(3.55939 0.772954 0)
(2.93165 0.801097 0)
(2.30005 0.813757 0)
(1.69305 0.807266 0)
(1.10725 0.74728 0)
(0.658956 0.547966 0)
(0.186541 0.224669 0)
(-0.00819715 -0.453702 0)
(9.99559 0.0432073 0)
(9.97556 0.0752724 0)
(9.9318 0.103347 0)
(9.86489 0.132373 0)
(9.77778 0.163061 0)
(9.67154 0.1954 0)
(9.54587 0.229744 0)
(9.40013 0.266604 0)
(9.23365 0.306471 0)
(9.04563 0.349807 0)
(8.83508 0.39707 0)
(8.60081 0.448719 0)
(8.34145 0.505187 0)
(8.05551 0.566857 0)
(7.74139 0.634002 0)
(7.39746 0.70672 0)
(7.02214 0.784824 0)
(6.614 0.867709 0)
(6.17199 0.954179 0)
(5.6957 1.04224 0)
(5.18571 1.12887 0)
(4.64405 1.20978 0)
(4.07489 1.27915 0)
(3.48548 1.32933 0)
(2.88695 1.3501 0)
(2.29956 1.32645 0)
(1.73193 1.22082 0)
(1.21632 0.973061 0)
(0.701193 0.570214 0)
(0.358068 -0.156467 0)
(9.99403 0.0494997 0)
(9.97181 0.0932073 0)
(9.92788 0.133574 0)
(9.86224 0.174211 0)
(9.77693 0.216436 0)
(9.67298 0.260664 0)
(9.55031 0.307432 0)
(9.40848 0.357417 0)
(9.24702 0.411291 0)
(9.06532 0.469705 0)
(8.86268 0.533299 0)
(8.63819 0.602718 0)
(8.39084 0.678584 0)
(8.11952 0.761463 0)
(7.82301 0.851805 0)
(7.50003 0.949856 0)
(7.14927 1.05553 0)
(6.76948 1.16821 0)
(6.35954 1.28658 0)
(5.91866 1.40824 0)
(5.4466 1.52944 0)
(4.94409 1.64466 0)
(4.41326 1.74613 0)
(3.85837 1.82322 0)
(3.28592 1.86138 0)
(2.7065 1.84036 0)
(2.12574 1.72606 0)
(1.55433 1.47794 0)
(0.957994 1.08379 0)
(0.509441 0.502424 0)
(9.99331 0.0572142 0)
(9.96994 0.11096 0)
(9.92593 0.162106 0)
(9.86145 0.213351 0)
(9.77798 0.26636 0)
(9.67634 0.321918 0)
(9.55653 0.380705 0)
(9.41821 0.443491 0)
(9.26096 0.511057 0)
(9.08432 0.584169 0)
(8.88769 0.663584 0)
(8.67038 0.750056 0)
(8.43158 0.844323 0)
(8.17046 0.947068 0)
(7.88608 1.05886 0)
(7.57749 1.18005 0)
(7.24368 1.31065 0)
(6.88364 1.45014 0)
(6.49633 1.59718 0)
(6.08079 1.74928 0)
(5.63623 1.90237 0)
(5.1622 2.05028 0)
(4.65887 2.18415 0)
(4.12732 2.29173 0)
(3.56951 2.35658 0)
(2.98899 2.35736 0)
(2.38693 2.26503 0)
(1.76646 2.04774 0)
(1.09004 1.69152 0)
(0.536673 1.15428 0)
(9.99302 0.0655394 0)
(9.96923 0.128703 0)
(9.92556 0.190117 0)
(9.86253 0.251847 0)
(9.78128 0.315583 0)
(9.68244 0.382324 0)
(9.566 0.452879 0)
(9.4317 0.528105 0)
(9.27919 0.608882 0)
(9.10805 0.696083 0)
(8.91776 0.790575 0)
(8.70772 0.893215 0)
(8.47727 1.00484 0)
(8.22567 1.12624 0)
(7.95214 1.25806 0)
(7.65589 1.40078 0)
(7.33604 1.5545 0)
(6.99166 1.71882 0)
(6.62172 1.8925 0)
(6.22506 2.07317 0)
(5.80035 2.2568 0)
(5.34613 2.43716 0)
(4.86081 2.60516 0)
(4.34281 2.74821 0)
(3.79052 2.84956 0)
(3.20269 2.88824 0)
(2.57668 2.83831 0)
(1.91355 2.67173 0)
(1.1728 2.37415 0)
(0.549993 1.89457 0)
(9.99297 0.0740759 0)
(9.96926 0.146316 0)
(9.92637 0.217487 0)
(9.86508 0.289297 0)
(9.78642 0.363361 0)
(9.69084 0.440833 0)
(9.57834 0.522666 0)
(9.4487 0.609816 0)
(9.30163 0.703258 0)
(9.13676 0.803965 0)
(8.95362 0.912896 0)
(8.75168 1.031 0)
(8.53032 1.1592 0)
(8.28886 1.29837 0)
(8.02658 1.44927 0)
(7.74269 1.61244 0)
(7.4363 1.78814 0)
(7.10642 1.9761 0)
(6.75184 2.17534 0)
(6.37106 2.38375 0)
(5.96217 2.59767 0)
(5.52273 2.81132 0)
(5.04964 3.01611 0)
(4.53913 3.19994 0)
(3.98679 3.34669 0)
(3.38805 3.43601 0)
(2.73738 3.4434 0)
(2.03634 3.34164 0)
(1.24182 3.11376 0)
(0.563545 2.69335 0)
(9.99306 0.0825893 0)
(9.96981 0.163609 0)
(9.92807 0.244055 0)
(9.86884 0.325486 0)
(9.79312 0.409453 0)
(9.70125 0.497214 0)
(9.59322 0.589846 0)
(9.46886 0.688402 0)
(9.32794 0.793944 0)
(9.17012 0.90753 0)
(8.995 1.03021 0)
(8.80208 1.16303 0)
(8.59079 1.30699 0)
(8.36048 1.46306 0)
(8.11043 1.63211 0)
(7.83979 1.81482 0)
(7.54761 2.01161 0)
(7.23268 2.22244 0)
(6.89353 2.44666 0)
(6.52821 2.68261 0)
(6.13416 2.92727 0)
(5.70795 3.17569 0)
(5.24509 3.4203 0)
(4.73992 3.65016 0)
(4.18564 3.85024 0)
(3.57492 4.00094 0)
(2.89967 4.07801 0)
(2.16224 4.05255 0)
(1.31621 3.90192 0)
(0.583259 3.54041 0)
(9.99326 0.0909299 0)
(9.97072 0.180412 0)
(9.93046 0.269673 0)
(9.87362 0.360249 0)
(9.80117 0.453656 0)
(9.71342 0.551219 0)
(9.61036 0.654121 0)
(9.49186 0.763504 0)
(9.35773 0.880511 0)
(9.20771 1.00628 0)
(9.04142 1.14195 0)
(8.85844 1.28866 0)
(8.65824 1.4475 0)
(8.44018 1.61956 0)
(8.20354 1.80582 0)
(7.94744 2.00715 0)
(7.67077 2.22418 0)
(7.37216 2.45719 0)
(7.04981 2.70596 0)
(6.70131 2.96947 0)
(6.32342 3.24556 0)
(5.91175 3.53043 0)
(5.46049 3.81798 0)
(4.96217 4.09893 0)
(4.4076 4.35985 0)
(3.7866 4.58215 0)
(3.08776 4.7412 0)
(2.31287 4.80466 0)
(1.41076 4.74136 0)
(0.614361 4.44225 0)
(9.99352 0.0989941 0)
(9.9719 0.196583 0)
(9.9334 0.294202 0)
(9.87924 0.393425 0)
(9.81039 0.495766 0)
(9.72715 0.6026 0)
(9.62951 0.715194 0)
(9.51739 0.834772 0)
(9.39066 0.962552 0)
(9.2491 1.09975 0)
(9.09242 1.24759 0)
(8.92024 1.40728 0)
(8.73209 1.58005 0)
(8.52738 1.76707 0)
(8.30539 1.96951 0)
(8.06522 2.18842 0)
(7.8057 2.42472 0)
(7.52529 2.67907 0)
(7.22192 2.95181 0)
(6.8928 3.2427 0)
(6.53409 3.55066 0)
(6.14058 3.87337 0)
(5.70519 4.20659 0)
(5.21866 4.5433 0)
(4.66921 4.8724 0)
(4.04311 5.177 0)
(3.32394 5.43243 0)
(2.50999 5.6022 0)
(1.54202 5.64384 0)
(0.66413 5.41846 0)
(9.99384 0.106706 0)
(9.9733 0.212005 0)
(9.93679 0.31751 0)
(9.88557 0.424866 0)
(9.82062 0.535601 0)
(9.74224 0.651134 0)
(9.65042 0.772802 0)
(9.54515 0.901898 0)
(9.42635 1.03971 0)
(9.29386 1.18752 0)
(9.14748 1.34663 0)
(8.98689 1.51834 0)
(8.8117 1.70397 0)
(8.62138 1.90484 0)
(8.41526 2.12226 0)
(8.19248 2.35753 0)
(7.95184 2.61188 0)
(7.69176 2.88643 0)
(7.41004 3.18216 0)
(7.10366 3.49972 0)
(6.7684 3.83932 0)
(6.39843 4.20038 0)
(5.9857 4.58103 0)
(5.51928 4.9772 0)
(4.98463 5.38124 0)
(4.36357 5.77956 0)
(3.63222 6.14926 0)
(2.78043 6.45094 0)
(1.73368 6.62895 0)
(0.744944 6.50365 0)
(9.9942 0.114009 0)
(9.97487 0.226581 0)
(9.94055 0.339482 0)
(9.89251 0.454435 0)
(9.83172 0.572998 0)
(9.75849 0.696626 0)
(9.67286 0.826711 0)
(9.57485 0.964609 0)
(9.46445 1.11167 0)
(9.34158 1.26923 0)
(9.2061 1.43865 0)
(9.05781 1.62133 0)
(8.89638 1.81867 0)
(8.7214 2.03213 0)
(8.5323 2.26318 0)
(8.3283 2.51337 0)
(8.10829 2.78425 0)
(7.87076 3.07744 0)
(7.61358 3.39458 0)
(7.33373 3.73732 0)
(7.02695 4.10726 0)
(6.68723 4.50582 0)
(6.30602 4.93391 0)
(5.87129 5.39126 0)
(5.36606 5.87522 0)
(4.76726 6.3782 0)
(4.04113 6.88333 0)
(3.16189 7.35381 0)
(2.02509 7.72377 0)
(0.880913 7.75787 0)
(9.99459 0.120857 0)
(9.97657 0.240231 0)
(9.94461 0.360018 0)
(9.89994 0.482015 0)
(9.84355 0.607813 0)
(9.77574 0.738902 0)
(9.6966 0.876718 0)
(9.6062 1.02267 0)
(9.50459 1.17814 0)
(9.3918 1.34453 0)
(9.26776 1.52326 0)
(9.13235 1.71578 0)
(8.9854 1.92359 0)
(8.82661 2.14826 0)
(8.65554 2.39143 0)
(8.47159 2.65486 0)
(8.27384 2.94043 0)
(8.061 3.25021 0)
(7.8312 3.58652 0)
(7.58175 3.95198 0)
(7.30878 4.34961 0)
(7.00669 4.78291 0)
(6.66733 5.25584 0)
(6.27867 5.77269 0)
(5.82276 6.33747 0)
(5.27291 6.95228 0)
(4.58507 7.61368 0)
(3.71058 8.30124 0)
(2.48874 8.95896 0)
(1.1248 9.29439 0)
(9.99501 0.127214 0)
(9.97837 0.252892 0)
(9.9489 0.379033 0)
(9.90779 0.507503 0)
(9.85597 0.639928 0)
(9.79379 0.777825 0)
(9.7214 0.922663 0)
(9.6389 1.07588 0)
(9.54642 1.23891 0)
(9.44407 1.41319 0)
(9.33189 1.60017 0)
(9.20987 1.80136 0)
(9.07797 2.01832 0)
(8.93605 2.25272 0)
(8.78387 2.50634 0)
(8.62105 2.7811 0)
(8.44697 3.07919 0)
(8.2607 3.40305 0)
(8.06085 3.75559 0)
(7.84537 4.14029 0)
(7.61126 4.56142 0)
(7.35408 5.02441 0)
(7.06721 5.5362 0)
(6.74057 6.1058 0)
(6.35823 6.74491 0)
(5.89456 7.46865 0)
(5.30148 8.29622 0)
(4.50978 9.24822 0)
(3.26981 10.3427 0)
(1.60566 11.3611 0)
(9.99544 0.133055 0)
(9.98026 0.264513 0)
(9.95339 0.396456 0)
(9.91595 0.530808 0)
(9.86886 0.669223 0)
(9.8125 0.81324 0)
(9.74704 0.964351 0)
(9.67267 1.12402 0)
(9.58958 1.29371 0)
(9.49795 1.47486 0)
(9.39795 1.66898 0)
(9.28969 1.87758 0)
(9.17327 2.10229 0)
(9.04875 2.34482 0)
(8.91611 2.60705 0)
(8.77525 2.89104 0)
(8.62592 3.19917 0)
(8.46768 3.53417 0)
(8.2998 3.89936 0)
(8.12115 4.29883 0)
(7.93003 4.7378 0)
(7.72389 5.22311 0)
(7.49889 5.764 0)
(7.24916 6.37328 0)
(6.96522 7.06942 0)
(6.63156 7.88027 0)
(6.21542 8.85131 0)
(5.66739 10.0657 0)
(4.69225 11.7318 0)
(2.68905 14.5961 0)
(0.140696 -0.14499 0)
(0.323548 -0.129203 0)
(0.512833 -0.103505 0)
(0.675536 -0.0807152 0)
(0.807191 -0.0625718 0)
(0.913381 -0.0484846 0)
(1.00044 -0.0376807 0)
(1.07321 -0.0295114 0)
(1.13525 -0.0234063 0)
(1.18925 -0.0188517 0)
(1.23723 -0.015394 0)
(1.28053 -0.012643 0)
(1.31985 -0.0102852 0)
(1.3554 -0.00811502 0)
(1.38709 -0.00605025 0)
(1.41479 -0.00407595 0)
(1.4384 -0.00209443 0)
(1.45749 0.000196412 0)
(1.47082 0.00316 0)
(1.47659 0.00668954 0)
(1.47395 0.00954834 0)
(1.4638 0.0109648 0)
(1.44998 0.0106438 0)
(1.43648 0.00897759 0)
(1.42528 0.00659696 0)
(1.41716 0.00388727 0)
(1.41306 0.000722959 0)
(1.41587 -0.00237571 0)
(1.42649 -0.00490255 0)
(1.44811 -0.00603718 0)
(0.112726 -0.320777 0)
(0.28792 -0.297763 0)
(0.460199 -0.245444 0)
(0.610762 -0.197292 0)
(0.736362 -0.158662 0)
(0.841741 -0.128611 0)
(0.931959 -0.105564 0)
(1.01082 -0.0881458 0)
(1.08112 -0.0751305 0)
(1.14498 -0.0654106 0)
(1.20403 -0.058002 0)
(1.25937 -0.0520445 0)
(1.31165 -0.0468334 0)
(1.36109 -0.0419017 0)
(1.40761 -0.0370906 0)
(1.45115 -0.032458 0)
(1.49186 -0.0279323 0)
(1.53005 -0.0229579 0)
(1.56562 -0.0167069 0)
(1.59729 -0.00918497 0)
(1.62282 -0.00213947 0)
(1.64191 0.00265355 0)
(1.65719 0.00486184 0)
(1.67213 0.00545197 0)
(1.68823 0.00494289 0)
(1.70543 0.00343634 0)
(1.72339 0.0005459 0)
(1.74073 -0.00359047 0)
(1.75754 -0.00827221 0)
(1.77841 -0.0109778 0)
(0.0843552 -0.497226 0)
(0.230539 -0.46492 0)
(0.362849 -0.38663 0)
(0.478596 -0.314523 0)
(0.574721 -0.256655 0)
(0.655684 -0.211433 0)
(0.725201 -0.176518 0)
(0.785999 -0.149862 0)
(0.84014 -0.129676 0)
(0.88923 -0.114377 0)
(0.93451 -0.102561 0)
(0.976868 -0.0929761 0)
(1.01683 -0.0845596 0)
(1.05455 -0.0765764 0)
(1.08984 -0.0687885 0)
(1.12242 -0.0614233 0)
(1.15234 -0.0546515 0)
(1.18032 -0.0477788 0)
(1.20716 -0.039007 0)
(1.2325 -0.0271926 0)
(1.25414 -0.0150538 0)
(1.2697 -0.00833549 0)
(1.28118 -0.00803046 0)
(1.29191 -0.0108083 0)
(1.30255 -0.0142894 0)
(1.31217 -0.0173399 0)
(1.31927 -0.0196601 0)
(1.32232 -0.0216297 0)
(1.32123 -0.0232105 0)
(1.31679 -0.0223452 0)
(0.0581519 -0.628655 0)
(0.167189 -0.581418 0)
(0.250813 -0.480173 0)
(0.325321 -0.390125 0)
(0.384714 -0.318715 0)
(0.43417 -0.263024 0)
(0.475744 -0.22003 0)
(0.511054 -0.187136 0)
(0.541419 -0.16214 0)
(0.567898 -0.143149 0)
(0.59134 -0.128483 0)
(0.612427 -0.116625 0)
(0.631694 -0.106229 0)
(0.649397 -0.09628 0)
(0.665351 -0.086373 0)
(0.678851 -0.0768515 0)
(0.689012 -0.0683713 0)
(0.696576 -0.0609665 0)
(0.703672 -0.0533338 0)
(0.713169 -0.0433716 0)
(0.722719 -0.0295233 0)
(0.712602 -0.0150362 0)
(0.680587 -0.00672445 0)
(0.644105 -0.00359396 0)
(0.609228 -0.0026016 0)
(0.578552 -0.00169205 0)
(0.556874 -0.00114796 0)
(0.539547 -0.00253607 0)
(0.527568 -0.00573537 0)
(0.521308 -0.0116667 0)
(0.0315673 -0.717742 0)
(0.096445 -0.65063 0)
(0.125056 -0.529846 0)
(0.154877 -0.428231 0)
(0.172287 -0.348268 0)
(0.184827 -0.285921 0)
(0.192446 -0.23773 0)
(0.195983 -0.200752 0)
(0.196175 -0.172552 0)
(0.193622 -0.151087 0)
(0.188819 -0.134578 0)
(0.1823 -0.121402 0)
(0.174777 -0.11003 0)
(0.166808 -0.0991477 0)
(0.158578 -0.0879808 0)
(0.149358 -0.0765516 0)
(0.135936 -0.0654186 0)
(0.11773 -0.0545878 0)
(0.0917291 -0.0421419 0)
(0.0636116 -0.0248377 0)
(0.0303235 -0.00236264 0)
(0.0119114 0.0166785 0)
(-0.00172256 0.0246134 0)
(-0.0155086 0.0228899 0)
(-0.0305646 0.0158259 0)
(-0.0446621 0.0068653 0)
(-0.0499398 -0.000607299 0)
(-0.0506113 -0.00686102 0)
(-0.0508158 -0.0137049 0)
(-0.0537102 -0.0235254 0)
(0.00320176 -0.757213 0)
(0.0178053 -0.666532 0)
(-0.0112918 -0.52952 0)
(-0.0293298 -0.42191 0)
(-0.0575201 -0.33725 0)
(-0.0862959 -0.271768 0)
(-0.117255 -0.221438 0)
(-0.149604 -0.183057 0)
(-0.18285 -0.153887 0)
(-0.2166 -0.131675 0)
(-0.250535 -0.114578 0)
(-0.284236 -0.100995 0)
(-0.317114 -0.0894855 0)
(-0.348477 -0.0788165 0)
(-0.377704 -0.0681384 0)
(-0.404452 -0.0571503 0)
(-0.428695 -0.0460491 0)
(-0.450553 -0.0350822 0)
(-0.470135 -0.0240515 0)
(-0.485986 -0.0124012 0)
(-0.496387 -0.000838019 0)
(-0.499851 0.010156 0)
(-0.502492 0.0185626 0)
(-0.505556 0.0200567 0)
(-0.510458 0.0165356 0)
(-0.51684 0.0104429 0)
(-0.522567 0.00389328 0)
(-0.526136 -0.00260766 0)
(-0.532283 -0.00976528 0)
(-0.5385 -0.0174934 0)
(-0.0297832 -0.739244 0)
(-0.0706546 -0.621716 0)
(-0.154179 -0.48121 0)
(-0.224144 -0.373163 0)
(-0.297241 -0.289278 0)
(-0.367397 -0.225569 0)
(-0.434259 -0.177522 0)
(-0.496959 -0.14179 0)
(-0.554863 -0.115569 0)
(-0.607653 -0.0964918 0)
(-0.655374 -0.0826169 0)
(-0.698285 -0.0723101 0)
(-0.736675 -0.064137 0)
(-0.77077 -0.0568653 0)
(-0.800735 -0.0495821 0)
(-0.826749 -0.0418083 0)
(-0.849054 -0.0334445 0)
(-0.867903 -0.0245509 0)
(-0.883395 -0.0150668 0)
(-0.895088 -0.00475427 0)
(-0.901848 0.00577942 0)
(-0.904255 0.0145841 0)
(-0.904749 0.0203068 0)
(-0.90526 0.0211564 0)
(-0.90746 0.0177629 0)
(-0.911655 0.011878 0)
(-0.91704 0.00535005 0)
(-0.922659 -0.00127759 0)
(-0.929732 -0.00919079 0)
(-0.93534 -0.0170417 0)
(-0.0689258 -0.66131 0)
(-0.163939 -0.525334 0)
(-0.300353 -0.386225 0)
(-0.419236 -0.282818 0)
(-0.532121 -0.206528 0)
(-0.633965 -0.151514 0)
(-0.724242 -0.112349 0)
(-0.803205 -0.0850113 0)
(-0.871808 -0.0664972 0)
(-0.931221 -0.0543356 0)
(-0.982711 -0.046492 0)
(-1.02746 -0.0413601 0)
(-1.06644 -0.0376354 0)
(-1.10038 -0.0342521 0)
(-1.12985 -0.0304532 0)
(-1.15529 -0.0259049 0)
(-1.17698 -0.0206044 0)
(-1.19508 -0.0146201 0)
(-1.20957 -0.00789772 0)
(-1.22039 -0.000321627 0)
(-1.22655 0.00784744 0)
(-1.22981 0.015374 0)
(-1.23111 0.020611 0)
(-1.23216 0.0220479 0)
(-1.23444 0.0197801 0)
(-1.23853 0.01497 0)
(-1.24431 0.009001 0)
(-1.25149 0.00231042 0)
(-1.25863 -0.00574267 0)
(-1.26375 -0.0129426 0)
(-0.114335 -0.52271 0)
(-0.264686 -0.377104 0)
(-0.452769 -0.249695 0)
(-0.613335 -0.161932 0)
(-0.757331 -0.101056 0)
(-0.881414 -0.0607703 0)
(-0.986419 -0.035586 0)
(-1.07297 -0.0213713 0)
(-1.14399 -0.0141578 0)
(-1.20296 -0.0110795 0)
(-1.25271 -0.0103665 0)
(-1.29537 -0.0108556 0)
(-1.33241 -0.011669 0)
(-1.36488 -0.0120723 0)
(-1.39333 -0.01157 0)
(-1.41806 -0.00997434 0)
(-1.43938 -0.00737939 0)
(-1.45737 -0.00396143 0)
(-1.47176 0.000259697 0)
(-1.48221 0.00535712 0)
(-1.48939 0.0111468 0)
(-1.49401 0.0169847 0)
(-1.49702 0.0213964 0)
(-1.49978 0.0230147 0)
(-1.50344 0.0215208 0)
(-1.50853 0.0175717 0)
(-1.51524 0.0121465 0)
(-1.52356 0.00569278 0)
(-1.53184 -0.00163552 0)
(-1.53692 -0.00776901 0)
(-0.171012 -0.327908 0)
(-0.388745 -0.186123 0)
(-0.638346 -0.0661574 0)
(-0.832429 -0.000201249 0)
(-0.988964 0.0314165 0)
(-1.11417 0.0442241 0)
(-1.2144 0.0464233 0)
(-1.29641 0.043276 0)
(-1.36453 0.037649 0)
(-1.4216 0.0311353 0)
(-1.46998 0.0246257 0)
(-1.51142 0.0185376 0)
(-1.5471 0.013183 0)
(-1.57785 0.00897024 0)
(-1.60463 0.00626958 0)
(-1.62822 0.00514535 0)
(-1.64896 0.00529819 0)
(-1.66674 0.00636447 0)
(-1.68142 0.00827661 0)
(-1.69289 0.0112479 0)
(-1.7014 0.0152915 0)
(-1.70767 0.019842 0)
(-1.71273 0.0236425 0)
(-1.7177 0.0253802 0)
(-1.72339 0.0244458 0)
(-1.73019 0.0211228 0)
(-1.73847 0.0161488 0)
(-1.74841 0.0100336 0)
(-1.75818 0.00327882 0)
(-1.76273 -0.00201414 0)
(-0.244301 -0.0260506 0)
(-0.50728 0.11661 0)
(-0.76892 0.155131 0)
(-0.969183 0.162785 0)
(-1.1314 0.155646 0)
(-1.26201 0.140989 0)
(-1.3674 0.123448 0)
(-1.4529 0.105385 0)
(-1.52277 0.0880622 0)
(-1.58063 0.0724423 0)
(-1.62948 0.0589544 0)
(-1.67141 0.0474002 0)
(-1.70765 0.0375472 0)
(-1.73901 0.0296007 0)
(-1.76642 0.0239231 0)
(-1.79078 0.0204265 0)
(-1.81261 0.0184763 0)
(-1.83179 0.0174054 0)
(-1.84785 0.0170773 0)
(-1.86055 0.0179005 0)
(-1.87031 0.0202295 0)
(-1.87814 0.0236981 0)
(-1.88525 0.0271037 0)
(-1.89261 0.0290057 0)
(-1.90069 0.0285048 0)
(-1.90966 0.0256079 0)
(-1.91986 0.0209541 0)
(-1.93156 0.0151908 0)
(-1.94276 0.00901613 0)
(-1.94837 0.00443799 0)
(-0.28315 0.35011 0)
(-0.575355 0.400408 0)
(-0.871166 0.378558 0)
(-1.09234 0.3373 0)
(-1.26424 0.29093 0)
(-1.39764 0.245739 0)
(-1.50245 0.205076 0)
(-1.58612 0.16972 0)
(-1.65378 0.139331 0)
(-1.70945 0.114007 0)
(-1.75664 0.0935543 0)
(-1.79769 0.076776 0)
(-1.83355 0.0625119 0)
(-1.86465 0.0507376 0)
(-1.89192 0.0420462 0)
(-1.91663 0.0363559 0)
(-1.93949 0.0325692 0)
(-1.96013 0.0294725 0)
(-1.9776 0.026791 0)
(-1.9914 0.0253088 0)
(-2.00217 0.0259244 0)
(-2.01134 0.0285401 0)
(-2.02043 0.0318475 0)
(-2.03032 0.0340764 0)
(-2.04111 0.033962 0)
(-2.0526 0.0312873 0)
(-2.06495 0.0267362 0)
(-2.07842 0.0212279 0)
(-2.09083 0.0156348 0)
(-2.09686 0.0116381 0)
(-0.334027 0.759296 0)
(-0.680896 0.744339 0)
(-1.01184 0.631379 0)
(-1.23866 0.520015 0)
(-1.40543 0.425983 0)
(-1.53019 0.346602 0)
(-1.6259 0.281906 0)
(-1.70176 0.229922 0)
(-1.76297 0.187185 0)
(-1.81315 0.152739 0)
(-1.8563 0.126286 0)
(-1.89514 0.105325 0)
(-1.92991 0.0871227 0)
(-1.96006 0.0715116 0)
(-1.98642 0.059903 0)
(-2.01092 0.0524905 0)
(-2.03471 0.0474357 0)
(-2.05701 0.0425709 0)
(-2.07601 0.0373789 0)
(-2.09073 0.0333009 0)
(-2.10204 0.0321611 0)
(-2.11211 0.0342346 0)
(-2.12296 0.0378813 0)
(-2.1354 0.0407232 0)
(-2.14905 0.0409991 0)
(-2.16313 0.0383006 0)
(-2.1775 0.0335108 0)
(-2.19238 0.0280018 0)
(-2.20563 0.0228954 0)
(-2.21189 0.019496 0)
(-0.433679 1.25905 0)
(-0.862894 1.14464 0)
(-1.21935 0.895851 0)
(-1.42279 0.690342 0)
(-1.56185 0.547126 0)
(-1.66395 0.433596 0)
(-1.74036 0.347143 0)
(-1.80192 0.282833 0)
(-1.85288 0.230215 0)
(-1.89449 0.187065 0)
(-1.93118 0.155669 0)
(-1.96689 0.132205 0)
(-2.00052 0.110814 0)
(-2.0293 0.0912226 0)
(-2.05375 0.076782 0)
(-2.07725 0.0685277 0)
(-2.10192 0.0632858 0)
(-2.12633 0.0571069 0)
(-2.14714 0.0490521 0)
(-2.16238 0.0417309 0)
(-2.17336 0.0385988 0)
(-2.18348 0.0404936 0)
(-2.19558 0.0450647 0)
(-2.21043 0.0489074 0)
(-2.22697 0.0495896 0)
(-2.24365 0.0465478 0)
(-2.25984 0.041061 0)
(-2.27578 0.0352213 0)
(-2.2896 0.030513 0)
(-2.29603 0.0277324 0)
(-0.637401 2.17609 0)
(-1.16275 1.77155 0)
(-1.53419 1.18568 0)
(-1.65995 0.792428 0)
(-1.73353 0.62909 0)
(-1.79806 0.500249 0)
(-1.8433 0.399333 0)
(-1.88467 0.327752 0)
(-1.92465 0.265229 0)
(-1.9558 0.210704 0)
(-1.98286 0.177009 0)
(-2.01449 0.156743 0)
(-2.04775 0.135041 0)
(-2.07498 0.111192 0)
(-2.09598 0.0930599 0)
(-2.11714 0.0846518 0)
(-2.14276 0.0804579 0)
(-2.17026 0.0732616 0)
(-2.19347 0.0614638 0)
(-2.20868 0.0496641 0)
(-2.21793 0.0440966 0)
(-2.22683 0.0464566 0)
(-2.23964 0.0529587 0)
(-2.25697 0.0584846 0)
(-2.27673 0.0597249 0)
(-2.29623 0.0560269 0)
(-2.31413 0.0492942 0)
(-2.33075 0.0427177 0)
(-2.34479 0.0383506 0)
(-2.35131 0.0362431 0)
(9.9959 0.138451 0)
(9.98225 0.275249 0)
(9.9581 0.412541 0)
(9.92452 0.552295 0)
(9.8824 0.696188 0)
(9.83213 0.845771 0)
(9.77395 1.00255 0)
(9.7081 1.168 0)
(9.63486 1.34359 0)
(9.5545 1.53078 0)
(9.46731 1.73105 0)
(9.37353 1.94597 0)
(9.27343 2.17715 0)
(9.16729 2.42634 0)
(9.05533 2.69545 0)
(8.93779 2.98661 0)
(8.81486 3.30228 0)
(8.68667 3.64535 0)
(8.5533 4.01932 0)
(8.41476 4.42858 0)
(8.27097 4.87877 0)
(8.12183 5.37734 0)
(7.9673 5.93447 0)
(7.80765 6.56452 0)
(7.64413 7.28855 0)
(7.48176 8.13917 0)
(7.33391 9.17039 0)
(7.2909 10.4758 0)
(7.75183 12.2004 0)
(7.93922 14.9203 0)
(9.99638 0.143411 0)
(9.98433 0.285105 0)
(9.96305 0.427272 0)
(9.9335 0.571908 0)
(9.89654 0.720707 0)
(9.85259 0.875225 0)
(9.80193 1.03697 0)
(9.74487 1.20742 0)
(9.68177 1.38802 0)
(9.613 1.58024 0)
(9.53897 1.78555 0)
(9.46006 2.00548 0)
(9.37674 2.24165 0)
(9.28947 2.49577 0)
(9.19878 2.76974 0)
(9.10525 3.06566 0)
(9.00952 3.38596 0)
(8.91236 3.7335 0)
(8.81468 4.1117 0)
(8.71766 4.52485 0)
(8.62291 4.97835 0)
(8.53281 5.47923 0)
(8.45107 6.0368 0)
(8.38399 6.66365 0)
(8.34275 7.37697 0)
(8.34949 8.20017 0)
(8.44314 9.16333 0)
(8.67973 10.2996 0)
(9.32826 11.5534 0)
(9.82084 12.6384 0)
(9.99688 0.147849 0)
(9.9865 0.293919 0)
(9.96818 0.440425 0)
(9.94281 0.589382 0)
(9.91118 0.742485 0)
(9.87374 0.901285 0)
(9.83081 1.06728 0)
(9.78277 1.24192 0)
(9.73005 1.42665 0)
(9.67313 1.62289 0)
(9.61251 1.83208 0)
(9.54874 2.0557 0)
(9.48245 2.29532 0)
(9.41433 2.55258 0)
(9.34518 2.8293 0)
(9.27592 3.12745 0)
(9.20765 3.44933 0)
(9.14172 3.79755 0)
(9.0798 4.17524 0)
(9.02412 4.58615 0)
(8.9777 5.03489 0)
(8.94482 5.52711 0)
(8.93177 6.06979 0)
(8.94809 6.67131 0)
(9.00828 7.34108 0)
(9.1345 8.0877 0)
(9.35776 8.91295 0)
(9.6875 9.80555 0)
(10.2533 10.7138 0)
(10.9408 11.4271 0)
(9.9974 0.151712 0)
(9.98873 0.301582 0)
(9.97346 0.451835 0)
(9.95237 0.604486 0)
(9.9262 0.761221 0)
(9.89541 0.923577 0)
(9.86036 1.09302 0)
(9.8215 1.27099 0)
(9.77933 1.45886 0)
(9.73441 1.65803 0)
(9.68734 1.86986 0)
(9.63882 2.09577 0)
(9.58964 2.33722 0)
(9.54069 2.59574 0)
(9.49302 2.873 0)
(9.44787 3.17078 0)
(9.40673 3.4911 0)
(9.37141 3.83621 0)
(9.34422 4.20869 0)
(9.32813 4.6115 0)
(9.32707 5.04806 0)
(9.34635 5.52218 0)
(9.39321 6.03798 0)
(9.47756 6.59941 0)
(9.61259 7.20923 0)
(9.81512 7.86704 0)
(10.1079 8.5657 0)
(10.4995 9.29046 0)
(11.0567 10.0311 0)
(11.8491 10.6746 0)
(9.99792 0.154952 0)
(9.991 0.308004 0)
(9.97883 0.461365 0)
(9.9621 0.617041 0)
(9.94147 0.776697 0)
(9.91741 0.941839 0)
(9.89034 1.1139 0)
(9.86074 1.29427 0)
(9.82918 1.48427 0)
(9.79628 1.68522 0)
(9.76277 1.89841 0)
(9.72945 2.12515 0)
(9.69724 2.36677 0)
(9.66722 2.62465 0)
(9.64065 2.90024 0)
(9.619 3.19506 0)
(9.60406 3.51078 0)
(9.598 3.84916 0)
(9.60352 4.21212 0)
(9.624 4.6017 0)
(9.66376 5.02001 0)
(9.72833 5.46904 0)
(9.82477 5.9504 0)
(9.96204 6.46478 0)
(10.1512 7.01107 0)
(10.4053 7.58537 0)
(10.7415 8.17954 0)
(11.1716 8.77887 0)
(11.7183 9.3718 0)
(12.4706 9.88345 0)
(9.99845 0.157527 0)
(9.9933 0.313097 0)
(9.98426 0.468891 0)
(9.97192 0.626884 0)
(9.95687 0.788709 0)
(9.93957 0.955833 0)
(9.92048 1.12964 0)
(9.90013 1.31145 0)
(9.87914 1.50253 0)
(9.85819 1.7041 0)
(9.83808 1.91735 0)
(9.81971 2.14346 0)
(9.80413 2.38361 0)
(9.79253 2.63897 0)
(9.78633 2.91076 0)
(9.78716 3.20018 0)
(9.797 3.50848 0)
(9.81822 3.83691 0)
(9.85367 4.18668 0)
(9.90686 4.55892 0)
(9.98204 4.95452 0)
(10.0845 5.37395 0)
(10.2204 5.81693 0)
(10.3975 6.282 0)
(10.6245 6.76591 0)
(10.911 7.26286 0)
(11.2683 7.76362 0)
(11.7042 8.25265 0)
(12.2197 8.71324 0)
(12.8945 9.10392 0)
(9.99898 0.159398 0)
(9.9956 0.316785 0)
(9.9897 0.474297 0)
(9.98174 0.633865 0)
(9.97225 0.797077 0)
(9.96168 0.965347 0)
(9.95052 1.14 0)
(9.93933 1.32228 0)
(9.92875 1.51337 0)
(9.91953 1.71439 0)
(9.91253 1.92641 0)
(9.9087 2.15046 0)
(9.90917 2.38753 0)
(9.91523 2.63859 0)
(9.92835 2.90458 0)
(9.95029 3.18637 0)
(9.98309 3.48479 0)
(10.0291 3.80056 0)
(10.0913 4.13422 0)
(10.1728 4.48609 0)
(10.2778 4.85604 0)
(10.4107 5.24339 0)
(10.5769 5.64655 0)
(10.7822 6.06271 0)
(11.0332 6.48737 0)
(11.3362 6.91385 0)
(11.6972 7.3328 0)
(12.1205 7.7308 0)
(12.5998 8.09331 0)
(13.2042 8.39985 0)
(9.99951 0.16053 0)
(9.99788 0.319002 0)
(9.99509 0.477488 0)
(9.99148 0.63786 0)
(9.98749 0.80165 0)
(9.98357 0.970209 0)
(9.9802 1.14479 0)
(9.97797 1.32656 0)
(9.97755 1.51659 0)
(9.97973 1.7159 0)
(9.98537 1.92542 0)
(9.99549 2.14602 0)
(10.0112 2.37851 0)
(10.034 2.62362 0)
(10.0651 2.88201 0)
(10.1065 3.15423 0)
(10.1601 3.4407 0)
(10.2282 3.74165 0)
(10.3135 4.05706 0)
(10.419 4.38655 0)
(10.5481 4.72927 0)
(10.7047 5.08368 0)
(10.8928 5.44739 0)
(11.1168 5.81689 0)
(11.3809 6.18727 0)
(11.689 6.55198 0)
(12.0438 6.90275 0)
(12.4469 7.22927 0)
(12.8907 7.52043 0)
(13.4329 7.76493 0)
(10 0.160897 0)
(10.0001 0.319693 0)
(10.0004 0.478382 0)
(10.0011 0.638767 0)
(10.0025 0.80231 0)
(10.005 0.970291 0)
(10.0092 1.14388 0)
(10.0157 1.32415 0)
(10.0251 1.51208 0)
(10.0382 1.70855 0)
(10.0559 1.91435 0)
(10.0792 2.1302 0)
(10.1093 2.35671 0)
(10.1475 2.59438 0)
(10.1952 2.84361 0)
(10.2542 3.10464 0)
(10.3262 3.37752 0)
(10.4135 3.66208 0)
(10.5184 3.95781 0)
(10.6435 4.26385 0)
(10.7915 4.5788 0)
(10.9655 4.90066 0)
(11.1686 5.22661 0)
(11.4035 5.55296 0)
(11.6729 5.87497 0)
(11.9788 6.18677 0)
(12.3218 6.48152 0)
(12.7018 6.75139 0)
(13.111 6.98806 0)
(13.5981 7.1847 0)
(10.0005 0.160475 0)
(10.0023 0.318815 0)
(10.0056 0.476921 0)
(10.0104 0.636511 0)
(10.017 0.798973 0)
(10.0258 0.965506 0)
(10.0374 1.13719 0)
(10.0522 1.315 0)
(10.0709 1.4998 0)
(10.0944 1.69235 0)
(10.1235 1.8933 0)
(10.1591 2.1032 0)
(10.2025 2.32248 0)
(10.2548 2.55142 0)
(10.3174 2.79018 0)
(10.3919 3.03872 0)
(10.48 3.29681 0)
(10.5836 3.56391 0)
(10.7045 3.83921 0)
(10.8451 4.12148 0)
(11.0074 4.40901 0)
(11.1936 4.69957 0)
(11.4059 4.99027 0)
(11.6459 5.27753 0)
(11.915 5.55707 0)
(12.2138 5.82391 0)
(12.5418 6.07253 0)
(12.8978 6.29705 0)
(13.2746 6.49144 0)
(13.714 6.65155 0)
(10.001 0.159251 0)
(10.0044 0.31634 0)
(10.0106 0.473064 0)
(10.0194 0.631049 0)
(10.031 0.791595 0)
(10.0459 0.955816 0)
(10.0644 1.1247 0)
(10.0871 1.29911 0)
(10.1147 1.47981 0)
(10.1479 1.66743 0)
(10.1875 1.86249 0)
(10.2345 2.06536 0)
(10.2899 2.2763 0)
(10.3549 2.49543 0)
(10.4307 2.72267 0)
(10.5187 2.95778 0)
(10.6204 3.20025 0)
(10.7374 3.44934 0)
(10.8712 3.70398 0)
(11.0236 3.96275 0)
(11.196 4.22382 0)
(11.3901 4.48491 0)
(11.607 4.74324 0)
(11.8478 4.99556 0)
(12.1127 5.23816 0)
(12.4015 5.46695 0)
(12.713 5.6776 0)
(13.0455 5.86577 0)
(13.3927 6.02723 0)
(13.7911 6.15948 0)
(10.0015 0.157216 0)
(10.0065 0.312253 0)
(10.0154 0.466794 0)
(10.028 0.622362 0)
(10.0444 0.780167 0)
(10.065 0.94123 0)
(10.09 1.10644 0)
(10.1202 1.27657 0)
(10.156 1.45226 0)
(10.1981 1.63401 0)
(10.2474 1.82222 0)
(10.3047 2.01712 0)
(10.3709 2.21882 0)
(10.4471 2.42725 0)
(10.5343 2.64219 0)
(10.6338 2.86319 0)
(10.7468 3.08961 0)
(10.8746 3.32051 0)
(11.0183 3.55472 0)
(11.1792 3.79073 0)
(11.3583 4.02669 0)
(11.5567 4.26043 0)
(11.7748 4.48941 0)
(12.0131 4.71078 0)
(12.2711 4.92144 0)
(12.5483 5.1181 0)
(12.843 5.29747 0)
(13.1534 5.45638 0)
(13.4739 5.59191 0)
(13.8371 5.70258 0)
(10.0019 0.15437 0)
(10.0084 0.306554 0)
(10.0199 0.458113 0)
(10.0361 0.610462 0)
(10.0571 0.764716 0)
(10.0829 0.921802 0)
(10.1141 1.08251 0)
(10.1512 1.24751 0)
(10.1945 1.41734 0)
(10.2449 1.59238 0)
(10.3029 1.77291 0)
(10.3693 1.95904 0)
(10.4451 2.15074 0)
(10.5309 2.34781 0)
(10.6279 2.5499 0)
(10.7369 2.75643 0)
(10.859 2.96664 0)
(10.9951 3.17952 0)
(11.146 3.39385 0)
(11.3127 3.60812 0)
(11.4957 3.82057 0)
(11.6955 4.02922 0)
(11.9122 4.23181 0)
(12.1457 4.42593 0)
(12.3954 4.60905 0)
(12.6601 4.77859 0)
(12.9384 4.93207 0)
(13.2282 5.06721 0)
(13.5249 5.18205 0)
(13.8577 5.27573 0)
(10.0024 0.150718 0)
(10.0102 0.299255 0)
(10.0241 0.447046 0)
(10.0438 0.595391 0)
(10.0689 0.745309 0)
(10.0997 0.897631 0)
(10.1366 1.05306 0)
(10.1799 1.21215 0)
(10.2301 1.37534 0)
(10.2878 1.54292 0)
(10.3536 1.71505 0)
(10.4281 1.89175 0)
(10.5121 2.07286 0)
(10.6062 2.2581 0)
(10.7112 2.447 0)
(10.8279 2.63893 0)
(10.9571 2.83304 0)
(11.0993 3.02833 0)
(11.2552 3.22355 0)
(11.4252 3.4173 0)
(11.6097 3.60796 0)
(11.8088 3.79375 0)
(12.0222 3.97276 0)
(12.2495 4.14296 0)
(12.4898 4.30234 0)
(12.742 4.44891 0)
(13.0045 4.58084 0)
(13.2754 4.6965 0)
(13.5509 4.79459 0)
(13.8574 4.87468 0)
(10.0027 0.146273 0)
(10.0119 0.290382 0)
(10.0281 0.433634 0)
(10.0508 0.577214 0)
(10.0798 0.722041 0)
(10.1152 0.868854 0)
(10.1572 1.01826 0)
(10.2062 1.17072 0)
(10.2626 1.32659 0)
(10.3268 1.48606 0)
(10.3994 1.6492 0)
(10.4809 1.81592 0)
(10.5718 1.98602 0)
(10.6727 2.15913 0)
(10.7843 2.33471 0)
(10.907 2.51209 0)
(11.0414 2.69042 0)
(11.1879 2.8687 0)
(11.3468 3.04577 0)
(11.5183 3.22032 0)
(11.7025 3.39091 0)
(11.8991 3.556 0)
(12.1079 3.71398 0)
(12.328 3.86322 0)
(12.5586 4.00211 0)
(12.7985 4.12914 0)
(13.046 4.24299 0)
(13.2997 4.34252 0)
(13.5563 4.42687 0)
(13.8399 4.49588 0)
(10.0031 0.141053 0)
(10.0134 0.279974 0)
(10.0317 0.41794 0)
(10.0573 0.556021 0)
(10.0898 0.695039 0)
(10.1293 0.835641 0)
(10.1759 0.978344 0)
(10.23 1.12354 0)
(10.2918 1.27147 0)
(10.3618 1.42227 0)
(10.4402 1.57592 0)
(10.5276 1.73229 0)
(10.6243 1.89108 0)
(10.7307 2.0519 0)
(10.8474 2.21418 0)
(10.9746 2.37723 0)
(11.1126 2.54024 0)
(11.2618 2.70225 0)
(11.4221 2.86219 0)
(11.5935 3.01888 0)
(11.776 3.17109 0)
(11.969 3.31748 0)
(12.1722 3.45675 0)
(12.3846 3.58758 0)
(12.6054 3.70872 0)
(12.8333 3.81906 0)
(13.0671 3.91762 0)
(13.3051 4.00364 0)
(13.5448 4.07656 0)
(13.8083 4.1364 0)
(10.0034 0.135082 0)
(10.0148 0.268079 0)
(10.035 0.400041 0)
(10.0631 0.531923 0)
(10.0988 0.664453 0)
(10.142 0.798193 0)