/*--------------------------------*- C++ -*----------------------------------*\
  =========                 |
  \\      /  F ield         | OpenFOAM: The Open Source CFD Toolbox
   \\    /   O peration     | Website:  https://openfoam.org
    \\  /    A nd           | Version:  7
     \\/     M anipulation  |
\*---------------------------------------------------------------------------*/
FoamFile
{
    version     2.0;
    format      ascii;
    class       surfaceVectorField;
    location    "3.5";
    object      Uf;
}
// * * * * * * * * * * * * * * * * * * * * * * * * * * * * * * * * * * * * * //

dimensions      [0 1 -1 0 0 0 0];

internalField   nonuniform List<vector> 
5457
(
(9.92088 0.0251097 0)
(9.97125 0.0387459 0)
(9.82401 0.032827 0)
(9.92859 0.0485855 0)
(9.70961 0.0393123 0)
(9.85548 0.0587686 0)
(9.57543 0.046012 0)
(9.7568 0.0705941 0)
(9.42138 0.0529494 0)
(9.63753 0.0830143 0)
(9.24754 0.0601667 0)
(9.49861 0.0959374 0)
(9.05361 0.0678114 0)
(9.3393 0.109614 0)
(8.83892 0.0760349 0)
(9.15873 0.12429 0)
(8.60251 0.0849704 0)
(8.95609 0.140168 0)
(8.34326 0.0947447 0)
(8.73037 0.157433 0)
(8.05984 0.105487 0)
(8.4804 0.176269 0)
(7.7508 0.117327 0)
(8.20477 0.196856 0)
(7.41456 0.130394 0)
(7.90195 0.21936 0)
(7.04951 0.144809 0)
(7.57031 0.243921 0)
(6.65405 0.16067 0)
(7.2082 0.270629 0)
(6.22674 0.178042 0)
(6.81401 0.299496 0)
(5.76646 0.196925 0)
(6.38636 0.330409 0)
(5.27262 0.21723 0)
(5.92421 0.363078 0)
(4.74544 0.238732 0)
(5.42716 0.39697 0)
(4.18628 0.261028 0)
(4.89572 0.431231 0)
(3.59806 0.283484 0)
(4.33172 0.464614 0)
(2.98565 0.305199 0)
(3.7387 0.49542 0)
(2.35622 0.325067 0)
(3.12238 0.52151 0)
(1.71921 0.342547 0)
(2.49118 0.540557 0)
(1.08445 0.36188 0)
(1.85597 0.551675 0)
(0.451941 0.348708 0)
(1.24558 0.563022 0)
(-0.145768 0.102504 0)
(0.609039 0.544912 0)
(-0.423591 -0.207088 0)
(0.094705 0.259408 0)
(-0.402144 -0.361267 0)
(-0.133609 -0.0205096 0)
(-0.119677 -0.393875 0)
(9.99641 0.0516727 0)
(9.99705 0.0405049 0)
(9.95879 0.0708621 0)
(9.97851 0.0674551 0)
(9.89824 0.0879877 0)
(9.93377 0.089871 0)
(9.81658 0.105986 0)
(9.86453 0.113556 0)
(9.71358 0.124923 0)
(9.77437 0.138516 0)
(9.58908 0.144855 0)
(9.66435 0.164648 0)
(9.44273 0.166091 0)
(9.53396 0.192334 0)
(9.27389 0.188968 0)
(9.38249 0.222032 0)
(9.08165 0.213783 0)
(9.20918 0.25415 0)
(8.86489 0.240815 0)
(9.01315 0.289064 0)
(8.62229 0.270336 0)
(8.7933 0.327152 0)
(8.35238 0.302605 0)
(8.54835 0.368784 0)
(8.05356 0.337854 0)
(8.27683 0.414313 0)
(7.72412 0.376258 0)
(7.97717 0.464041 0)
(7.36238 0.417896 0)
(7.64772 0.518182 0)
(6.96674 0.4627 0)
(7.28684 0.576797 0)
(6.53586 0.510378 0)
(6.89298 0.639715 0)
(6.06888 0.560324 0)
(6.46485 0.706415 0)
(5.56565 0.611511 0)
(6.00165 0.775896 0)
(5.02717 0.662375 0)
(5.50332 0.84651 0)
(4.45596 0.7107 0)
(4.97097 0.915794 0)
(3.85659 0.753534 0)
(4.40727 0.980296 0)
(3.2363 0.787193 0)
(3.81714 1.03545 0)
(2.60592 0.807503 0)
(3.20856 1.07548 0)
(1.9829 0.810473 0)
(2.5935 1.09315 0)
(1.40538 0.776915 0)
(1.9963 1.0771 0)
(0.929837 0.646432 0)
(1.41959 0.978444 0)
(0.439937 0.384386 0)
(0.93764 0.716838 0)
(0.0592131 -0.11857 0)
(0.443867 0.343579 0)
(0.174936 -0.33588 0)
(9.98903 0.0594314 0)
(9.99481 0.0458779 0)
(9.95434 0.0894775 0)
(9.97368 0.0848551 0)
(9.89729 0.118033 0)
(9.92984 0.119175 0)
(9.82046 0.1479 0)
(9.86357 0.153978 0)
(9.72416 0.179424 0)
(9.77735 0.190411 0)
(9.60821 0.212777 0)
(9.67226 0.22864 0)
(9.47234 0.248394 0)
(9.54809 0.269132 0)
(9.31606 0.286776 0)
(9.40431 0.312499 0)
(9.13867 0.328398 0)
(9.24033 0.359327 0)
(8.93924 0.373721 0)
(9.05548 0.410174 0)
(8.71664 0.423203 0)
(8.84888 0.465596 0)
(8.46959 0.47729 0)
(8.6195 0.526148 0)
(8.19667 0.53639 0)
(8.36615 0.592364 0)
(7.89633 0.600831 0)
(8.08751 0.664726 0)
(7.56693 0.670795 0)
(7.7822 0.743602 0)
(7.20685 0.746239 0)
(7.44874 0.82917 0)
(6.8146 0.826762 0)
(7.0857 0.921296 0)
(6.38892 0.911461 0)
(6.69174 1.01938 0)
(5.92909 0.998735 0)
(6.26577 1.12214 0)
(5.43521 1.08607 0)
(5.80718 1.2274 0)
(4.90863 1.16981 0)
(5.31615 1.33172 0)
(4.35253 1.24488 0)
(4.79407 1.43017 0)
(3.7727 1.30454 0)
(4.24408 1.51586 0)
(3.17884 1.33984 0)
(3.67192 1.57942 0)
(2.58674 1.33813 0)
(3.08644 1.60775 0)
(2.01996 1.273 0)
(2.50303 1.58161 0)
(1.48703 1.09546 0)
(1.92883 1.4643 0)
(0.958361 0.76923 0)
(1.38533 1.21047 0)
(0.479916 0.202532 0)
(0.829594 0.801119 0)
(0.433755 0.134169 0)
(9.98515 0.0716147 0)
(9.99367 0.0531484 0)
(9.95039 0.113632 0)
(9.97087 0.102292 0)
(9.89436 0.154135 0)
(9.9269 0.147956 0)
(9.81882 0.195576 0)
(9.86185 0.193724 0)
(9.72441 0.238814 0)
(9.77746 0.241281 0)
(9.61111 0.284327 0)
(9.67466 0.291167 0)
(9.47873 0.332723 0)
(9.55342 0.343959 0)
(9.32694 0.384676 0)
(9.41335 0.400375 0)
(9.15522 0.440847 0)
(9.25399 0.461141 0)
(8.9629 0.501882 0)
(9.07482 0.526961 0)
(8.74915 0.568423 0)
(8.87518 0.598533 0)
(8.51303 0.641104 0)
(8.65428 0.676556 0)
(8.25345 0.720519 0)
(8.41121 0.76171 0)
(7.96926 0.807174 0)
(8.14499 0.854621 0)
(7.65918 0.901416 0)
(7.85454 0.955798 0)
(7.32194 1.00332 0)
(7.53876 1.06554 0)
(6.95623 1.11254 0)
(7.19648 1.18382 0)
(6.56089 1.2281 0)
(6.82656 1.31004 0)
(6.13494 1.34813 0)
(6.42794 1.44288 0)
(5.67791 1.46956 0)
(5.99972 1.57986 0)
(5.19008 1.58774 0)
(5.54142 1.71704 0)
(4.67296 1.696 0)
(5.05315 1.84851 0)
(4.12991 1.78513 0)
(4.53607 1.96581 0)
(3.56677 1.84253 0)
(3.99285 2.05729 0)
(2.99216 1.85074 0)
(3.42772 2.10715 0)
(2.41595 1.78253 0)
(2.84775 2.09451 0)
(1.84063 1.60052 0)
(2.25633 1.98879 0)
(1.25945 1.27851 0)
(1.6604 1.75313 0)
(0.666807 0.789633 0)
(1.02402 1.36787 0)
(0.523057 0.787265 0)
(9.98337 0.0844084 0)
(9.99316 0.0612921 0)
(9.94821 0.136839 0)
(9.96958 0.119929 0)
(9.89314 0.188035 0)
(9.92574 0.176243 0)
(9.81906 0.240172 0)
(9.86199 0.232701 0)
(9.72662 0.294471 0)
(9.77963 0.291091 0)
(9.61589 0.351663 0)
(9.67939 0.352278 0)
(9.4867 0.412473 0)
(9.56127 0.416981 0)
(9.33877 0.477678 0)
(9.42495 0.486011 0)
(9.17169 0.54805 0)
(9.27008 0.560206 0)
(8.98491 0.624351 0)
(9.09618 0.640385 0)
(8.77777 0.707336 0)
(8.90273 0.727363 0)
(8.54952 0.797753 0)
(8.68905 0.821947 0)
(8.29934 0.896309 0)
(8.45443 0.924927 0)
(8.02634 1.00363 0)
(8.19806 1.03703 0)
(7.72957 1.12018 0)
(7.91911 1.15889 0)
(7.40806 1.24613 0)
(7.61669 1.29089 0)
(7.06078 1.38123 0)
(7.28986 1.43311 0)
(6.68673 1.52454 0)
(6.93765 1.58506 0)
(6.2849 1.67414 0)
(6.55903 1.74545 0)
(5.85445 1.82674 0)
(6.15292 1.91183 0)
(5.39479 1.97721 0)
(5.71829 2.08011 0)
(4.90585 2.11802 0)
(5.25417 2.24404 0)
(4.38836 2.23859 0)
(4.75984 2.39457 0)
(3.84406 2.32454 0)
(4.23507 2.51918 0)
(3.27555 2.35697 0)
(3.68001 2.60124 0)
(2.6855 2.31064 0)
(3.09584 2.61974 0)
(2.07278 2.15508 0)
(2.4818 2.54739 0)
(1.42945 1.8675 0)
(1.84001 2.35382 0)
(0.742649 1.41969 0)
(1.13142 2.02466 0)
(0.543333 1.51464 0)
(9.98264 0.0974989 0)
(9.99299 0.0697936 0)
(9.94744 0.159777 0)
(9.96925 0.137585 0)
(9.89354 0.221351 0)
(9.92597 0.20393 0)
(9.82133 0.284096 0)
(9.8638 0.270692 0)
(9.73133 0.349352 0)
(9.78385 0.339587 0)
(9.62366 0.418023 0)
(9.68664 0.411702 0)
(9.49818 0.490942 0)
(9.57217 0.487908 0)
(9.35464 0.568976 0)
(9.4402 0.569108 0)
(9.19267 0.653004 0)
(9.29041 0.656235 0)
(9.01181 0.743894 0)
(9.1224 0.750212 0)
(8.81149 0.842508 0)
(8.93569 0.851951 0)
(8.59107 0.949696 0)
(8.7297 0.962356 0)
(8.34983 1.06626 0)
(8.50379 1.08231 0)
(8.08705 1.19294 0)
(8.25726 1.21262 0)
(7.80191 1.33027 0)
(7.98936 1.35401 0)
(7.4936 1.47856 0)
(7.69929 1.50699 0)
(7.1612 1.63764 0)
(7.38617 1.67172 0)
(6.80375 1.8067 0)
(7.04904 1.84786 0)
(6.42015 1.98391 0)
(6.68678 2.0343 0)
(6.00919 2.16608 0)
(6.29806 2.22877 0)
(5.56948 2.34805 0)
(5.88126 2.42742 0)
(5.09956 2.52216 0)
(5.43443 2.6242 0)
(4.59786 2.67754 0)
(4.95522 2.81025 0)
(4.06282 2.79949 0)
(4.44097 2.9732 0)
(3.49283 2.86913 0)
(3.88866 3.09663 0)
(2.88595 2.86298 0)
(3.29537 3.15994 0)
(2.23812 2.75403 0)
(2.65703 3.13799 0)
(1.54252 2.52116 0)
(1.97495 3.00332 0)
(0.79369 2.13149 0)
(1.20731 2.74077 0)
(0.556769 2.29201 0)
(9.9825 0.110628 0)
(9.99302 0.0783624 0)
(9.9477 0.182327 0)
(9.96954 0.155039 0)
(9.89522 0.253821 0)
(9.92722 0.230889 0)
(9.82524 0.326771 0)
(9.86696 0.307514 0)
(9.73812 0.40256 0)
(9.78977 0.386528 0)
(9.63402 0.482239 0)
(9.69604 0.469154 0)
(9.51284 0.566762 0)
(9.58578 0.556403 0)
(9.37436 0.657095 0)
(9.45878 0.649275 0)
(9.21826 0.754213 0)
(9.31478 0.74879 0)
(9.04412 0.859081 0)
(9.15344 0.855961 0)
(8.85142 0.972654 0)
(8.97431 0.971795 0)
(8.6396 1.09587 0)
(8.77688 1.09729 0)
(8.408 1.22962 0)
(8.56055 1.2334 0)
(8.15593 1.37472 0)
(8.32467 1.38105 0)
(7.88263 1.53183 0)
(8.0685 1.54105 0)
(7.58727 1.70134 0)
(7.79124 1.71401 0)
(7.2689 1.88324 0)
(7.49195 1.90025 0)
(6.92645 2.07691 0)
(7.16955 2.09964 0)
(6.55855 2.28079 0)
(6.82268 2.31132 0)
(6.16353 2.49199 0)
(6.44964 2.53342 0)
(5.73921 2.70577 0)
(6.04817 2.76257 0)
(5.28284 2.91494 0)
(5.61534 2.9934 0)
(4.79096 3.10912 0)
(5.14736 3.21779 0)
(4.25944 3.27419 0)
(4.63953 3.42424 0)
(3.68354 3.39189 0)
(4.08622 3.59715 0)
(3.05819 3.43975 0)
(3.48148 3.71658 0)
(2.37786 3.39191 0)
(2.81852 3.75823 0)
(1.63801 3.22634 0)
(2.09929 3.69414 0)
(0.839184 2.90105 0)
(1.27901 3.50469 0)
(0.573402 3.11394 0)
(9.98273 0.123583 0)
(9.99316 0.0868187 0)
(9.94873 0.204312 0)
(9.97026 0.172096 0)
(9.89794 0.285257 0)
(9.92926 0.256979 0)
(9.8305 0.367971 0)
(9.87123 0.342994 0)
(9.7467 0.453858 0)
(9.79714 0.431685 0)
(9.64667 0.544084 0)
(9.70734 0.524358 0)
(9.53036 0.639713 0)
(9.60179 0.622143 0)
(9.3976 0.741804 0)
(9.48036 0.726132 0)
(9.24811 0.851416 0)
(9.34284 0.837428 0)
(9.0815 0.969604 0)
(9.18891 0.957132 0)
(8.89733 1.09741 0)
(9.01821 1.08634 0)
(8.69507 1.23587 0)
(8.83026 1.22612 0)
(8.4741 1.38596 0)
(8.62451 1.37756 0)
(8.23374 1.5486 0)
(8.40033 1.54165 0)
(7.9732 1.72456 0)
(8.15699 1.71934 0)
(7.6916 1.91439 0)
(7.89362 1.91138 0)
(7.38785 2.11829 0)
(7.60919 2.1183 0)
(7.06064 2.33589 0)
(7.30242 2.34022 0)
(6.70824 2.56604 0)
(6.97167 2.57668 0)
(6.32843 2.8064 0)
(6.61476 2.82634 0)
(5.91819 3.05297 0)
(6.22879 3.08661 0)
(5.47357 3.29946 0)
(5.80985 3.35308 0)
(4.98945 3.5366 0)
(5.35279 3.61891 0)
(4.45951 3.75139 0)
(4.85105 3.87394 0)
(3.8764 3.92649 0)
(4.29662 4.10393 0)
(3.23251 4.03994 0)
(3.68076 4.28973 0)
(2.521 4.06513 0)
(2.99372 4.40689 0)
(1.7385 3.97634 0)
(2.23756 4.42477 0)
(0.889543 3.719 0)
(1.36348 4.31655 0)
(0.59881 3.9852 0)
(9.98321 0.136206 0)
(9.99339 0.0950419 0)
(9.95032 0.225576 0)
(9.97131 0.188593 0)
(9.9015 0.315502 0)
(9.93193 0.282054 0)
(9.83693 0.40751 0)
(9.87643 0.376967 0)
(9.75683 0.50302 0)
(9.80578 0.474849 0)
(9.66134 0.603285 0)
(9.72029 0.577059 0)
(9.55044 0.709466 0)
(9.61994 0.684824 0)
(9.42401 0.822707 0)
(9.50463 0.799324 0)
(9.28181 0.944148 0)
(9.37419 0.92174 0)
(9.12353 1.07493 0)
(9.2284 1.05325 0)
(8.94876 1.21618 0)
(9.06692 1.19503 0)
(8.75702 1.36903 0)
(8.88934 1.34826 0)
(8.54773 1.53456 0)
(8.69516 1.5141 0)
(8.32022 1.7138 0)
(8.48378 1.69367 0)
(8.07367 1.90769 0)
(8.25447 1.88806 0)
(7.80712 2.11696 0)
(8.00633 2.09821 0)
(7.51932 2.34208 0)
(7.73824 2.32489 0)
(7.20869 2.58306 0)
(7.44873 2.56859 0)
(6.87314 2.83929 0)
(7.13587 2.82935 0)
(6.50984 3.10916 0)
(6.79706 3.10652 0)
(6.11498 3.3897 0)
(6.42876 3.39849 0)
(5.68345 3.67593 0)
(6.02616 3.70218 0)
(5.20855 3.96013 0)
(5.58284 4.01238 0)
(4.68186 4.23095 0)
(5.09042 4.32089 0)
(4.09341 4.47233 0)
(4.5384 4.61536 0)
(3.43265 4.66262 0)
(3.91486 4.8779 0)
(2.69026 4.77331 0)
(3.20585 5.0837 0)
(1.86196 4.77263 0)
(2.41143 5.19818 0)
(0.954242 4.59002 0)
(1.47639 5.1846 0)
(0.639246 4.91982 0)
(9.98386 0.148372 0)
(9.99368 0.102946 0)
(9.95235 0.245976 0)
(9.9726 0.204398 0)
(9.90578 0.344406 0)
(9.9351 0.305976 0)
(9.84436 0.445207 0)
(9.8824 0.409279 0)
(9.76832 0.549821 0)
(9.81551 0.515827 0)
(9.67778 0.65957 0)
(9.7347 0.627023 0)
(9.57279 0.775698 0)
(9.63997 0.74417 0)
(9.45325 0.899426 0)
(9.53127 0.868527 0)
(9.31899 1.03197 0)
(9.4085 1.00135 0)
(9.16974 1.17455 0)
(9.27148 1.14388 0)
(9.00518 1.32839 0)
(9.11995 1.29738 0)
(8.82488 1.4947 0)
(8.95357 1.46311 0)
(8.6283 1.67468 0)
(8.77189 1.64234 0)
(8.4148 1.8695 0)
(8.57438 1.83633 0)
(8.18357 2.08027 0)
(8.36033 2.0463 0)
(7.93357 2.30798 0)
(8.12885 2.27343 0)
(7.66346 2.55341 0)
(7.87877 2.51879 0)
(7.37143 2.81707 0)
(7.60852 2.78329 0)
(7.05508 3.09899 0)
(7.31598 3.06756 0)
(6.71107 3.39852 0)
(6.99823 3.37182 0)
(6.33489 3.71394 0)
(6.65125 3.69563 0)
(5.92038 4.04197 0)
(6.2695 4.03751 0)
(5.45933 4.37695 0)
(5.84545 4.39437 0)
(4.94116 4.70981 0)
(5.36897 4.76061 0)
(4.35284 5.02652 0)
(4.82692 5.12667 0)
(3.67972 5.30624 0)
(4.20334 5.47706 0)
(2.90765 5.51833 0)
(3.47808 5.78757 0)
(2.02778 5.62327 0)
(2.64521 6.01973 0)
(1.04517 5.5298 0)
(1.63785 6.12428 0)
(0.704537 5.9435 0)
(9.98465 0.159985 0)
(9.99402 0.110465 0)
(9.95473 0.265388 0)
(9.97408 0.219405 0)
(9.91064 0.371829 0)
(9.93867 0.328621 0)
(9.85266 0.480895 0)
(9.88904 0.439787 0)
(9.78099 0.594058 0)
(9.82617 0.554447 0)
(9.69579 0.712695 0)
(9.75036 0.67404 0)
(9.59714 0.838121 0)
(9.66164 0.799933 0)
(9.48499 0.971628 0)
(9.56 0.93345 0)
(9.35924 1.1145 0)
(9.4454 1.07591 0)
(9.21969 1.26803 0)
(9.31772 1.22862 0)
(9.06608 1.43351 0)
(9.17679 1.39292 0)
(8.89805 1.61227 0)
(9.02235 1.57014 0)
(8.71516 1.8056 0)
(8.85404 1.76166 0)
(8.5168 2.01485 0)
(8.67139 1.96887 0)
(8.3022 2.2413 0)
(8.47378 2.19315 0)
(8.07035 2.48622 0)
(8.26039 2.43594 0)
(7.81985 2.7508 0)
(8.03006 2.69861 0)
(7.54882 3.03606 0)
(7.78126 2.98256 0)
(7.25465 3.34283 0)
(7.51181 3.28907 0)
(6.93372 3.67155 0)
(7.21869 3.61932 0)
(6.58102 4.02201 0)
(6.89768 3.97422 0)
(6.1896 4.39298 0)
(6.54283 4.35416 0)
(5.74996 4.78148 0)
(6.14586 4.75863 0)
(5.24935 5.18164 0)
(5.69529 5.18541 0)
(4.67122 5.58278 0)
(5.17535 5.62913 0)
(3.9952 5.96662 0)
(4.56541 6.07881 0)
(3.19871 6.30191 0)
(3.83668 6.51371 0)
(2.26201 6.54101 0)
(2.97116 6.89434 0)
(1.18075 6.56555 0)
(1.87939 7.15829 0)
(0.812928 7.09997 0)
(9.98553 0.170967 0)
(9.9944 0.117549 0)
(9.95738 0.283706 0)
(9.97572 0.233526 0)
(9.916 0.397646 0)
(9.94258 0.349879 0)
(9.86168 0.514425 0)
(9.89623 0.468365 0)
(9.79467 0.63555 0)
(9.83763 0.590556 0)
(9.71515 0.762446 0)
(9.76711 0.717928 0)
(9.62322 0.896484 0)
(9.68473 0.851894 0)
(9.51891 1.03902 0)
(9.59052 0.993837 0)
(9.40217 1.19139 0)
(9.48452 1.14512 0)
(9.27289 1.35495 0)
(9.36669 1.30713 0)
(9.13088 1.53108 0)
(9.23693 1.48123 0)
(8.9759 1.72118 0)
(9.09508 1.66887 0)
(8.80756 1.92667 0)
(8.94089 1.87148 0)
(8.62539 2.14903 0)
(8.774 2.09059 0)
(8.4287 2.38977 0)
(8.59392 2.32776 0)
(8.21655 2.65043 0)
(8.39994 2.58463 0)
(7.98764 2.9326 0)
(8.19106 2.86294 0)
(7.74014 3.23791 0)
(7.96588 3.16452 0)
(7.47147 3.568 0)
(7.72239 3.49138 0)
(7.17801 3.9245 0)
(7.45774 3.84564 0)
(6.85462 4.30892 0)
(7.16787 4.22965 0)
(6.49403 4.72242 0)
(6.84696 4.64587 0)
(6.08596 5.16532 0)
(6.48668 5.09673 0)
(5.61598 5.63613 0)
(6.07498 5.58423 0)
(5.06399 6.12972 0)
(5.59441 6.10888 0)
(4.40267 6.63378 0)
(5.02008 6.66747 0)
(3.59659 7.12138 0)
(4.3131 7.24858 0)
(2.60473 7.541 0)
(3.43623 7.82046 0)
(1.39455 7.74102 0)
(2.25692 8.31559 0)
(1.00286 8.46585 0)
(9.9865 0.181257 0)
(9.9948 0.124159 0)
(9.96026 0.30084 0)
(9.97747 0.246687 0)
(9.92176 0.421745 0)
(9.94676 0.369658 0)
(9.87132 0.545666 0)
(9.90387 0.4949 0)
(9.80922 0.674141 0)
(9.84976 0.624022 0)
(9.73565 0.808634 0)
(9.78476 0.758527 0)
(9.65078 0.950564 0)
(9.709 0.899869 0)
(9.55468 1.10133 0)
(9.62255 1.04947 0)
(9.44738 1.26233 0)
(9.52551 1.20874 0)
(9.32885 1.43496 0)
(9.41793 1.3791 0)
(9.19902 1.62067 0)
(9.29982 1.56198 0)
(9.05772 1.82093 0)
(9.17111 1.75887 0)
(8.90472 2.03727 0)
(9.03168 1.9713 0)
(8.73966 2.2713 0)
(8.88133 2.20088 0)
(8.56202 2.52472 0)
(8.71971 2.44933 0)
(8.37102 2.79935 0)
(8.54632 2.7185 0)
(8.16557 3.09717 0)
(8.36041 3.01042 0)
(7.94408 3.42038 0)
(8.16085 3.32736 0)
(7.70427 3.77144 0)
(7.94602 3.67195 0)
(7.44285 4.15317 0)
(7.71356 4.04725 0)
(7.15508 4.56885 0)
(7.46002 4.45695 0)
(6.83409 5.0222 0)
(7.18039 4.90554 0)
(6.46981 5.51735 0)
(6.86727 5.39855 0)
(6.04738 6.05845 0)
(6.50962 5.9427 0)
(5.54455 6.64855 0)
(6.09049 6.54589 0)
(4.92769 7.28693 0)
(5.58373 7.21656 0)
(4.14569 7.96157 0)
(4.94328 7.9615 0)
(3.12244 8.63403 0)
(4.11018 8.77589 0)
(1.75672 9.12868 0)
(2.87927 9.62163 0)
(1.36523 10.1865 0)
(9.98753 0.190804 0)
(9.99523 0.130264 0)
(9.96332 0.316717 0)
(9.97932 0.258832 0)
(9.92785 0.444036 0)
(9.95114 0.387881 0)
(9.88146 0.574507 0)
(9.91187 0.519302 0)
(9.82447 0.7097 0)
(9.86242 0.654735 0)
(9.7571 0.851109 0)
(9.80315 0.795708 0)
(9.67955 1.00019 0)
(9.73422 0.943702 0)
(9.59197 1.15837 0)
(9.65578 1.10017 0)
(9.49446 1.32709 0)
(9.568 1.26656 0)
(9.38709 1.5078 0)
(9.47101 1.4443 0)
(9.26988 1.70197 0)
(9.36492 1.63488 0)
(9.14281 1.91114 0)
(9.24978 1.83982 0)
(9.00578 2.13692 0)
(9.12562 2.0607 0)
(8.8586 2.38105 0)
(8.9924 2.29922 0)
(8.70097 2.64536 0)
(8.84999 2.55721 0)
(8.53236 2.93193 0)
(8.69815 2.83667 0)
(8.35201 3.24306 0)
(8.53645 3.13988 0)
(8.15875 3.58143 0)
(8.36419 3.46945 0)
(7.95085 3.95024 0)
(8.18033 3.82851 0)
(7.72575 4.35337 0)
(7.98326 4.22085 0)
(7.47971 4.79568 0)
(7.77064 4.65129 0)
(7.20719 5.28336 0)
(7.53898 5.12601 0)
(6.89979 5.8244 0)
(7.28305 5.65324 0)
(6.54457 6.42917 0)
(6.99487 6.24413 0)
(6.12078 7.11111 0)
(6.66172 6.91421 0)
(5.59369 7.88738 0)
(6.26306 7.68574 0)
(4.90177 8.77791 0)
(5.75845 8.5923 0)
(3.92792 9.80203 0)
(5.08859 9.6852 0)
(2.43414 10.858 0)
(3.98103 11.0501 0)
(2.14736 12.5705 0)
(9.98861 0.199569 0)
(9.99567 0.13584 0)
(9.96652 0.331273 0)
(9.98124 0.269915 0)
(9.93419 0.464435 0)
(9.9557 0.404487 0)
(9.89201 0.600842 0)
(9.92015 0.541496 0)
(9.84028 0.742092 0)
(9.87551 0.682608 0)
(9.77929 0.889698 0)
(9.82213 0.829368 0)
(9.70928 1.04514 0)
(9.76024 0.983276 0)
(9.63046 1.20988 0)
(9.69005 1.1458 0)
(9.54301 1.38537 0)
(9.61179 1.3184 0)
(9.4471 1.57308 0)
(9.5257 1.50254 0)
(9.34286 1.77452 0)
(9.43197 1.69971 0)
(9.23041 1.99128 0)
(9.33082 1.91144 0)
(9.10983 2.225 0)
(9.22241 2.13937 0)
(8.98112 2.4775 0)
(9.1069 2.38522 0)
(8.84423 2.75074 0)
(8.98441 2.65089 0)
(8.69898 3.04695 0)
(8.85499 2.93848 0)
(8.54501 3.36867 0)
(8.71861 3.25041 0)
(8.38171 3.71895 0)
(8.57512 3.58951 0)
(8.20815 4.10148 0)
(8.42417 3.9592 0)
(8.02287 4.52094 0)
(8.2652 4.36374 0)
(7.82368 4.98335 0)
(8.0973 4.80862 0)
(7.60729 5.49679 0)
(7.91912 5.30106 0)
(7.36871 6.07228 0)
(7.72869 5.85092 0)
(7.10001 6.72551 0)
(7.52316 6.47215 0)
(6.78806 7.47969 0)
(7.29829 7.18533 0)
(6.40933 8.37159 0)
(7.04868 8.02287 0)
(5.91682 9.46576 0)
(6.76416 9.04131 0)
(5.19791 10.9087 0)
(6.46389 10.3565 0)
(3.88662 13.1811 0)
(6.1933 12.3041 0)
(5.26481 16.3773 0)
(0.220234 -0.137191 0)
(0.126711 -0.215705 0)
(0.427493 -0.116507 0)
(0.305734 -0.198204 0)
(0.601415 -0.0922462 0)
(0.486516 -0.162394 0)
(0.743866 -0.0717519 0)
(0.643149 -0.129867 0)
(0.860428 -0.0556124 0)
(0.771777 -0.103756 0)
(0.956356 -0.0431472 0)
(0.877561 -0.083372 0)
(1.03613 -0.0336449 0)
(0.9662 -0.067693 0)
(1.10351 -0.0264954 0)
(1.04202 -0.055832 0)
(1.16157 -0.0211562 0)
(1.10818 -0.0469699 0)
(1.21266 -0.0171435 0)
(1.16712 -0.0403492 0)
(1.25842 -0.0140349 0)
(1.22063 -0.0352908 0)
(1.29985 -0.0114782 0)
(1.26995 -0.0312006 0)
(1.33739 -0.0092131 0)
(1.31575 -0.0275972 0)
(1.37106 -0.00709497 0)
(1.35824 -0.0241705 0)
(1.40077 -0.0050749 0)
(1.39735 -0.0208214 0)
(1.42645 -0.00309703 0)
(1.43297 -0.0175765 0)
(1.44791 -0.000962695 0)
(1.46513 -0.0143394 0)
(1.46429 0.0016605 0)
(1.49377 -0.0106823 0)
(1.47385 0.00490368 0)
(1.51822 -0.00608911 0)
(1.47532 0.00810186 0)
(1.53694 -0.000914849 0)
(1.46823 0.0102481 0)
(1.54838 0.00430024 0)
(1.45601 0.0108062 0)
(1.55285 0.00725105 0)
(1.44273 0.00982066 0)
(1.55359 0.00768483 0)
(1.4307 0.0078015 0)
(1.55431 0.00679772 0)
(1.42118 0.00525831 0)
(1.55675 0.00525714 0)
(1.41524 0.00232402 0)
(1.56129 0.00320255 0)
(1.41441 -0.000807859 0)
(1.56822 0.000434156 0)
(1.42124 -0.00362403 0)
(1.5783 -0.00350677 0)
(1.4353 -0.00546309 0)
(1.59202 -0.00705394 0)
(1.61326 -0.00875351 0)
(0.193217 -0.309408 0)
(0.0985405 -0.404949 0)
(0.380542 -0.271916 0)
(0.259229 -0.377344 0)
(0.540969 -0.221656 0)
(0.411524 -0.312188 0)
(0.675552 -0.178208 0)
(0.544679 -0.252563 0)
(0.789197 -0.143816 0)
(0.655542 -0.204915 0)
(0.886361 -0.117225 0)
(0.748713 -0.167819 0)
(0.970713 -0.0969589 0)
(0.82858 -0.139272 0)
(1.04524 -0.0817159 0)
(0.89841 -0.117585 0)
(1.11235 -0.0703286 0)
(0.960629 -0.101259 0)
(1.17389 -0.0617506 0)
(1.01711 -0.0889572 0)
(1.23121 -0.0550589 0)
(1.06927 -0.0794912 0)
(1.28514 -0.0494701 0)
(1.11812 -0.0718141 0)
(1.33609 -0.044397 0)
(1.16424 -0.0650542 0)
(1.38409 -0.0395249 0)
(1.20782 -0.0586297 0)
(1.4291 -0.0348019 0)
(1.24872 -0.0523639 0)
(1.47122 -0.0302222 0)
(1.28678 -0.046406 0)
(1.51081 -0.0254748 0)
(1.3221 -0.0407888 0)
(1.54792 -0.0198697 0)
(1.35519 -0.034897 0)
(1.58165 -0.0129909 0)
(1.38639 -0.0275741 0)
(1.60977 -0.00570432 0)
(1.4149 -0.018404 0)
(1.63154 0.000228404 0)
(1.43848 -0.00891686 0)
(1.64846 0.0037445 0)
(1.45581 -0.00277967 0)
(1.66402 0.00515338 0)
(1.46918 -0.00132282 0)
(1.67993 0.00520047 0)
(1.48202 -0.00219761 0)
(1.69675 0.00419862 0)
(1.49539 -0.00402537 0)
(1.71428 0.00200839 0)
(1.5088 -0.00624449 0)
(1.73196 -0.00149757 0)
(1.52133 -0.00886528 0)
(1.74906 -0.00590337 0)
(1.53152 -0.0122909 0)
(1.76668 -0.00960883 0)
(1.53938 -0.0158948 0)
(1.5476 -0.0163446 0)
(0.155076 -0.481266 0)
(0.0712536 -0.556837 0)
(0.301624 -0.426243 0)
(0.198864 -0.517488 0)
(0.425076 -0.351007 0)
(0.306831 -0.427458 0)
(0.528274 -0.285934 0)
(0.401959 -0.346645 0)
(0.615488 -0.234314 0)
(0.479718 -0.282547 0)
(0.69015 -0.194184 0)
(0.544927 -0.232708 0)
(0.75506 -0.163349 0)
(0.600473 -0.194354 0)
(0.812445 -0.139889 0)
(0.648527 -0.165131 0)
(0.864074 -0.122118 0)
(0.690779 -0.143026 0)
(0.911342 -0.10854 0)
(0.728564 -0.126292 0)
(0.955293 -0.0978258 0)
(0.762925 -0.113386 0)
(0.996602 -0.0888181 0)
(0.794648 -0.10292 0)
(1.03555 -0.0806157 0)
(0.824264 -0.0936877 0)
(1.07205 -0.072729 0)
(0.851975 -0.0848339 0)
(1.10589 -0.0651499 0)
(0.877595 -0.0760817 0)
(1.13711 -0.0580778 0)
(0.900634 -0.0677719 0)
(1.16629 -0.0512562 0)
(0.920677 -0.0602831 0)
(1.19411 -0.0434453 0)
(0.93845 -0.0530518 0)
(1.22027 -0.0331704 0)
(0.955416 -0.0442333 0)
(1.24296 -0.0211957 0)
(0.972834 -0.0325166 0)
(1.26067 -0.0117348 0)
(0.98843 -0.01967 0)
(1.27408 -0.0081848 0)
(0.991151 -0.0107316 0)
(1.28584 -0.00940281 0)
(0.980882 -0.00812925 0)
(1.2969 -0.0125281 0)
(0.968006 -0.00845294 0)
(1.30734 -0.0157964 0)
(0.955889 -0.00978755 0)
(1.31573 -0.0184861 0)
(0.945362 -0.0107617 0)
(1.32068 -0.0206331 0)
(0.93807 -0.0114705 0)
(1.3214 -0.0224107 0)
(0.930933 -0.0126612 0)
(1.31869 -0.022783 0)
(0.924398 -0.0145379 0)
(0.919051 -0.0172489 0)
(0.11426 -0.605319 0)
(0.0448596 -0.668747 0)
(0.213105 -0.531401 0)
(0.131817 -0.612014 0)
(0.291818 -0.435687 0)
(0.187935 -0.500955 0)
(0.356333 -0.354847 0)
(0.240099 -0.405461 0)
(0.409946 -0.291202 0)
(0.278501 -0.330269 0)
(0.454896 -0.241784 0)
(0.309498 -0.271775 0)
(0.493015 -0.20378 0)
(0.334095 -0.226701 0)
(0.525719 -0.174787 0)
(0.353518 -0.192227 0)
(0.554137 -0.152758 0)
(0.368797 -0.166015 0)
(0.579191 -0.135903 0)
(0.38076 -0.146082 0)
(0.601629 -0.122625 0)
(0.39008 -0.130691 0)
(0.622012 -0.111489 0)
(0.397363 -0.118268 0)
(0.640635 -0.101314 0)
(0.403236 -0.107379 0)
(0.657421 -0.0913857 0)
(0.408102 -0.0968837 0)
(0.671924 -0.0816692 0)
(0.411965 -0.0862471 0)
(0.683663 -0.0726621 0)
(0.414104 -0.075805 0)
(0.692921 -0.0647132 0)
(0.412474 -0.0664697 0)
(0.701203 -0.0571958 0)
(0.407153 -0.0584545 0)
(0.709908 -0.0484122 0)
(0.397701 -0.0497788 0)
(0.717399 -0.0365302 0)
(0.38839 -0.0371754 0)
(0.714623 -0.0223664 0)
(0.376521 -0.017984 0)
(0.694148 -0.01093 0)
(0.362257 0.001408 0)
(0.661561 -0.00517791 0)
(0.339432 0.0107357 0)
(0.626286 -0.00310371 0)
(0.314298 0.0114857 0)
(0.594286 -0.00215226 0)
(0.289332 0.00787301 0)
(0.568332 -0.00142325 0)
(0.266945 0.0032236 0)
(0.547805 -0.00183372 0)
(0.253467 -0.000671119 0)
(0.532701 -0.00411661 0)
(0.244468 -0.00490196 0)
(0.524596 -0.00866559 0)
(0.238376 -0.0104729 0)
(0.233799 -0.0186578 0)
(0.0677881 -0.684587 0)
(0.0173845 -0.735142 0)
(0.113695 -0.59096 0)
(0.0571251 -0.655915 0)
(0.143648 -0.479646 0)
(0.056882 -0.528922 0)
(0.16481 -0.388727 0)
(0.0627736 -0.424754 0)
(0.179497 -0.317467 0)
(0.0573837 -0.343342 0)
(0.1889 -0.262113 0)
(0.0492655 -0.279948 0)
(0.194013 -0.219461 0)
(0.0375956 -0.23104 0)
(0.19563 -0.18682 0)
(0.0231894 -0.193567 0)
(0.194402 -0.161948 0)
(0.00666246 -0.165022 0)
(0.190868 -0.142931 0)
(-0.011489 -0.143291 0)
(0.18552 -0.128069 0)
(-0.0308582 -0.126567 0)
(0.17883 -0.115784 0)
(-0.0509682 -0.11323 0)
(0.171236 -0.104654 0)
(-0.0711685 -0.101796 0)
(0.163008 -0.093631 0)
(-0.0908348 -0.0909773 0)
(0.153949 -0.0823345 0)
(-0.109563 -0.0798971 0)
(0.142914 -0.0710516 0)
(-0.127547 -0.0682535 0)
(0.127699 -0.0600679 0)
(-0.146379 -0.0563034 0)
(0.106235 -0.0484392 0)
(-0.166411 -0.0444512 0)
(0.0787066 -0.0335932 0)
(-0.189203 -0.0322436 0)
(0.0477625 -0.0137345 0)
(-0.211187 -0.01793 0)
(0.0210496 0.00704413 0)
(-0.233032 -0.00176248 0)
(0.00457525 0.0205985 0)
(-0.24397 0.0111758 0)
(-0.00997941 0.023762 0)
(-0.252108 0.0191615 0)
(-0.0241622 0.0194001 0)
(-0.260532 0.0195024 0)
(-0.0371063 0.0113992 0)
(-0.270511 0.0150166 0)
(-0.0464705 0.00317365 0)
(-0.280751 0.00826953 0)
(-0.0507385 -0.00369679 0)
(-0.286254 0.00157436 0)
(-0.0515765 -0.0102421 0)
(-0.288374 -0.00447145 0)
(-0.0505678 -0.0185565 0)
(-0.29155 -0.0109789 0)
(-0.296105 -0.0189987 0)
(0.0138911 -0.712414 0)
(-0.0132907 -0.748747 0)
(0.0037897 -0.598845 0)
(-0.0264246 -0.646254 0)
(-0.0176871 -0.476358 0)
(-0.0827356 -0.508869 0)
(-0.0421997 -0.380086 0)
(-0.126737 -0.402406 0)
(-0.0705583 -0.3049 0)
(-0.177381 -0.318099 0)
(-0.10121 -0.246904 0)
(-0.226847 -0.253308 0)
(-0.133403 -0.202477 0)
(-0.275757 -0.203722 0)
(-0.166487 -0.168646 0)
(-0.323281 -0.166156 0)
(-0.200035 -0.142914 0)
(-0.368857 -0.137882 0)
(-0.233747 -0.123229 0)
(-0.412126 -0.116663 0)
(-0.267319 -0.107868 0)
(-0.452955 -0.100675 0)
(-0.300357 -0.0953089 0)
(-0.491261 -0.0883523 0)
(-0.332354 -0.0842147 0)
(-0.526895 -0.078272 0)
(-0.36271 -0.0735413 0)
(-0.559624 -0.0691863 0)
(-0.390837 -0.06271 0)
(-0.589219 -0.0601826 0)
(-0.416284 -0.051666 0)
(-0.615601 -0.0508392 0)
(-0.438985 -0.0406312 0)
(-0.638874 -0.0411354 0)
(-0.459376 -0.0296328 0)
(-0.659228 -0.0311479 0)
(-0.47757 -0.018296 0)
(-0.676765 -0.0206547 0)
(-0.491959 -0.00668872 0)
(-0.690537 -0.00898058 0)
(-0.499782 0.00459332 0)
(-0.699117 0.0029877 0)
(-0.503639 0.0143091 0)
(-0.702053 0.0134626 0)
(-0.505653 0.0193007 0)
(-0.703621 0.0203277 0)
(-0.508818 0.0183172 0)
(-0.705408 0.0212916 0)
(-0.513474 0.0135257 0)
(-0.708959 0.0175862 0)
(-0.519096 0.00720721 0)
(-0.714248 0.011299 0)
(-0.524622 0.00068165 0)
(-0.719804 0.00448134 0)
(-0.529151 -0.0061437 0)
(-0.724398 -0.00214494 0)
(-0.531875 -0.0135832 0)
(-0.731008 -0.00961254 0)
(-0.73692 -0.017947 0)
(-0.0435191 -0.681182 0)
(-0.0493545 -0.706123 0)
(-0.111936 -0.552302 0)
(-0.117297 -0.580827 0)
(-0.184514 -0.427832 0)
(-0.227266 -0.441102 0)
(-0.25864 -0.331721 0)
(-0.32169 -0.334828 0)
(-0.330966 -0.257804 0)
(-0.414681 -0.253719 0)
(-0.400217 -0.201832 0)
(-0.500681 -0.193122 0)
(-0.46541 -0.15987 0)
(-0.579251 -0.1484 0)
(-0.525899 -0.128836 0)
(-0.650082 -0.116038 0)
(-0.581289 -0.106144 0)
(-0.713335 -0.0930734 0)
(-0.631497 -0.0896373 0)
(-0.769437 -0.077005 0)
(-0.676714 -0.0775251 0)
(-0.819043 -0.0658039 0)
(-0.717258 -0.0682724 0)
(-0.862872 -0.0578228 0)
(-0.753443 -0.0605446 0)
(-0.901555 -0.0516685 0)
(-0.785495 -0.0532672 0)
(-0.935574 -0.0461779 0)
(-0.813549 -0.0457417 0)
(-0.965294 -0.0405197 0)
(-0.837719 -0.0376764 0)
(-0.991017 -0.0342988 0)
(-0.858176 -0.0290508 0)
(-1.01302 -0.0274659 0)
(-0.875176 -0.0198655 0)
(-1.03149 -0.0200577 0)
(-0.888819 -0.00997214 0)
(-1.04649 -0.0119641 0)
(-0.898727 0.000449635 0)
(-1.05774 -0.00281816 0)
(-0.90406 0.0101291 0)
(-1.0642 0.00622614 0)
(-0.905946 0.0174112 0)
(-1.06703 0.014581 0)
(-0.906019 0.0207265 0)
(-1.06793 0.0203697 0)
(-0.906852 0.0194799 0)
(-1.06871 0.0217626 0)
(-0.909541 0.0148556 0)
(-1.07095 0.0190703 0)
(-0.914095 0.00865301 0)
(-1.07509 0.0137526 0)
(-0.919793 0.00207583 0)
(-1.08068 0.00747917 0)
(-0.925358 -0.00518691 0)
(-1.08708 0.000713929 0)
(-0.930456 -0.0130694 0)
(-1.09418 -0.00705561 0)
(-1.09954 -0.014867 0)
(-0.105433 -0.594135 0)
(-0.0916306 -0.602857 0)
(-0.230357 -0.456611 0)
(-0.214312 -0.461362 0)
(-0.354905 -0.335139 0)
(-0.376561 -0.324809 0)
(-0.47336 -0.245129 0)
(-0.516286 -0.226836 0)
(-0.581737 -0.17935 0)
(-0.644726 -0.15725 0)
(-0.67849 -0.132165 0)
(-0.75769 -0.109033 0)
(-0.763496 -0.0988435 0)
(-0.85533 -0.076265 0)
(-0.837461 -0.0758649 0)
(-0.938089 -0.0547544 0)
(-0.90151 -0.0604891 0)
(-1.0079 -0.0412594 0)
(-0.956928 -0.0504607 0)
(-1.06709 -0.0332326 0)
(-1.00498 -0.0439567 0)
(-1.11771 -0.0287418 0)
(-1.04679 -0.03952 0)
(-1.16141 -0.0263433 0)
(-1.08322 -0.035964 0)
(-1.19942 -0.0248855 0)
(-1.11493 -0.0323754 0)
(-1.23263 -0.0234165 0)
(-1.1424 -0.0282062 0)
(-1.26159 -0.0212665 0)
(-1.16596 -0.0232863 0)
(-1.28667 -0.0181743 0)
(-1.18581 -0.017648 0)
(-1.30818 -0.0142015 0)
(-1.20208 -0.0112991 0)
(-1.32622 -0.00944506 0)
(-1.21483 -0.00415494 0)
(-1.34067 -0.00384049 0)
(-1.22353 0.00371409 0)
(-1.3513 0.00259544 0)
(-1.22881 0.0115658 0)
(-1.35797 0.00943232 0)
(-1.23136 0.0179612 0)
(-1.36191 0.0160871 0)
(-1.23233 0.0213208 0)
(-1.36407 0.0209333 0)
(-1.23367 0.0209275 0)
(-1.36597 0.0225183 0)
(-1.23658 0.0174038 0)
(-1.36894 0.020681 0)
(-1.24137 0.0120211 0)
(-1.37353 0.0163294 0)
(-1.24742 0.00569568 0)
(-1.37978 0.010664 0)
(-1.2539 -0.00166801 0)
(-1.38753 0.00404529 0)
(-1.26077 -0.00929962 0)
(-1.39523 -0.00361291 0)
(-1.40034 -0.0101965 0)
(-0.172559 -0.450777 0)
(-0.142674 -0.433846 0)
(-0.355017 -0.314161 0)
(-0.326715 -0.286876 0)
(-0.527777 -0.206338 0)
(-0.545557 -0.163499 0)
(-0.683203 -0.131858 0)