/*--------------------------------*- C++ -*----------------------------------*\
  =========                 |
  \\      /  F ield         | OpenFOAM: The Open Source CFD Toolbox
   \\    /   O peration     | Website:  https://openfoam.org
    \\  /    A nd           | Version:  7
     \\/     M anipulation  |
\*---------------------------------------------------------------------------*/
FoamFile
{
    version     2.0;
    format      ascii;
    class       volScalarField;
    location    "2.8";
    object      T;
}
// * * * * * * * * * * * * * * * * * * * * * * * * * * * * * * * * * * * * * //

dimensions      [0 0 0 1 0 0 0];

internalField   nonuniform List<scalar> 
12013
(
300.027
300.082
300.139
300.198
300.26
300.323
300.389
300.457
300.527
300.6
300.675
300.753
300.833
300.916
301.001
301.09
301.182
301.277
301.375
301.477
301.583
301.692
301.806
301.925
302.048
302.177
302.311
302.451
302.597
302.75
302.911
303.08
303.257
303.443
303.639
303.846
304.064
304.296
304.54
304.8
305.076
305.369
305.68
306.013
306.367
306.745
307.149
307.581
308.043
308.539
309.07
309.639
310.251
310.908
311.614
312.372
313.189
314.067
315.014
316.033
317.131
318.316
319.593
320.973
322.463
324.073
325.815
327.701
329.745
331.963
334.374
337
339.867
343.006
346.458
350.271
354.513
359.28
364.715
371.058
378.769
300.027
300.082
300.139
300.199
300.26
300.323
300.389
300.457
300.527
300.6
300.675
300.753
300.833
300.916
301.001
301.09
301.182
301.277
301.375
301.477
301.583
301.692
301.807
301.925
302.049
302.177
302.311
302.451
302.598
302.751
302.911
303.08
303.257
303.443
303.639
303.846
304.065
304.296
304.541
304.8
305.076
305.369
305.681
306.013
306.367
306.745
307.149
307.581
308.043
308.538
309.069
309.638
310.249
310.906
311.611
312.369
313.185
314.063
315.008
316.026
317.123
318.305
319.581
320.958
322.445
324.051
325.788
327.668
329.705
331.914
334.314
336.926
339.773
342.887
346.302
350.065
354.232
358.879
364.102
370.023
376.75
300.027
300.082
300.139
300.199
300.26
300.324
300.389
300.457
300.528
300.6
300.675
300.753
300.833
300.916
301.002
301.09
301.182
301.277
301.375
301.477
301.583
301.693
301.807
301.926
302.049
302.178
302.312
302.452
302.598
302.752
302.912
303.081
303.258
303.444
303.64
303.847
304.066
304.297
304.542
304.801
305.077
305.37
305.681
306.013
306.367
306.745
307.149
307.58
308.042
308.537
309.067
309.636
310.246
310.901
311.606
312.363
313.177
314.052
314.995
316.01
317.104
318.283
319.554
320.925
322.405
324.003
325.73
327.597
329.618
331.808
334.183
336.763
339.569
342.628
345.97
349.629
353.648
358.071
362.943
368.29
374.069
300.027
300.082
300.139
300.199
300.26
300.324
300.389
300.457
300.528
300.6
300.676
300.753
300.833
300.916
301.002
301.091
301.183
301.278
301.376
301.478
301.584
301.694
301.808
301.927
302.05
302.179
302.313
302.453
302.6
302.753
302.914
303.082
303.259
303.445
303.642
303.849
304.067
304.298
304.543
304.803
305.078
305.371
305.682
306.014
306.367
306.745
307.148
307.579
308.04
308.534
309.064
309.631
310.24
310.894
311.597
312.351
313.163
314.035
314.974
315.985
317.073
318.246
319.509
320.871
322.339
323.923
325.633
327.48
329.476
331.634
333.97
336.499
339.241
342.216
345.446
348.955
352.767
356.901
361.364
366.134
371.138
300.027
300.082
300.139
300.199
300.26
300.324
300.39
300.458
300.528
300.601
300.676
300.754
300.834
300.917
301.003
301.091
301.183
301.278
301.377
301.479
301.585
301.695
301.809
301.928
302.051
302.18
302.315
302.455
302.601
302.755
302.915
303.084
303.261
303.448
303.644
303.851
304.069
304.3
304.545
304.804
305.08
305.372
305.683
306.015
306.368
306.745
307.147
307.578
308.038
308.531
309.059
309.625
310.232
310.884
311.583
312.334
313.142
314.01
314.943
315.948
317.028
318.191
319.443
320.791
322.243
323.808
325.494
327.311
329.271
331.385
333.665
336.125
338.779
341.642
344.729
348.052
351.62
355.434
359.48
363.724
368.099
300.027
300.082
300.139
300.199
300.26
300.324
300.39
300.458
300.528
300.601
300.676
300.754
300.834
300.918
301.003
301.092
301.184
301.279
301.378
301.48
301.586
301.696
301.811
301.93
302.053
302.182
302.317
302.457
302.604
302.757
302.918
303.087
303.264
303.45
303.647
303.854
304.072
304.303
304.548
304.807
305.082
305.374
305.685
306.016
306.369
306.745
307.147
307.576
308.035
308.526
309.052
309.616
310.22
310.869
311.564
312.311
313.113
313.975
314.901
315.896
316.966
318.116
319.352
320.682
322.112
323.65
325.304
327.083
328.996
331.052
333.261
335.634
338.181
340.909
343.827
346.939
350.244
353.732
357.383
361.16
365.011
300.027
300.082
300.14
300.199
300.261
300.324
300.39
300.458
300.529
300.602
300.677
300.755
300.835
300.919
301.005
301.094
301.186
301.281
301.38
301.482
301.588
301.699
301.813
301.932
302.056
302.185
302.32
302.46
302.607
302.761
302.922
303.09
303.268
303.454
303.651
303.858
304.076
304.307
304.551
304.81
305.085
305.377
305.687
306.018
306.369
306.745
307.145
307.573
308.03
308.519
309.043
309.604
310.205
310.849
311.539
312.28
313.075
313.929
314.845
315.828
316.884
318.017
319.234
320.54
321.942
323.447
325.061
326.791
328.646
330.632
332.756
335.026
337.447
340.023
342.756
345.645
348.682
351.854
355.138
358.504
361.912
300.027
300.082
300.14
300.199
300.261
300.325
300.391
300.459
300.529
300.602
300.678
300.756
300.836
300.92
301.006
301.095
301.187
301.283
301.382
301.484
301.591
301.701
301.816
301.935
302.059
302.189
302.323
302.464
302.611
302.765
302.926
303.095
303.273
303.459
303.655
303.862
304.081
304.312
304.556
304.815
305.089
305.381
305.69
306.02
306.37
306.744
307.143
307.569
308.024
308.511
309.031
309.588
310.184
310.823
311.507
312.24
313.027
313.869
314.773
315.741
316.779
317.892
319.085
320.362
321.73
323.193
324.759
326.431
328.217
330.121
332.148
334.302
336.585
338.997
341.537
344.199
346.974
349.846
352.797
355.799
358.824
300.027
300.082
300.14
300.199
300.261
300.325
300.391
300.46
300.53
300.603
300.679
300.757
300.838
300.921
301.008
301.097
301.19
301.285
301.384
301.487
301.594
301.705
301.82
301.939
302.064
302.193
302.328
302.469
302.616
302.77
302.932
303.101
303.278
303.465
303.662
303.869
304.087
304.318
304.562
304.82
305.094
305.385
305.693
306.022
306.371
306.744
307.141
307.564
308.016
308.499
309.016
309.568
310.158
310.79
311.466
312.19
312.965
313.795
314.683
315.634
316.651
317.738
318.901
320.144
321.471
322.887
324.396
326.002
327.71
329.522
331.441
333.469
335.605
337.848
340.192
342.632
345.155
347.75
350.397
353.078
355.768
300.027
300.083
300.14
300.2
300.262
300.326
300.392
300.46
300.531
300.604
300.68
300.759
300.839
300.923
301.01
301.099
301.192
301.288
301.388
301.491
301.598
301.709
301.824
301.944
302.069
302.199
302.334
302.475
302.623
302.777
302.939
303.108
303.286
303.473
303.669
303.876
304.094
304.325
304.569
304.827
305.1
305.39
305.697
306.024
306.372
306.743
307.137
307.558
308.006
308.485
308.996
309.543
310.126
310.75
311.416
312.129
312.891
313.704
314.574
315.503
316.495
317.553
318.682
319.884
321.164
322.525
323.971
325.503
327.125
328.838
330.643
332.539
334.524
336.595
338.747
340.972
343.259
345.597
347.971
350.365
352.762
300.027
300.083
300.14
300.2
300.262
300.326
300.393
300.461
300.532
300.606
300.682
300.76
300.842
300.926
301.012
301.102
301.195
301.292
301.392
301.495
301.603
301.714
301.83
301.95
302.075
302.205
302.341
302.483
302.631
302.785
302.947
303.117
303.295
303.482
303.678
303.885
304.103
304.334
304.577
304.834
305.107
305.396
305.702
306.027
306.373
306.741
307.133
307.55
307.994
308.468
308.973
309.512
310.087
310.701
311.356
312.055
312.801
313.596
314.444
315.348
316.311
317.335
318.425
319.582
320.809
322.11
323.485
324.938
326.468
328.076
329.761
331.523
333.357
335.26
337.226
339.247
341.314
343.417
345.544
347.683
349.82
300.027
300.083
300.141
300.201
300.263
300.327
300.394
300.463
300.534
300.608
300.684
300.763
300.844
300.928
301.016
301.106
301.199
301.296
301.397
301.5
301.608
301.72
301.836
301.957
302.083
302.213
302.35
302.492
302.64
302.795
302.957
303.127
303.306
303.493
303.689
303.896
304.114
304.344
304.587
304.844
305.115
305.403
305.707
306.031
306.374
306.739
307.127
307.54
307.979
308.446
308.944
309.475
310.04
310.642
311.284
311.967
312.695
313.469
314.292
315.168
316.097
317.084
318.13
319.237
320.407
321.642
322.943
324.31
325.744
327.244
328.809
330.436
332.122
333.862
335.651
337.481
339.345
341.235
343.14
345.05
346.956
300.027
300.083
300.141
300.201
300.263
300.328
300.395
300.464
300.535
300.609
300.686
300.765
300.847
300.932
301.02
301.11
301.204
301.302
301.402
301.507
301.615
301.728
301.844
301.966
302.092
302.223
302.36
302.503
302.652
302.807
302.97
303.14
303.318
303.506
303.703
303.909
304.127
304.357
304.599
304.855
305.125
305.411
305.714
306.035
306.375
306.736
307.12
307.528
307.961
308.421
308.911
309.432
309.985
310.574
311.2
311.865
312.572
313.322
314.118
314.961
315.855
316.8
317.798
318.851
319.959
321.125
322.348
323.628
324.964
326.356
327.8
329.296
330.838
332.423
334.045
335.698
337.376
339.071
340.777
342.483
344.184
300.027
300.083
300.141
300.202
300.264
300.329
300.396
300.466
300.538
300.612
300.689
300.768
300.851
300.936
301.024
301.115
301.21
301.308
301.409
301.514
301.623
301.736
301.854
301.976
302.103
302.235
302.372
302.516
302.665
302.821
302.984
303.155
303.334
303.521
303.718
303.925
304.142
304.371
304.613
304.867
305.136
305.421
305.721
306.039
306.376
306.733
307.112
307.514
307.94
308.392
308.872
309.381
309.922
310.496
311.104
311.749
312.432
313.156
313.921
314.73
315.584
316.484
317.431
318.427
319.471
320.565
321.708
322.899
324.137
325.421
326.749
328.117
329.522
330.961
332.428
333.918
335.426
336.946
338.472
339.997
341.515
300.028
300.084
300.142
300.203
300.265
300.33
300.398
300.468
300.54
300.615
300.692
300.772
300.855
300.941
301.03
301.122
301.217
301.315
301.417
301.523
301.633
301.747
301.865
301.988
302.116
302.249
302.387
302.531
302.681
302.838
303.001
303.173
303.352
303.54
303.736
303.943
304.16
304.389
304.629
304.883
305.15
305.432
305.73
306.045
306.378
306.73
307.103
307.498
307.916
308.359
308.828
309.324
309.85
310.407
310.996
311.618
312.276
312.971
313.703
314.475
315.286
316.139
317.033
317.97
318.948
319.969
321.032
322.134
323.276
324.456
325.67
326.917
328.193
329.495
330.819
332.16
333.514
334.875
336.24
337.603
338.958
300.028
300.084
300.143
300.203
300.267
300.332
300.4
300.47
300.543
300.618
300.696
300.777
300.86
300.947
301.036
301.129
301.225
301.324
301.427
301.534
301.645
301.759
301.879
302.002
302.131
302.265
302.404
302.549
302.7
302.857
303.022
303.193
303.373
303.561
303.758
303.965
304.181
304.409
304.649
304.9
305.166
305.445
305.74
306.051
306.38
306.727
307.093
307.48
307.889
308.322
308.778
309.261
309.771
310.309
310.876
311.475
312.105
312.769
313.466
314.198
314.966
315.769
316.609
317.485
318.398
319.346
320.328
321.345
322.393
323.472
324.579
325.712
326.868
328.044
329.236
330.441
331.655
332.874
334.095
335.312
336.523
300.028
300.084
300.143
300.205
300.268
300.334
300.402
300.473
300.546
300.622
300.7
300.782
300.866
300.953
301.044
301.137
301.234
301.334
301.438
301.546
301.658
301.774
301.894
302.019
302.149
302.284
302.424
302.57
302.722
302.88
303.045
303.218
303.398
303.586
303.783
303.99
304.206
304.433
304.671
304.921
305.185
305.461
305.753
306.06
306.383
306.724
307.083
307.461
307.86
308.281
308.725
309.192
309.684
310.202
310.747
311.32
311.921
312.552
313.213
313.904
314.627
315.38
316.165
316.981
317.828
318.704
319.609
320.542
321.501
322.485
323.491
324.517
325.562
326.621
327.694
328.775
329.863
330.955
332.046
333.135
334.217
300.028
300.085
300.144
300.206
300.27
300.336
300.405
300.476
300.55
300.627
300.706
300.788
300.873
300.961
301.052
301.147
301.245
301.346
301.452
301.561
301.674
301.791
301.913
302.039
302.17
302.306
302.447
302.594
302.747
302.907
303.073
303.246
303.427
303.615
303.813
304.019
304.235
304.461
304.698
304.946
305.207
305.481
305.768
306.07
306.388
306.722
307.073
307.442
307.831
308.239
308.668
309.119
309.592
310.089
310.61
311.155
311.726
312.324
312.947
313.597
314.274
314.978
315.708
316.465
317.247
318.054
318.884
319.738
320.612
321.507
322.419
323.347
324.289
325.243
326.206
327.176
328.151
329.128
330.104
331.078
332.046
300.028
300.086
300.145
300.207
300.272
300.339
300.408
300.48
300.555
300.632
300.712
300.795
300.881
300.97
301.063
301.158
301.258
301.361
301.467
301.578
301.692
301.811
301.934
302.062
302.194
302.332
302.475
302.623
302.777
302.938
303.105
303.279
303.461
303.65
303.847
304.053
304.268
304.494
304.729
304.975
305.234
305.504
305.787
306.084
306.396
306.722
307.065
307.424
307.801
308.196
308.609
309.043
309.497
309.971
310.467
310.985
311.526
312.089
312.675
313.283
313.915
314.57
315.246
315.945
316.665
317.406
318.166
318.944
319.74
320.551
321.376
322.214
323.063
323.921
324.786
325.656
326.529
327.403
328.277
329.148
330.015
300.028
300.086
300.146
300.209
300.274
300.342
300.412
300.484
300.56
300.638
300.719
300.803
300.891
300.981
301.075
301.172
301.273
301.377
301.485
301.597
301.713
301.834
301.959
302.088
302.222
302.362
302.506
302.656
302.812
302.974
303.142
303.318
303.5
303.69
303.887
304.093
304.308
304.532
304.766
305.01
305.266
305.532
305.811
306.103
306.407
306.726
307.06
307.408
307.773
308.154
308.552
308.967
309.401
309.853
310.324
310.814
311.323
311.852
312.4
312.969
313.556
314.163
314.788
315.431
316.092
316.77
317.464
318.172
318.895
319.629
320.375
321.131
321.895
322.666
323.443
324.223
325.005
325.788
326.57
327.35
328.126
300.029
300.087
300.148
300.211
300.277
300.345
300.416
300.489
300.566
300.645
300.727
300.813
300.901
300.993
301.089
301.187
301.29
301.396
301.506
301.62
301.738
301.86
301.987
302.119
302.255
302.396
302.543
302.695
302.852
303.016
303.186
303.362
303.545
303.736
303.934
304.14
304.354
304.577
304.81
305.052
305.304
305.567
305.841
306.127
306.425
306.736
307.06
307.398
307.749
308.116
308.498
308.895
309.308
309.737
310.183
310.645
311.124
311.619
312.131
312.66
313.205
313.765
314.342
314.933
315.539
316.158
316.79
317.434
318.089
318.753
319.427
320.108
320.796
321.489
322.186
322.886
323.587
324.289
324.99
325.688
326.384
300.029
300.088
300.149
300.213
300.28
300.349
300.421
300.495
300.573
300.653
300.737
300.824
300.914
301.007
301.105
301.205
301.31
301.418
301.53
301.646
301.766
301.891
302.02
302.154
302.293
302.437
302.585
302.739
302.899
303.065
303.236
303.414
303.599
303.79
303.989
304.195
304.409
304.631
304.862
305.102
305.351
305.61
305.879
306.159
306.45
306.753
307.067
307.394
307.733
308.085
308.451
308.83
309.222
309.629
310.05
310.485
310.934
311.397
311.874
312.365
312.869
313.386
313.917
314.459
315.013
315.578
316.153
316.738
317.332
317.933
318.541
319.155
319.774
320.397
321.024
321.652
322.281
322.91
323.538
324.165
324.788
300.029
300.089
300.151
300.216
300.283
300.353
300.426
300.502
300.581
300.663
300.748
300.837
300.928
301.024
301.123
301.226
301.332
301.443
301.558
301.676
301.799
301.927
302.059
302.195
302.337
302.483
302.634
302.791
302.953
303.121
303.295
303.474
303.66
303.853
304.052
304.259
304.473
304.694
304.924
305.161
305.408
305.663
305.928
306.202
306.486
306.78
307.085
307.401
307.727
308.065
308.415
308.776
309.149
309.533
309.93
310.339
310.759
311.192
311.635
312.091
312.557
313.034
313.521
314.019
314.525
315.04
315.564
316.095
316.633
317.177
317.726
318.28
318.838
319.399
319.962
320.526
321.091
321.656
322.22
322.782
323.342
300.03
300.09
300.153
300.219
300.287
300.359
300.433
300.51
300.59
300.674
300.761
300.851
300.945
301.043
301.144
301.249
301.359
301.472
301.589
301.711
301.837
301.968
302.103
302.243
302.387
302.537
302.691
302.851
303.016
303.186
303.362
303.544
303.732
303.926
304.127
304.334
304.548
304.769
304.997
305.233
305.477
305.729
305.989
306.257
306.535
306.821
307.117
307.422
307.736
308.06
308.394
308.738
309.092
309.456
309.83
310.214
310.607
311.011
311.424
311.846
312.277
312.716
313.164
313.62
314.084
314.554
315.031
315.513
316.001
316.494
316.99
317.49
317.993
318.499
319.005
319.513
320.021
320.529
321.036
321.541
322.044
300.03
300.092
300.156
300.223
300.292
300.365
300.44
300.519
300.601
300.686
300.775
300.868
300.964
301.064
301.169
301.277
301.389
301.505
301.626
301.751
301.881
302.015
302.154
302.297
302.445
302.598
302.757
302.92
303.088
303.262
303.441
303.625
303.816
304.012
304.214
304.422
304.637
304.858
305.085
305.32
305.561
305.81
306.066
306.329
306.6
306.879
307.166
307.461
307.764
308.075
308.395
308.722
309.058
309.403
309.755
310.116
310.485
310.862
311.246
311.637
312.036
312.442
312.854
313.273
313.697
314.127
314.561
315
315.443
315.89
316.34
316.792
317.247
317.703
318.16
318.617
319.075
319.532
319.988
320.443
320.896
300.031
300.093
300.159
300.227
300.298
300.372
300.449
300.529
300.613
300.701
300.792
300.887
300.986
301.089
301.197
301.308
301.424
301.544
301.668
301.797
301.931
302.069
302.212
302.36
302.512
302.67
302.832
302.999
303.171
303.349
303.532
303.719
303.913
304.111
304.316
304.526
304.741
304.963
305.19
305.424
305.664
305.91
306.162
306.421
306.686
306.959
307.237
307.523
307.816
308.115
308.421
308.734
309.054
309.38
309.713
310.053
310.399
310.751
311.109
311.474
311.843
312.218
312.598
312.983
313.372
313.766
314.163
314.563
314.967
315.373
315.781
316.191
316.602
317.015
317.428
317.841
318.254
318.666
319.077
319.487
319.896
300.031
300.095
300.162
300.231
300.304
300.379
300.458
300.541
300.627
300.717
300.811
300.909
301.011
301.118
301.229
301.344
301.464
301.588
301.717
301.85
301.989
302.132
302.279
302.432
302.589
302.752
302.919
303.091
303.268
303.45
303.637
303.829
304.026
304.228
304.435
304.647
304.865
305.087
305.315
305.549
305.788
306.032
306.282
306.537
306.798
307.064
307.336
307.613
307.897
308.185
308.479
308.779
309.084
309.395
309.71
310.031
310.356
310.687
311.022
311.361
311.705
312.053
312.405
312.76
313.118
313.479
313.843
314.209
314.577
314.947
315.319
315.692
316.065
316.439
316.813
317.187
317.56
317.933
318.305
318.675
319.044
300.032
300.097
300.165
300.236
300.311
300.388
300.469
300.554
300.643
300.736
300.833
300.934
301.04
301.15
301.265
301.385
301.509
301.638
301.772
301.911
302.054
302.203
302.356
302.515
302.678
302.846
303.019
303.196
303.379
303.566
303.758
303.955
304.157
304.363
304.574
304.789
305.01
305.235
305.464
305.698
305.937
306.181
306.429
306.681
306.939
307.2
307.467
307.737
308.013
308.292
308.576
308.864
309.156
309.453
309.753
310.057
310.365
310.676
310.991
311.309
311.629
311.953
312.28
312.608
312.939
313.272
313.607
313.943
314.281
314.619
314.958
315.298
315.638
315.978
316.318
316.657
316.996
317.334
317.67
318.005
318.339
300.033
300.1
300.169
300.242
300.318
300.398
300.482
300.57
300.661
300.757
300.858
300.963
301.073
301.188
301.307
301.432
301.561
301.696
301.835
301.98
302.13
302.285
302.445
302.61
302.78
302.954
303.134
303.318
303.507
303.701
303.899
304.102
304.309
304.52
304.736
304.956
305.18
305.408
305.64
305.876
306.116
306.36
306.608
306.859
307.114
307.373
307.635
307.901
308.17
308.442
308.717
308.996
309.277
309.561
309.849
310.139
310.431
310.726
311.023
311.322
311.623
311.926
312.23
312.536
312.844
313.152
313.461
313.771
314.082
314.393
314.704
315.015
315.325
315.636
315.945
316.254
316.562
316.869
317.175
317.479
317.781
300.034
300.102
300.174
300.249
300.327
300.41
300.496
300.587
300.682
300.782
300.886
300.996
301.11
301.23
301.355
301.485
301.62
301.761
301.908
302.059
302.216
302.379
302.546
302.718
302.896
303.079
303.266
303.458
303.655
303.856
304.061
304.271
304.485
304.703
304.925
305.15
305.38
305.612
305.848
306.088
306.33
306.576
306.825
307.076
307.331
307.588
307.847
308.109
308.374
308.64
308.909
309.18
309.453
309.728
310.004
310.282
310.562
310.843
311.125
311.408
311.692
311.977
312.263
312.55
312.836
313.123
313.411
313.698
313.985
314.272
314.559
314.844
315.13
315.414
315.697
315.98
316.261
316.54
316.818
317.095
317.37
300.035
300.105
300.179
300.256
300.337
300.423
300.512
300.606
300.705
300.809
300.918
301.033
301.152
301.278
301.409
301.546
301.688
301.836
301.99
302.15
302.315
302.485
302.662
302.843
303.029
303.221
303.417
303.619
303.824
304.034
304.249
304.467
304.689
304.915
305.144
305.377
305.612
305.851
306.093
306.337
306.584
306.833
307.084
307.338
307.593
307.85
308.109
308.37
308.632
308.895
309.159
309.424
309.691
309.958
310.226
310.495
310.764
311.034
311.303
311.573
311.844
312.114
312.384
312.654
312.923
313.192
313.461
313.728
313.995
314.262
314.527
314.791
315.054
315.315
315.576
315.835
316.092
316.348
316.602
316.854
317.104
300.036
300.108
300.185
300.265
300.349
300.437
300.53
300.628
300.731
300.84
300.954
301.074
301.2
301.332
301.47
301.614
301.765
301.921
302.084
302.252
302.427
302.607
302.793
302.985
303.182
303.384
303.591
303.802
304.019
304.239
304.464
304.692
304.924
305.159
305.398
305.639
305.883
306.13
306.378
306.629
306.882
307.136
307.392
307.649
307.908
308.167
308.427
308.688
308.949
309.211
309.473
309.735
309.997
310.259
310.521
310.783
311.044
311.305
311.565
311.824
312.083
312.341
312.598
312.854
313.109
313.362
313.615
313.866
314.116
314.364
314.611
314.856
315.1
315.342
315.582
315.821
316.057
316.292
316.525
316.755
316.984
300.037
300.112
300.191
300.274
300.361
300.453
300.55
300.653
300.761
300.875
300.995
301.121
301.254
301.393
301.539
301.692
301.851
302.017
302.19
302.369
302.554
302.745
302.943
303.146
303.355
303.569
303.788
304.012
304.241
304.473
304.71
304.95
305.194
305.44
305.69
305.942
306.196
306.452
306.71
306.969
307.23
307.491
307.754
308.017
308.28
308.543
308.806
309.07
309.333
309.595
309.857
310.118
310.378
310.637
310.895
311.152
311.407
311.662
311.914
312.166
312.415
312.664
312.91
313.155
313.397
313.638
313.877
314.115
314.35
314.583
314.814
315.043
315.27
315.495
315.718
315.939
316.157
316.373
316.587
316.799
317.008
300.038
300.116
300.198
300.285
300.375
300.471
300.573
300.68
300.794
300.914
301.04
301.174
301.314
301.462
301.617
301.779
301.949
302.125
302.309
302.5
302.697
302.901
303.112
303.329
303.551
303.779
304.012
304.25
304.493
304.74
304.99
305.244
305.501
305.762
306.024
306.289
306.555
306.823
307.092
307.362
307.632
307.903
308.174
308.444
308.714
308.984
309.253
309.52
309.787
310.052
310.316
310.578
310.838
311.096
311.353
311.607
311.859
312.109
312.357
312.602
312.845
313.086
313.324
313.56
313.793
314.023
314.251
314.477
314.7
314.92
315.138
315.353
315.566
315.776
315.984
316.189
316.391
316.591
316.789
316.984
317.176
300.04
300.121
300.206
300.296
300.391
300.491
300.598
300.71
300.83
300.956
301.09
301.232
301.381
301.538
301.703
301.876
302.057
302.246
302.442
302.646
302.858
303.076
303.302
303.533
303.771
304.015
304.264
304.518
304.777
305.04
305.307
305.577
305.85
306.125
306.403
306.682
306.963
307.245
307.527
307.81
308.092
308.374
308.655
308.936
309.215
309.493
309.769
310.043
310.316
310.586
310.853
311.118
311.381
311.641
311.897
312.151
312.402
312.65
312.895
313.136
313.375
313.61
313.842
314.071
314.297
314.519
314.738
314.954
315.167
315.377
315.584
315.788
315.988
316.186
316.381
316.572
316.761
316.947
317.131
317.311
317.489
300.041
300.126
300.215
300.308
300.407
300.513
300.624
300.743
300.869
301.003
301.145
301.295
301.454
301.622
301.798
301.983
302.177
302.379
302.59
302.809
303.036
303.27
303.512
303.761
304.017
304.278
304.545
304.818
305.095
305.376
305.661
305.949
306.24
306.533
306.828
307.124
307.422
307.719
308.017
308.314
308.611
308.906
309.2
309.492
309.783
310.071
310.356
310.639
310.919
311.196
311.47
311.74
312.007
312.27
312.529
312.785
313.036
313.284
313.528
313.768
314.004
314.236
314.464
314.688
314.908
315.125
315.337
315.546
315.751
315.953
316.151
316.345
316.536
316.724
316.908
317.088
317.266
317.44
317.611
317.78
317.945
300.043
300.131
300.223
300.321
300.425
300.535
300.653
300.778
300.911
301.053
301.203
301.363
301.532
301.711
301.9
302.098
302.306
302.523
302.75
302.985
303.229
303.482
303.742
304.01
304.285
304.567
304.854
305.146
305.444
305.745
306.05
306.359
306.67
306.983
307.297
307.612
307.928
308.243
308.558
308.872
309.184
309.495
309.803
310.109
310.413
310.713
311.01
311.303
311.592
311.878
312.159
312.436
312.709
312.977
313.241
313.5
313.755
314.004
314.249
314.49
314.725
314.956
315.182
315.404
315.621
315.834
316.042
316.246
316.446
316.642
316.833
317.02
317.204
317.383
317.559
317.731
317.9
318.065
318.226
318.385
318.539
300.045
300.136
300.232
300.334
300.443
300.558
300.681
300.813
300.954
301.104
301.264
301.434
301.614
301.805
302.007
302.219
302.442
302.675
302.919
303.172
303.435
303.707
303.987
304.276
304.572
304.875
305.184
305.498
305.817
306.14
306.467
306.797
307.129
307.462
307.797
308.132
308.467
308.802
309.135
309.467
309.797
310.124
310.449
310.77
311.088
311.401
311.711
312.016
312.317
312.613
312.904
313.19
313.47
313.746
314.016
314.28
314.54
314.793
315.042
315.284
315.522
315.754
315.981
316.202
316.418
316.63
316.836
317.037
317.234
317.425
317.613
317.795
317.974
318.147
318.317
318.483
318.645
318.802
318.956
319.107
319.254
300.046
300.141
300.241
300.347
300.459
300.58
300.709
300.847
300.995
301.153
301.322
301.503
301.694
301.898
302.113
302.34
302.578
302.828
303.089
303.362
303.644
303.936
304.237
304.546
304.863
305.187
305.517
305.853
306.194
306.539
306.888
307.239
307.593
307.947
308.303
308.659
309.014
309.368
309.721
310.071
310.419
310.763
311.104
311.442
311.775
312.103
312.427
312.745
313.058
313.366
313.668
313.964
314.254
314.538
314.816
315.087
315.353
315.612
315.865
316.113
316.354
316.588
316.817
317.041
317.258
317.469
317.675
317.876
318.071
318.261
318.445
318.625
318.8
318.97
319.135
319.296
319.452
319.604
319.752
319.896
320.036
300.047
300.145
300.248
300.357
300.474
300.599
300.733
300.877
301.031
301.197
301.374
301.563
301.765
301.98
302.208
302.448
302.702
302.968
303.245
303.534
303.833
304.143
304.462
304.79
305.127
305.47
305.821
306.177
306.538
306.903
307.272
307.644
308.017
308.392
308.767
309.141
309.515
309.888
310.258
310.626
310.99
311.351
311.708
312.061
312.408
312.751
313.088
313.419
313.745
314.064
314.377
314.683
314.983
315.276
315.562
315.842
316.114
316.38
316.639
316.891
317.136
317.375
317.607
317.832
318.051
318.264
318.47
318.67
318.865
319.053
319.236
319.414
319.586
319.752
319.914
320.071
320.223
320.37
320.512
320.651
320.785
300.048
300.147
300.252
300.364
300.483
300.611
300.748
300.895
301.054
301.224
301.407
301.603
301.812
302.035
302.272
302.523
302.786
303.062
303.351
303.651
303.963
304.285
304.618
304.959
305.31
305.668
306.033
306.404
306.78
307.16
307.543
307.929
308.317
308.706
309.095
309.483
309.871
310.256
310.64
311.02
311.397
311.77
312.139
312.503
312.862
313.215
313.563
313.905
314.24
314.569
314.891
315.207
315.515
315.816
316.109
316.395
316.674
316.945
317.209
317.465
317.714
317.955
318.19
318.417
318.637
318.85
319.057
319.257
319.45
319.638
319.819
319.994
320.163
320.327
320.485
320.638
320.786
320.929
321.067
321.201
321.33
389.018
397.025
403.752
409.608
414.796
419.425
423.557
427.229
430.454
433.236
435.562
437.411
438.748
439.527
439.681
439.12
437.715
435.27
431.457
425.616
416.104
409.607
404.584
400.434
396.866
393.719
390.891
388.312
385.934
383.719
381.639
379.672
377.801
376.01
374.289
372.626
371.015
369.447
367.916
366.419
364.95
363.506
362.083
360.68
359.294
357.924
356.567
355.222
353.889
352.566
351.252
349.947
348.649
347.359
346.076
344.8
343.53
342.267
341.012
339.764
338.525
337.296
336.078
334.872
333.679
332.502
331.341
330.199
329.076
327.976
326.898
325.845
324.819
323.82
322.85
321.909
320.999
320.121
319.275
318.461
317.68
316.931
316.215
315.532
314.88
314.26
313.67
313.11
312.579
312.075
311.599
311.148
310.722
310.319
309.938
309.578
309.237
308.914
308.609
308.32
308.045
307.784
307.535
307.298
307.072
306.855
306.647
306.448
306.255
306.069
305.89
305.715
305.546
305.381
305.22
305.063
304.909
304.758
304.61
304.465
304.322
304.181
304.043
303.906
303.772
303.639
303.509
303.38
303.254
303.129
303.007
302.886
302.768
302.651
302.537
302.425
302.316
302.209
302.104
302.002
301.903
301.806
301.712
301.62
301.531
301.446
301.363
301.282
301.205
301.131
301.06
300.991
300.926
300.863
300.803
300.746
300.692
300.641
300.592
300.546
300.503
384.264
391.233
397.494
403.109
408.156
412.699
416.777
420.414
423.62
426.392
428.718
430.576
431.932
432.74
432.939
432.445
431.148
428.89
425.458
420.582
414.219
408.69
404.045
400.075
396.609
393.526
390.741
388.193
385.837
383.639
381.573
379.617
377.754
375.971
374.255
372.597
370.99
369.425
367.897
366.402
364.935
363.493
362.072
360.67
359.285
357.915
356.559
355.215
353.882
352.56
351.246
349.942
348.645
347.355
346.072
344.796
343.526
342.263
341.008
339.76
338.521
337.292
336.073
334.867
333.674
332.497
331.336
330.193
329.071
327.97
326.892
325.839
324.813
323.814
322.844
321.903
320.993
320.115
319.269
318.455
317.674
316.926
316.21
315.527
314.875
314.255
313.666
313.106
312.575
312.072
311.596
311.145
310.719
310.316
309.936
309.576
309.235
308.913
308.608
308.318
308.044
307.783
307.534
307.298
307.071
306.855
306.647
306.447
306.255
306.069
305.89
305.715
305.546
305.381
305.22
305.063
304.909
304.759
304.611
304.465
304.322
304.182
304.043
303.907
303.772
303.64
303.509
303.381
303.254
303.13
303.007
302.887
302.768
302.652
302.538
302.426
302.316
302.209
302.105
302.003
301.903
301.806
301.712
301.62
301.532
301.446
301.363
301.283
301.205
301.131
301.06
300.991
300.926
300.863
300.803
300.746
300.692
300.641
300.592
300.546
300.503
380.155
386.129
391.761
396.976
401.762
406.129
410.087
413.642
416.796
419.539
421.857
423.726
425.113
425.976
426.26
425.897
424.8
422.869
419.999
416.145
411.525
407.032
402.956
399.314
396.051
393.101
390.408
387.927
385.621
383.462
381.426
379.494
377.651
375.884
374.181
372.534
370.935
369.378
367.857
366.367
364.904
363.465
362.048
360.649
359.266
357.898
356.543
355.201
353.87
352.548
351.236
349.932
348.635
347.346
346.063
344.787
343.518
342.255
340.999
339.752
338.512
337.283
336.064
334.857
333.664
332.486
331.325
330.182
329.059
327.958
326.88
325.827
324.8
323.801