/*--------------------------------*- C++ -*----------------------------------*\
  =========                 |
  \\      /  F ield         | OpenFOAM: The Open Source CFD Toolbox
   \\    /   O peration     | Website:  https://openfoam.org
    \\  /    A nd           | Version:  7
     \\/     M anipulation  |
\*---------------------------------------------------------------------------*/
FoamFile
{
    version     2.0;
    format      ascii;
    class       volVectorField;
    location    "5.88";
    object      U;
}
// * * * * * * * * * * * * * * * * * * * * * * * * * * * * * * * * * * * * * //

dimensions      [0 1 -1 0 0 0 0];

internalField   nonuniform List<vector> 
12013
(
(0.100749 -0.000203065 0)
(0.103709 -0.000360267 0)
(0.1083 -0.000500041 0)
(0.114094 -0.000625901 0)
(0.120969 -0.000742406 0)
(0.128807 -0.000852629 0)
(0.137519 -0.00095878 0)
(0.147037 -0.00106247 0)
(0.157308 -0.00116465 0)
(0.168287 -0.00126563 0)
(0.179932 -0.00136508 0)
(0.192196 -0.00146212 0)
(0.205022 -0.00155544 0)
(0.218348 -0.00164345 0)
(0.232099 -0.00172447 0)
(0.24619 -0.00179689 0)
(0.260529 -0.00185934 0)
(0.275023 -0.00191075 0)
(0.289572 -0.00195041 0)
(0.304082 -0.00197798 0)
(0.318462 -0.0019935 0)
(0.332629 -0.00199728 0)
(0.346505 -0.0019899 0)
(0.360025 -0.00197211 0)
(0.373131 -0.0019448 0)
(0.385776 -0.00190893 0)
(0.397923 -0.00186551 0)
(0.409542 -0.00181551 0)
(0.420614 -0.00175993 0)
(0.431125 -0.00169967 0)
(0.441069 -0.00163558 0)
(0.450445 -0.00156849 0)
(0.459257 -0.00149911 0)
(0.467516 -0.00142808 0)
(0.475232 -0.00135599 0)
(0.482422 -0.00128339 0)
(0.489102 -0.00121072 0)
(0.495294 -0.00113836 0)
(0.501017 -0.00106668 0)
(0.506295 -0.000995986 0)
(0.511151 -0.000926525 0)
(0.515609 -0.000858497 0)
(0.519693 -0.000792071 0)
(0.523427 -0.000727391 0)
(0.526835 -0.000664558 0)
(0.529943 -0.000603632 0)
(0.532772 -0.000544638 0)
(0.535348 -0.000487571 0)
(0.537693 -0.000432393 0)
(0.53983 -0.000379029 0)
(0.541779 -0.000327365 0)
(0.543562 -0.000277245 0)
(0.545199 -0.000228466 0)
(0.54671 -0.00018078 0)
(0.548112 -0.000133884 0)
(0.549424 -8.74188e-05 0)
(0.55066 -4.09576e-05 0)
(0.551837 5.99599e-06 0)
(0.552968 5.40652e-05 0)
(0.554065 0.000103958 0)
(0.55514 0.00015655 0)
(0.556201 0.000212897 0)
(0.557255 0.000274278 0)
(0.558306 0.000342249 0)
(0.559356 0.000418733 0)
(0.560403 0.00050613 0)
(0.56144 0.000607486 0)
(0.562453 0.000726731 0)
(0.563423 0.000869056 0)
(0.56432 0.00104148 0)
(0.565098 0.00125379 0)
(0.565694 0.00152006 0)
(0.566012 0.00186138 0)
(0.56591 0.00231064 0)
(0.565175 0.00292185 0)
(0.563468 0.00378837 0)
(0.560231 0.00508149 0)
(0.554485 0.00714167 0)
(0.544473 0.0107743 0)
(0.527127 0.0188349 0)
(0.509409 0.0505515 0)
(0.100685 -0.000619035 0)
(0.103631 -0.00110314 0)
(0.1082 -0.00153145 0)
(0.113977 -0.00191652 0)
(0.120837 -0.00227275 0)
(0.128662 -0.00260954 0)
(0.137363 -0.00293368 0)
(0.146871 -0.00325013 0)
(0.157134 -0.00356183 0)
(0.168108 -0.00386972 0)
(0.17975 -0.00417284 0)
(0.192013 -0.00446851 0)
(0.204843 -0.00475274 0)
(0.218175 -0.0050207 0)
(0.231935 -0.00526731 0)
(0.246038 -0.00548771 0)
(0.260393 -0.00567771 0)
(0.274903 -0.00583411 0)
(0.289472 -0.00595476 0)
(0.304003 -0.00603869 0)
(0.318405 -0.00608596 0)
(0.332593 -0.00609757 0)
(0.346492 -0.00607525 0)
(0.360033 -0.0060213 0)
(0.37316 -0.0059384 0)
(0.385826 -0.00582947 0)
(0.397992 -0.00569752 0)
(0.409629 -0.00554558 0)
(0.420717 -0.00537655 0)
(0.431243 -0.00519325 0)
(0.4412 -0.00499826 0)
(0.450588 -0.004794 0)
(0.459411 -0.00458267 0)
(0.467678 -0.00436626 0)
(0.475401 -0.00414655 0)
(0.482596 -0.00392512 0)
(0.489281 -0.00370336 0)
(0.495475 -0.0034825 0)
(0.5012 -0.00326361 0)
(0.506477 -0.0030476 0)
(0.511331 -0.00283522 0)
(0.515785 -0.00262713 0)
(0.519864 -0.00242387 0)
(0.523591 -0.00222583 0)
(0.526991 -0.00203333 0)
(0.530088 -0.00184655 0)
(0.532905 -0.00166559 0)
(0.535467 -0.00149043 0)
(0.537796 -0.00132096 0)
(0.539914 -0.00115694 0)
(0.541843 -0.000998026 0)
(0.543603 -0.000843732 0)
(0.545215 -0.000693448 0)
(0.546698 -0.000546414 0)
(0.548069 -0.000401705 0)
(0.549347 -0.00025821 0)
(0.550547 -0.000114617 0)
(0.551684 3.06075e-05 0)
(0.552771 0.000179303 0)
(0.553822 0.000333637 0)
(0.554846 0.000496259 0)
(0.555854 0.000670374 0)
(0.556851 0.00085985 0)
(0.557843 0.0010694 0)
(0.55883 0.0013048 0)
(0.559813 0.00157325 0)
(0.560783 0.00188384 0)
(0.561732 0.00224824 0)
(0.56264 0.00268173 0)
(0.563482 0.00320481 0)
(0.56422 0.0038457 0)
(0.564799 0.00464442 0)
(0.565144 0.00565969 0)
(0.565147 0.0069808 0)
(0.564654 0.00874912 0)
(0.56345 0.0111978 0)
(0.561231 0.0147278 0)
(0.557568 0.0200578 0)
(0.551917 0.028551 0)
(0.544189 0.042854 0)
(0.542052 0.0678065 0)
(0.100614 -0.00104982 0)
(0.103521 -0.00189084 0)
(0.108044 -0.00262913 0)
(0.113784 -0.00329255 0)
(0.120611 -0.0039062 0)
(0.128409 -0.00448624 0)
(0.137086 -0.00504448 0)
(0.146574 -0.00558953 0)
(0.156822 -0.00612649 0)
(0.167786 -0.00665703 0)
(0.179422 -0.00717951 0)
(0.191686 -0.00768933 0)
(0.204522 -0.0081796 0)
(0.217868 -0.00864197 0)
(0.231647 -0.00906764 0)
(0.245776 -0.0094482 0)
(0.260163 -0.00977641 0)
(0.274709 -0.0100467 0)
(0.289318 -0.0102553 0)
(0.303892 -0.0104006 0)
(0.318338 -0.0104826 0)
(0.332572 -0.0105031 0)
(0.346516 -0.010465 0)
(0.360102 -0.0103724 0)
(0.373272 -0.0102297 0)
(0.385979 -0.0100421 0)
(0.398184 -0.00981485 0)
(0.409857 -0.00955303 0)
(0.420978 -0.00926172 0)
(0.431534 -0.00894574 0)
(0.441519 -0.00860958 0)
(0.45093 -0.00825741 0)
(0.459774 -0.007893 0)
(0.468059 -0.0075198 0)
(0.475797 -0.00714085 0)
(0.483004 -0.00675889 0)
(0.489697 -0.00637632 0)
(0.495897 -0.00599525 0)
(0.501625 -0.0056175 0)
(0.506902 -0.00524462 0)
(0.511753 -0.00487794 0)
(0.516201 -0.00451859 0)
(0.520271 -0.00416745 0)
(0.523987 -0.0038252 0)
(0.527372 -0.00349236 0)
(0.530451 -0.00316927 0)
(0.533248 -0.00285607 0)
(0.535785 -0.00255273 0)
(0.538086 -0.00225902 0)
(0.540173 -0.00197453 0)
(0.542066 -0.00169865 0)
(0.543788 -0.00143054 0)
(0.545356 -0.00116914 0)
(0.546792 -0.000913141 0)
(0.548111 -0.000660934 0)
(0.549332 -0.000410603 0)
(0.55047 -0.000159891 0)
(0.55154 9.3823e-05 0)
(0.552556 0.000353617 0)
(0.553529 0.000623204 0)
(0.554471 0.000907079 0)
(0.555391 0.00121064 0)
(0.556296 0.00154038 0)
(0.557192 0.00190415 0)
(0.55808 0.00231156 0)
(0.55896 0.00277445 0)
(0.559829 0.00330764 0)
(0.560679 0.00392998 0)
(0.561498 0.00466582 0)
(0.562265 0.00554724 0)
(0.562954 0.00661749 0)
(0.56353 0.00793617 0)
(0.563947 0.00958756 0)
(0.564146 0.0116938 0)
(0.564061 0.0144364 0)
(0.563626 0.0180912 0)
(0.562808 0.0230841 0)
(0.561681 0.0300786 0)
(0.560605 0.0401142 0)
(0.560675 0.0547273 0)
(0.565684 0.0751932 0)
(0.100541 -0.0014906 0)
(0.103393 -0.00272033 0)
(0.107849 -0.00379164 0)
(0.113532 -0.00475485 0)
(0.120311 -0.00564552 0)
(0.128067 -0.00648725 0)
(0.136708 -0.00729741 0)
(0.146168 -0.00808858 0)
(0.156393 -0.00886829 0)
(0.167342 -0.00963904 0)
(0.178973 -0.0103985 0)
(0.19124 -0.0111399 0)
(0.20409 -0.0118534 0)
(0.21746 -0.0125266 0)
(0.231275 -0.0131467 0)
(0.245449 -0.0137013 0)
(0.259889 -0.0141798 0)
(0.274497 -0.0145741 0)
(0.289173 -0.0148786 0)
(0.303818 -0.0150909 0)
(0.318339 -0.015211 0)
(0.332647 -0.0152415 0)
(0.346665 -0.0151866 0)
(0.360324 -0.0150522 0)
(0.373564 -0.0148451 0)
(0.386336 -0.0145726 0)
(0.398603 -0.0142422 0)
(0.410334 -0.0138616 0)
(0.421507 -0.0134381 0)
(0.432111 -0.0129786 0)
(0.442138 -0.0124899 0)
(0.451587 -0.0119778 0)
(0.460463 -0.011448 0)
(0.468775 -0.0109054 0)
(0.476536 -0.0103543 0)
(0.483761 -0.00979891 0)
(0.490468 -0.00924254 0)
(0.496677 -0.00868828 0)
(0.502409 -0.00813875 0)
(0.507687 -0.00759623 0)
(0.512534 -0.00706261 0)
(0.516975 -0.00653947 0)
(0.521033 -0.00602808 0)
(0.524732 -0.00552944 0)
(0.528097 -0.00504428 0)
(0.531152 -0.00457306 0)
(0.53392 -0.00411595 0)
(0.536425 -0.00367288 0)
(0.538688 -0.0032435 0)
(0.540733 -0.00282721 0)
(0.542579 -0.00242309 0)
(0.544248 -0.00202994 0)
(0.54576 -0.00164618 0)
(0.547133 -0.0012699 0)
(0.548384 -0.000898782 0)
(0.549531 -0.000530056 0)
(0.55059 -0.000160502 0)
(0.551574 0.000213598 0)
(0.552498 0.000596591 0)
(0.553375 0.000993756 0)
(0.554215 0.00141143 0)
(0.555027 0.00185715 0)
(0.55582 0.00233993 0)
(0.5566 0.00287058 0)
(0.557371 0.00346217 0)
(0.558134 0.00413069 0)
(0.55889 0.00489586 0)
(0.559635 0.00578233 0)
(0.560363 0.00682131 0)
(0.561065 0.00805295 0)
(0.561729 0.00952963 0)
(0.562343 0.0113208 0)
(0.562892 0.0135195 0)
(0.563371 0.0162527 0)
(0.563791 0.0196933 0)
(0.564198 0.0240775 0)
(0.564721 0.0297221 0)
(0.565632 0.037033 0)
(0.567465 0.046481 0)
(0.571146 0.0584549 0)
(0.578273 0.0726656 0)
(0.100466 -0.00194097 0)
(0.103258 -0.00358953 0)
(0.107632 -0.00501814 0)
(0.113242 -0.00630414 0)
(0.119958 -0.00749317 0)
(0.127659 -0.00861671 0)
(0.136255 -0.00969825 0)
(0.145677 -0.0107548 0)
(0.155875 -0.0117966 0)
(0.166808 -0.0128271 0)
(0.178435 -0.0138433 0)
(0.190713 -0.0148363 0)
(0.20359 -0.0157924 0)
(0.217002 -0.0166954 0)
(0.230874 -0.0175276 0)
(0.24512 -0.0182724 0)
(0.259645 -0.0189154 0)
(0.274349 -0.0194454 0)
(0.289128 -0.019855 0)
(0.303882 -0.0201408 0)
(0.318514 -0.0203029 0)
(0.332934 -0.0203446 0)
(0.347062 -0.0202718 0)
(0.360827 -0.0200923 0)
(0.374169 -0.0198152 0)
(0.387038 -0.0194504 0)
(0.399393 -0.0190082 0)
(0.411206 -0.0184986 0)
(0.422454 -0.0179316 0)
(0.433124 -0.0173166 0)
(0.44321 -0.0166623 0)
(0.452711 -0.0159769 0)
(0.461631 -0.0152678 0)
(0.469981 -0.0145415 0)
(0.477772 -0.013804 0)
(0.485021 -0.0130605 0)
(0.491745 -0.0123158 0)
(0.497965 -0.0115738 0)
(0.503703 -0.0108381 0)
(0.508982 -0.0101115 0)
(0.513824 -0.00939672 0)
(0.518253 -0.00869572 0)
(0.522295 -0.00801022 0)
(0.525973 -0.0073415 0)
(0.529312 -0.00669048 0)
(0.532335 -0.00605774 0)
(0.535067 -0.00544348 0)
(0.537529 -0.00484758 0)
(0.539745 -0.00426956 0)
(0.541737 -0.00370858 0)
(0.543525 -0.0031634 0)
(0.545131 -0.00263238 0)
(0.546573 -0.00211342 0)
(0.54787 -0.00160399 0)
(0.54904 -0.00110101 0)
(0.550099 -0.000600834 0)
(0.551064 -9.93287e-05 0)
(0.551949 0.000408316 0)
(0.552768 0.000927708 0)
(0.553534 0.00146565 0)
(0.554258 0.00203022 0)
(0.55495 0.00263093 0)
(0.55562 0.00327903 0)
(0.556276 0.00398787 0)
(0.556922 0.0047734 0)
(0.557565 0.0056548 0)
(0.558208 0.00665533 0)
(0.558853 0.00780338 0)
(0.559503 0.00913398 0)
(0.56016 0.0106907 0)
(0.560827 0.012528 0)
(0.561513 0.0147147 0)
(0.562233 0.0173374 0)
(0.56302 0.0205048 0)
(0.563933 0.0243514 0)
(0.565077 0.0290378 0)
(0.566623 0.034744 0)
(0.56885 0.041645 0)
(0.572166 0.049851 0)
(0.577126 0.0592836 0)
(0.584379 0.0694409 0)
(0.10039 -0.00240121 0)
(0.103123 -0.00449716 0)
(0.107406 -0.00630844 0)
(0.112932 -0.00794168 0)
(0.119572 -0.00945223 0)
(0.12721 -0.0108797 0)
(0.135751 -0.0122541 0)
(0.145131 -0.0135976 0)
(0.1553 -0.0149233 0)
(0.166219 -0.0162359 0)
(0.177851 -0.0175318 0)
(0.190153 -0.0187994 0)
(0.203075 -0.0200214 0)
(0.216555 -0.0211766 0)
(0.230518 -0.0222421 0)
(0.244874 -0.0231965 0)
(0.259526 -0.0240208 0)
(0.274371 -0.0247006 0)
(0.289302 -0.0252263 0)
(0.304213 -0.0255933 0)
(0.319005 -0.0258018 0)
(0.333584 -0.025856 0)
(0.347867 -0.0257637 0)
(0.36178 -0.0255347 0)
(0.375262 -0.025181 0)
(0.388262 -0.0247152 0)
(0.400738 -0.0241504 0)
(0.41266 -0.0234999 0)
(0.424006 -0.0227761 0)
(0.434764 -0.0219912 0)
(0.444926 -0.0211564 0)
(0.454493 -0.020282 0)
(0.463469 -0.0193774 0)
(0.471865 -0.018451 0)
(0.479693 -0.0175105 0)
(0.486971 -0.0165624 0)
(0.493715 -0.0156127 0)
(0.499948 -0.0146664 0)
(0.505691 -0.0137279 0)
(0.510966 -0.012801 0)
(0.515799 -0.0118889 0)
(0.520213 -0.0109941 0)
(0.524233 -0.0101188 0)
(0.527883 -0.0092644 0)
(0.531187 -0.00843217 0)
(0.53417 -0.00762275 0)
(0.536855 -0.00683639 0)
(0.539265 -0.00607287 0)
(0.541423 -0.00533156 0)
(0.543351 -0.00461134 0)
(0.545069 -0.00391063 0)
(0.546598 -0.00322733 0)
(0.547957 -0.00255883 0)
(0.549166 -0.00190191 0)
(0.550242 -0.00125276 0)
(0.551201 -0.000606845 0)
(0.552059 4.08154e-05 0)
(0.552832 0.000695993 0)
(0.553535 0.00136555 0)
(0.554179 0.00205771 0)
(0.554778 0.00278206 0)
(0.555342 0.00354979 0)
(0.555882 0.00437393 0)
(0.556409 0.00526977 0)
(0.556929 0.00625523 0)
(0.557453 0.00735146 0)
(0.557988 0.00858347 0)
(0.558542 0.00998099 0)
(0.559127 0.0115794 0)
(0.559754 0.013421 0)
(0.56044 0.0155561 0)
(0.56121 0.0180443 0)
(0.562099 0.0209553 0)
(0.563161 0.0243685 0)
(0.564474 0.0283707 0)
(0.566151 0.0330489 0)
(0.568348 0.0384763 0)
(0.571275 0.044687 0)
(0.575187 0.0516352 0)
(0.580364 0.0591361 0)
(0.58703 0.0667985 0)
(0.100313 -0.00287224 0)
(0.102994 -0.00544299 0)
(0.107183 -0.0076633 0)
(0.112616 -0.00966953 0)
(0.119175 -0.0115266 0)
(0.126741 -0.0132821 0)
(0.135224 -0.0149735 0)
(0.14456 -0.016628 0)
(0.154703 -0.0182626 0)
(0.165616 -0.0198833 0)
(0.177266 -0.0214858 0)
(0.189614 -0.0230558 0)
(0.202612 -0.0245715 0)
(0.216199 -0.026006 0)
(0.230297 -0.0273307 0)
(0.244815 -0.0285181 0)
(0.259653 -0.0295442 0)
(0.2747 -0.0303907 0)
(0.289845 -0.0310452 0)
(0.304976 -0.0315022 0)
(0.319988 -0.0317618 0)
(0.334784 -0.0318294 0)
(0.349275 -0.0317147 0)
(0.363386 -0.0314304 0)
(0.377052 -0.0309913 0)
(0.390222 -0.0304134 0)
(0.402853 -0.029713 0)
(0.414914 -0.0289067 0)
(0.426384 -0.02801 0)
(0.43725 -0.0270381 0)
(0.447506 -0.0260048 0)
(0.457152 -0.0249229 0)
(0.466195 -0.023804 0)
(0.474644 -0.0226585 0)
(0.482514 -0.0214957 0)
(0.489822 -0.0203238 0)
(0.496587 -0.0191499 0)
(0.50283 -0.0179802 0)
(0.508574 -0.0168202 0)
(0.513843 -0.0156744 0)
(0.518661 -0.0145466 0)
(0.523051 -0.0134399 0)
(0.52704 -0.0123568 0)
(0.530653 -0.0112993 0)
(0.533912 -0.0102685 0)
(0.536844 -0.00926534 0)
(0.53947 -0.00829003 0)
(0.541816 -0.00734225 0)
(0.543903 -0.00642119 0)
(0.545753 -0.00552544 0)
(0.547388 -0.00465307 0)
(0.548827 -0.00380153 0)
(0.550091 -0.00296765 0)
(0.551198 -0.00214756 0)
(0.552165 -0.00133669 0)
(0.553011 -0.000529738 0)
(0.553751 0.000279074 0)
(0.5544 0.0010963 0)
(0.554975 0.00192998 0)
(0.555488 0.00278953 0)
(0.555953 0.00368577 0)
(0.556382 0.00463111 0)
(0.556788 0.00563981 0)
(0.557182 0.00672827 0)
(0.557576 0.00791533 0)
(0.557982 0.00922268 0)
(0.558412 0.0106752 0)
(0.558882 0.0123016 0)
(0.559406 0.0141345 0)
(0.560007 0.016211 0)
(0.560709 0.0185728 0)
(0.561548 0.0212657 0)
(0.562566 0.0243384 0)
(0.563824 0.0278398 0)
(0.565397 0.0318146 0)
(0.567381 0.0362947 0)
(0.569893 0.0412878 0)
(0.573067 0.0467611 0)
(0.577039 0.0526207 0)
(0.581927 0.0586926 0)
(0.587773 0.0647144 0)
(0.100234 -0.00335566 0)
(0.102872 -0.00642793 0)
(0.10697 -0.00908462 0)
(0.112309 -0.0114909 0)
(0.118782 -0.0137214 0)
(0.126275 -0.0158315 0)
(0.1347 -0.0178664 0)
(0.143995 -0.0198595 0)
(0.154119 -0.0218317 0)
(0.165041 -0.0237911 0)
(0.176732 -0.0257324 0)
(0.189159 -0.0276384 0)
(0.202277 -0.0294819 0)
(0.216024 -0.0312294 0)
(0.230322 -0.0328449 0)
(0.245074 -0.0342939 0)
(0.260173 -0.0355465 0)
(0.275502 -0.0365794 0)
(0.290939 -0.0373775 0)
(0.306367 -0.0379339 0)
(0.321672 -0.0382488 0)
(0.336751 -0.0383294 0)
(0.351513 -0.0381876 0)
(0.365876 -0.0378394 0)
(0.379775 -0.0373031 0)
(0.393157 -0.0365985 0)
(0.405978 -0.0357459 0)
(0.418207 -0.0347653 0)
(0.429825 -0.0336761 0)
(0.440818 -0.0324964 0)
(0.451183 -0.0312431 0)
(0.460919 -0.0299317 0)
(0.470035 -0.0285762 0)
(0.478542 -0.0271892 0)
(0.486456 -0.0257818 0)
(0.493793 -0.0243637 0)
(0.500575 -0.0229436 0)
(0.506824 -0.0215288 0)
(0.512563 -0.0201258 0)
(0.517817 -0.0187398 0)
(0.52261 -0.0173755 0)
(0.526967 -0.0160363 0)
(0.530914 -0.0147253 0)
(0.534477 -0.0134447 0)
(0.537679 -0.0121959 0)
(0.540546 -0.0109798 0)
(0.543101 -0.00979665 0)
(0.545368 -0.00864599 0)
(0.547369 -0.00752682 0)
(0.549128 -0.00643747 0)
(0.550664 -0.00537562 0)
(0.551999 -0.00433828 0)
(0.553152 -0.0033217 0)
(0.554143 -0.00232141 0)
(0.554989 -0.00133212 0)
(0.555707 -0.000348039 0)
(0.556316 0.000637324 0)
(0.556831 0.00163132 0)
(0.557267 0.00264295 0)
(0.557639 0.0036825 0)
(0.557962 0.00476162 0)
(0.55825 0.00589341 0)
(0.558516 0.00709267 0)
(0.558774 0.00837603 0)
(0.559039 0.00976214 0)
(0.559326 0.0112718 0)
(0.559651 0.0129283 0)
(0.560032 0.0147569 0)
(0.560492 0.0167856 0)
(0.561055 0.0190438 0)
(0.561751 0.0215627 0)
(0.562618 0.024373 0)
(0.563699 0.0275037 0)
(0.565049 0.0309783 0)
(0.56673 0.0348108 0)
(0.568812 0.0389996 0)
(0.571371 0.04352 0)
(0.574482 0.0483167 0)
(0.578206 0.0532964 0)
(0.582573 0.0583252 0)
(0.58756 0.0632384 0)
(0.100152 -0.00385378 0)
(0.102759 -0.00745406 0)
(0.106773 -0.0105756 0)
(0.112019 -0.0134102 0)
(0.118409 -0.016043 0)
(0.125831 -0.0185368 0)
(0.134201 -0.020945 0)
(0.143463 -0.0233081 0)
(0.153584 -0.0256519 0)
(0.164539 -0.0279866 0)
(0.176307 -0.0303064 0)
(0.188862 -0.03259 0)
(0.202161 -0.0348037 0)
(0.216144 -0.0369059 0)
(0.230727 -0.0388514 0)
(0.245806 -0.0405969 0)
(0.261264 -0.0421051 0)
(0.276972 -0.0433473 0)
(0.292798 -0.044305 0)
(0.308612 -0.0449698 0)
(0.324294 -0.0453428 0)
(0.339731 -0.045433 0)
(0.354828 -0.0452558 0)
(0.369501 -0.0448309 0)
(0.383681 -0.0441812 0)
(0.397314 -0.0433308 0)
(0.410357 -0.0423044 0)
(0.422781 -0.0411264 0)
(0.434566 -0.0398201 0)
(0.4457 -0.0384073 0)
(0.456182 -0.0369081 0)
(0.466014 -0.0353412 0)
(0.475206 -0.0337229 0)
(0.48377 -0.0320682 0)
(0.491723 -0.0303902 0)
(0.499084 -0.0287004 0)
(0.505876 -0.0270087 0)
(0.512122 -0.0253239 0)
(0.517846 -0.0236533 0)
(0.523073 -0.0220032 0)
(0.527829 -0.0203786 0)
(0.53214 -0.0187839 0)
(0.536032 -0.0172224 0)
(0.53953 -0.0156964 0)
(0.542661 -0.0142077 0)
(0.545448 -0.0127572 0)
(0.547916 -0.0113451 0)
(0.550089 -0.00997089 0)
(0.55199 -0.0086333 0)
(0.553641 -0.0073304 0)
(0.555064 -0.00605951 0)
(0.556279 -0.00481718 0)
(0.557307 -0.00359917 0)
(0.558167 -0.0024004 0)
(0.558878 -0.00121498 0)
(0.559456 -3.69481e-05 0)
(0.559922 0.00114065 0)
(0.56029 0.00232609 0)
(0.560578 0.0035291 0)
(0.5608 0.00476047 0)
(0.560973 0.00603214 0)
(0.561112 0.00735737 0)
(0.561232 0.00875077 0)
(0.561349 0.0102284 0)
(0.56148 0.0118076 0)
(0.561641 0.0135073 0)
(0.561853 0.0153476 0)
(0.562137 0.0173495 0)
(0.562515 0.0195348 0)
(0.563014 0.0219248 0)
(0.563666 0.0245401 0)
(0.564505 0.0273981 0)
(0.565569 0.0305119 0)
(0.566902 0.0338873 0)
(0.56855 0.0375197 0)
(0.570558 0.0413907 0)
(0.572969 0.0454648 0)
(0.575818 0.0496863 0)
(0.579123 0.0539794 0)
(0.582878 0.0582499 0)
(0.587037 0.0623974 0)
(0.100066 -0.00436939 0)
(0.102655 -0.00852458 0)
(0.106596 -0.0121407 0)
(0.111755 -0.0154338 0)
(0.118065 -0.0184998 0)
(0.125423 -0.0214093 0)
(0.133748 -0.0242246 0)
(0.142994 -0.0269943 0)
(0.153135 -0.0297503 0)
(0.164159 -0.0325055 0)
(0.176056 -0.035253 0)
(0.188808 -0.0379667 0)
(0.202375 -0.0406044 0)
(0.216695 -0.0431135 0)
(0.231675 -0.0454371 0)
(0.247201 -0.047521 0)
(0.263138 -0.0493187 0)
(0.279341 -0.050795 0)
(0.295664 -0.0519279 0)
(0.311964 -0.052708 0)
(0.328109 -0.0531379 0)
(0.343981 -0.0532297 0)
(0.359477 -0.053003 0)
(0.374511 -0.0524826 0)
(0.389013 -0.0516967 0)
(0.402928 -0.050675 0)
(0.416217 -0.0494472 0)
(0.428852 -0.0480427 0)
(0.440813 -0.0464891 0)
(0.452094 -0.0448125 0)
(0.462695 -0.0430367 0)
(0.472619 -0.0411832 0)
(0.48188 -0.0392716 0)
(0.490493 -0.0373189 0)
(0.498476 -0.0353405 0)
(0.50585 -0.0333495 0)
(0.512639 -0.0313576 0)
(0.518868 -0.0293745 0)
(0.524562 -0.0274088 0)
(0.529748 -0.0254675 0)
(0.534453 -0.0235564 0)
(0.538702 -0.0216803 0)
(0.542523 -0.0198429 0)
(0.545942 -0.0180468 0)
(0.548985 -0.016294 0)
(0.551677 -0.0145853 0)
(0.554042 -0.012921 0)
(0.556106 -0.0113005 0)
(0.557891 -0.00972218 0)
(0.55942 -0.00818393 0)
(0.560714 -0.00668272 0)
(0.561796 -0.00521469 0)
(0.562686 -0.00377517 0)
(0.563402 -0.00235865 0)
(0.563964 -0.000958875 0)
(0.564393 0.000430515 0)
(0.564705 0.00181652 0)
(0.564917 0.00320823 0)
(0.565046 0.00461573 0)
(0.56511 0.00604993 0)
(0.565125 0.00752265 0)
(0.565108 0.00904672 0)
(0.565075 0.0106359 0)
(0.565043 0.012305 0)
(0.565031 0.0140694 0)
(0.565058 0.0159451 0)
(0.565144 0.0179486 0)
(0.56531 0.020096 0)
(0.565582 0.0224028 0)
(0.565983 0.0248829 0)
(0.566543 0.0275476 0)
(0.56729 0.0304044 0)
(0.568256 0.0334554 0)
(0.569472 0.0366958 0)
(0.570969 0.0401117 0)
(0.572771 0.0436794 0)
(0.574901 0.0473635 0)
(0.577368 0.0511175 0)
(0.58017 0.0548847 0)
(0.583284 0.058602 0)
(0.586667 0.0622093 0)
(0.0999733 -0.00490567 0)
(0.102559 -0.00964382 0)
(0.10644 -0.013786 0)
(0.11152 -0.0175697 0)
(0.117761 -0.0211025 0)
(0.125065 -0.0244634 0)
(0.133362 -0.0277246 0)
(0.142614 -0.0309445 0)
(0.152812 -0.0341624 0)
(0.16396 -0.0373948 0)
(0.176061 -0.0406332 0)
(0.189106 -0.0438443 0)
(0.203059 -0.046974 0)
(0.217848 -0.049955 0)
(0.233368 -0.052715 0)
(0.249484 -0.0551857 0)
(0.266038 -0.0573097 0)
(0.282867 -0.0590447 0)
(0.299802 -0.0603653 0)
(0.316687 -0.0612623 0)
(0.333379 -0.061741 0)
(0.349751 -0.0618182 0)
(0.365697 -0.0615196 0)
(0.38113 -0.0608764 0)
(0.39598 -0.0599234 0)
(0.410196 -0.0586968 0)
(0.423739 -0.0572324 0)
(0.436584 -0.0555651 0)
(0.448719 -0.0537278 0)
(0.460138 -0.0517508 0)
(0.470844 -0.0496618 0)
(0.480848 -0.047486 0)
(0.490162 -0.0452456 0)
(0.498806 -0.0429605 0)
(0.506801 -0.0406479 0)
(0.514169 -0.0383228 0)
(0.520937 -0.0359985 0)
(0.527131 -0.0336859 0)
(0.532777 -0.0313945 0)
(0.537904 -0.0291322 0)
(0.542538 -0.0269055 0)
(0.546709 -0.0247196 0)
(0.550442 -0.0225785 0)
(0.553765 -0.0204853 0)
(0.556705 -0.0184418 0)
(0.559286 -0.0164491 0)
(0.561534 -0.0145074 0)
(0.563474 -0.0126157 0)
(0.56513 -0.0107726 0)
(0.566523 -0.00897547 0)
(0.567678 -0.00722109 0)
(0.568614 -0.00550528 0)
(0.569354 -0.00382299 0)
(0.569916 -0.00216834 0)
(0.57032 -0.000535491 0)
(0.57059 0.00108251 0)
(0.57074 0.00269326 0)
(0.570788 0.00430607 0)
(0.570754 0.00593093 0)
(0.570654 0.00757847 0)
(0.570505 0.00925996 0)
(0.570325 0.0109873 0)
(0.570132 0.0127731 0)
(0.569944 0.0146301 0)
(0.56978 0.0165714 0)
(0.569659 0.0186099 0)
(0.569602 0.0207582 0)
(0.569629 0.0230277 0)
(0.569764 0.0254284 0)
(0.570028 0.0279679 0)
(0.570446 0.0306511 0)
(0.571041 0.0334783 0)
(0.571836 0.0364456 0)
(0.572851 0.0395427 0)
(0.574105 0.0427534 0)
(0.575611 0.0460542 0)
(0.577374 0.0494153 0)
(0.579392 0.0528008 0)
(0.581654 0.0561707 0)
(0.584136 0.0594838 0)
(0.586796 0.0627043 0)
(0.0998731 -0.00546622 0)
(0.10247 -0.0108173 0)
(0.106308 -0.0155192 0)
(0.11132 -0.0198281 0)
(0.117503 -0.0238646 0)
(0.124771 -0.0277172 0)
(0.133062 -0.03147 0)
(0.142357 -0.0351935 0)
(0.152666 -0.0389365 0)
(0.164016 -0.0427194 0)
(0.176426 -0.0465305 0)
(0.189897 -0.0503253 0)
(0.204388 -0.0540329 0)
(0.219814 -0.057565 0)
(0.236044 -0.0608291 0)
(0.252914 -0.0637394 0)
(0.270237 -0.066226 0)
(0.287821 -0.0682394 0)
(0.305478 -0.0697524 0)
(0.323035 -0.0707578 0)
(0.340338 -0.0712661 0)
(0.357256 -0.0713013 0)
(0.373682 -0.0708969 0)
(0.389528 -0.0700927 0)
(0.404729 -0.0689314 0)
(0.419238 -0.067457 0)
(0.433021 -0.0657123 0)
(0.446059 -0.0637384 0)
(0.458344 -0.0615737 0)
(0.469875 -0.0592535 0)
(0.480661 -0.0568096 0)
(0.490715 -0.0542706 0)
(0.500056 -0.0516618 0)
(0.508703 -0.0490057 0)
(0.516682 -0.0463215 0)
(0.524019 -0.0436262 0)
(0.53074 -0.0409343 0)
(0.536875 -0.0382581 0)
(0.542451 -0.0356079 0)
(0.547497 -0.0329924 0)
(0.552042 -0.0304188 0)
(0.556115 -0.0278925 0)
(0.559743 -0.0254181 0)
(0.562955 -0.0229986 0)
(0.565776 -0.0206361 0)
(0.568233 -0.0183317 0)
(0.570351 -0.0160854 0)
(0.572156 -0.0138963 0)
(0.573671 -0.0117626 0)
(0.57492 -0.00968177 0)
(0.575925 -0.00765018 0)
(0.576709 -0.00566346 0)
(0.577292 -0.00371633 0)
(0.577694 -0.00180269 0)
(0.577938 8.30268e-05 0)
(0.578044 0.00194756 0)
(0.578028 0.00379942 0)
(0.57791 0.00564793 0)
(0.577708 0.00750268 0)
(0.57744 0.00937366 0)
(0.577124 0.0112712 0)
(0.576778 0.0132061 0)
(0.57642 0.0151892 0)
(0.576069 0.0172312 0)
(0.575743 0.0193427 0)
(0.575461 0.0215336 0)
(0.575243 0.0238127 0)
(0.575108 0.0261877 0)
(0.575076 0.028664 0)
(0.575167 0.031245 0)
(0.575399 0.0339309 0)
(0.575789 0.0367184 0)
(0.576354 0.0396006 0)
(0.577106 0.0425659 0)
(0.578055 0.0455988 0)
(0.579204 0.0486795 0)
(0.580553 0.0517845 0)
(0.582093 0.0548879 0)
(0.58381 0.0579623 0)
(0.585682 0.0609814 0)
(0.587675 0.0639245 0)
(0.099763 -0.00605501 0)
(0.102388 -0.0120517 0)
(0.106198 -0.0173495 0)
(0.111158 -0.0222216 0)
(0.1173 -0.0268032 0)
(0.124554 -0.0311944 0)
(0.132874 -0.0354942 0)
(0.142264 -0.039789 0)
(0.152764 -0.0441391 0)
(0.164426 -0.0485689 0)
(0.177291 -0.0530595 0)
(0.191362 -0.0575487 0)
(0.206586 -0.0619397 0)
(0.222847 -0.0661157 0)
(0.239979 -0.0699576 0)
(0.257775 -0.0733592 0)
(0.276012 -0.0762374 0)
(0.294467 -0.0785376 0)
(0.312931 -0.0802333 0)
(0.331217 -0.0813232 0)
(0.349165 -0.0818263 0)
(0.366641 -0.0817767 0)
(0.38354 -0.0812186 0)
(0.399782 -0.0802022 0)
(0.415307 -0.0787799 0)
(0.430073 -0.0770045 0)
(0.444057 -0.0749268 0)
(0.457245 -0.0725947 0)
(0.469635 -0.0700525 0)
(0.481235 -0.0673404 0)
(0.492056 -0.0644946 0)
(0.502119 -0.0615473 0)
(0.511444 -0.0585268 0)
(0.520056 -0.0554579 0)
(0.527984 -0.052362 0)
(0.535255 -0.0492578 0)
(0.541898 -0.046161 0)
(0.547945 -0.043085 0)
(0.553424 -0.0400411 0)
(0.558366 -0.0370386 0)
(0.562801 -0.0340851 0)
(0.566757 -0.0311865 0)
(0.570263 -0.0283475 0)
(0.573347 -0.0255714 0)
(0.576037 -0.0228603 0)
(0.578358 -0.0202152 0)
(0.580337 -0.0176361 0)
(0.581999 -0.0151222 0)
(0.583367 -0.0126714 0)
(0.584466 -0.010281 0)
(0.585319 -0.00794741 0)
(0.585947 -0.00566607 0)
(0.586372 -0.00343176 0)
(0.586614 -0.00123867 0)
(0.5867 0.000919562 0)
(0.586642 0.00304931 0)
(0.586463 0.00515933 0)
(0.58618 0.00725857 0)
(0.585812 0.009356 0)
(0.585378 0.0114608 0)
(0.584896 0.0135821 0)
(0.584384 0.0157294 0)
(0.583859 0.0179118 0)
(0.583341 0.0201379 0)
(0.582846 0.0224159 0)
(0.582394 0.0247529 0)
(0.582001 0.0271551 0)
(0.581685 0.0296267 0)
(0.581462 0.0321705 0)
(0.581349 0.0347868 0)
(0.581361 0.0374734 0)
(0.581508 0.0402256 0)
(0.581802 0.0430356 0)
(0.58225 0.0458929 0)
(0.582856 0.0487844 0)
(0.583619 0.0516946 0)
(0.584534 0.0546063 0)
(0.585591 0.0575014 0)
(0.586778 0.0603617 0)
(0.588074 0.0631708 0)
(0.589454 0.0659173 0)
(0.0996409 -0.00667652 0)
(0.10231 -0.0133552 0)
(0.106114 -0.0192886 0)
(0.111038 -0.0247664 0)
(0.117161 -0.0299405 0)
(0.124433 -0.0349265 0)
(0.132831 -0.0398432 0)
(0.142392 -0.0447976 0)
(0.153195 -0.0498643 0)
(0.165325 -0.0550688 0)
(0.178838 -0.0603776 0)
(0.19373 -0.065699 0)
(0.209916 -0.070898 0)
(0.227235 -0.075819 0)
(0.245463 -0.0803106 0)
(0.264344 -0.0842444 0)
(0.283614 -0.0875268 0)
(0.30302 -0.0901019 0)
(0.322334 -0.0919494 0)
(0.341361 -0.0930786 0)
(0.35994 -0.0935217 0)
(0.377942 -0.0933265 0)
(0.395269 -0.0925507 0)
(0.41185 -0.0912569 0)
(0.427635 -0.0895089 0)
(0.442593 -0.0873693 0)
(0.456708 -0.0848974 0)
(0.469978 -0.0821483 0)
(0.482408 -0.0791724 0)
(0.494012 -0.076015 0)
(0.504809 -0.0727165 0)
(0.514822 -0.0693125 0)
(0.524079 -0.0658342 0)
(0.532607 -0.0623087 0)
(0.540438 -0.0587593 0)
(0.547602 -0.055206 0)
(0.554131 -0.0516659 0)
(0.560056 -0.0481532 0)
(0.565409 -0.0446799 0)
(0.570221 -0.0412558 0)
(0.574522 -0.037889 0)
(0.578342 -0.0345856 0)
(0.581709 -0.0313504 0)
(0.584653 -0.0281869 0)
(0.587201 -0.0250971 0)
(0.589378 -0.0220821 0)
(0.591212 -0.0191419 0)
(0.592727 -0.0162754 0)
(0.593947 -0.0134807 0)
(0.594896 -0.0107549 0)
(0.595598 -0.00809431 0)
(0.596074 -0.00549444 0)
(0.596345 -0.00295004 0)
(0.596432 -0.000456723 0)
(0.596364 0.00199278 0)
(0.596152 0.00440579 0)
(0.595816 0.00679069 0)
(0.595377 0.00915563 0)
(0.594852 0.0115087 0)
(0.59426 0.0138581 0)
(0.593618 0.0162119 0)
(0.592945 0.0185779 0)
(0.592257 0.0209637 0)
(0.591573 0.023376 0)
(0.590908 0.0258209 0)
(0.59028 0.0283035 0)
(0.589704 0.0308276 0)
(0.589195 0.0333955 0)
(0.588767 0.0360081 0)
(0.588432 0.0386641 0)
(0.588202 0.0413607 0)
(0.588084 0.0440927 0)
(0.588086 0.0468534 0)
(0.588211 0.0496341 0)
(0.588459 0.0524245 0)
(0.588828 0.0552134 0)
(0.589313 0.0579888 0)
(0.589903 0.0607386 0)
(0.590587 0.0634512 0)
(0.591349 0.0661165 0)
(0.592172 0.0687292 0)
(0.0995043 -0.00733585 0)
(0.102237 -0.0147379 0)
(0.106056 -0.021351 0)
(0.110965 -0.027483 0)
(0.117098 -0.0333056 0)
(0.124434 -0.0389565 0)
(0.132981 -0.0445817 0)
(0.142823 -0.0503148 0)
(0.154088 -0.0562455 0)
(0.166894 -0.0623937 0)
(0.181302 -0.0686965 0)
(0.197278 -0.0750143 0)
(0.21468 -0.0811578 0)
(0.233275 -0.086922 0)
(0.252772 -0.0921197 0)
(0.272857 -0.0966033 0)
(0.293227 -0.100274 0)
(0.313605 -0.103083 0)
(0.333753 -0.105023 0)
(0.353476 -0.106121 0)
(0.372618 -0.106426 0)
(0.391064 -0.106005 0)
(0.408727 -0.104931 0)
(0.425549 -0.103281 0)
(0.441495 -0.101132 0)
(0.456547 -0.0985554 0)
(0.470699 -0.0956209 0)
(0.483959 -0.0923904 0)
(0.496342 -0.0889204 0)
(0.507868 -0.0852609 0)
(0.518564 -0.0814564 0)
(0.528458 -0.0775457 0)
(0.537581 -0.0735625 0)
(0.545967 -0.0695359 0)
(0.553648 -0.0654908 0)
(0.560658 -0.0614485 0)
(0.56703 -0.0574268 0)
(0.572797 -0.0534409 0)
(0.577992 -0.0495031 0)
(0.582645 -0.0456236 0)
(0.58679 -0.0418107 0)
(0.590454 -0.0380708 0)
(0.593668 -0.0344086 0)
(0.59646 -0.0308276 0)
(0.598857 -0.0273299 0)
(0.600885 -0.0239166 0)
(0.602571 -0.0205875 0)
(0.603939 -0.0173415 0)
(0.605014 -0.0141768 0)
(0.605819 -0.0110905 0)
(0.606377 -0.00807904 0)
(0.606711 -0.00513808 0)
(0.60684 -0.00226266 0)
(0.606793 0.000552513 0)
(0.606581 0.00331322 0)
(0.606226 0.00602789 0)
(0.605747 0.00870436 0)
(0.605165 0.01135 0)
(0.604495 0.0139719 0)
(0.603757 0.0165774 0)
(0.602968 0.0191733 0)
(0.602144 0.0217661 0)
(0.601302 0.0243618 0)
(0.600459 0.0269658 0)
(0.59963 0.0295825 0)
(0.598828 0.0322154 0)
(0.59807 0.0348669 0)
(0.597365 0.0375382 0)
(0.596728 0.040229 0)
(0.596166 0.0429379 0)
(0.595688 0.0456619 0)
(0.5953 0.0483968 0)
(0.595006 0.0511371 0)
(0.594808 0.0538762 0)
(0.594705 0.0566071 0)
(0.594693 0.0593218 0)
(0.594767 0.0620125 0)
(0.594919 0.0646715 0)
(0.59514 0.0672918 0)
(0.595418 0.0698675 0)
(0.595739 0.0723973 0)
(0.0993501 -0.00803899 0)
(0.102168 -0.0162118 0)
(0.106027 -0.0235551 0)
(0.110949 -0.030398 0)
(0.117131 -0.0369385 0)
(0.124593 -0.0433456 0)
(0.133391 -0.0498033 0)
(0.143671 -0.0564781 0)
(0.155616 -0.0634716 0)
(0.169368 -0.0707817 0)