/*--------------------------------*- C++ -*----------------------------------*\
  =========                 |
  \\      /  F ield         | OpenFOAM: The Open Source CFD Toolbox
   \\    /   O peration     | Website:  https://openfoam.org
    \\  /    A nd           | Version:  7
     \\/     M anipulation  |
\*---------------------------------------------------------------------------*/
FoamFile
{
    version     2.0;
    format      ascii;
    class       volVectorField;
    location    "1.54";
    object      U;
}
// * * * * * * * * * * * * * * * * * * * * * * * * * * * * * * * * * * * * * //

dimensions      [0 1 -1 0 0 0 0];

internalField   nonuniform List<vector> 
12013
(
(0.100273 -7.69242e-05 0)
(0.101409 -0.000144569 0)
(0.103274 -0.000207349 0)
(0.105693 -0.000264224 0)
(0.108602 -0.000315967 0)
(0.111935 -0.000362958 0)
(0.11563 -0.00040548 0)
(0.11963 -0.000443905 0)
(0.123888 -0.000478675 0)
(0.128361 -0.000510304 0)
(0.133013 -0.000539347 0)
(0.137818 -0.00056638 0)
(0.142751 -0.000591968 0)
(0.147798 -0.000616635 0)
(0.152946 -0.000640845 0)
(0.158189 -0.000664991 0)
(0.163522 -0.000689389 0)
(0.168942 -0.000714276 0)
(0.174449 -0.000739814 0)
(0.180043 -0.000766103 0)
(0.185725 -0.000793186 0)
(0.191495 -0.000821063 0)
(0.197354 -0.000849694 0)
(0.203302 -0.000879016 0)
(0.209337 -0.000908943 0)
(0.215459 -0.000939377 0)
(0.221666 -0.000970204 0)
(0.227956 -0.00100131 0)
(0.234324 -0.00103258 0)
(0.240767 -0.00106387 0)
(0.247282 -0.00109508 0)
(0.253862 -0.00112607 0)
(0.260504 -0.00115671 0)
(0.267201 -0.00118688 0)
(0.273949 -0.00121645 0)
(0.28074 -0.00124528 0)
(0.287568 -0.00127323 0)
(0.294428 -0.00130018 0)
(0.301313 -0.00132598 0)
(0.308215 -0.00135048 0)
(0.315128 -0.00137354 0)
(0.322046 -0.001395 0)
(0.32896 -0.00141469 0)
(0.335865 -0.00143244 0)
(0.342754 -0.00144808 0)
(0.349619 -0.00146139 0)
(0.356454 -0.00147219 0)
(0.363251 -0.00148025 0)
(0.370004 -0.00148534 0)
(0.376706 -0.00148719 0)
(0.38335 -0.00148553 0)
(0.389929 -0.00148005 0)
(0.396436 -0.00147043 0)
(0.402865 -0.00145628 0)
(0.409207 -0.0014372 0)
(0.415456 -0.00141272 0)
(0.421604 -0.00138232 0)
(0.427643 -0.00134541 0)
(0.433565 -0.00130132 0)
(0.43936 -0.00124926 0)
(0.445019 -0.00118831 0)
(0.450531 -0.00111741 0)
(0.455884 -0.00103527 0)
(0.461064 -0.000940355 0)
(0.466055 -0.000830785 0)
(0.470838 -0.000704233 0)
(0.475389 -0.00055778 0)
(0.479682 -0.000387716 0)
(0.483681 -0.000189257 0)
(0.487342 4.40128e-05 0)
(0.490608 0.00032186 0)
(0.493402 0.000658678 0)
(0.495613 0.00107558 0)
(0.497087 0.0016053 0)
(0.497593 0.00230142 0)
(0.496774 0.0032563 0)
(0.49406 0.00463872 0)
(0.488457 0.00678272 0)
(0.478204 0.0104754 0)
(0.460318 0.0184414 0)
(0.440943 0.0477457 0)
(0.100254 -0.000235014 0)
(0.101386 -0.000443234 0)
(0.103245 -0.000635875 0)
(0.105659 -0.000810202 0)
(0.108564 -0.000968748 0)
(0.111892 -0.00111267 0)
(0.115582 -0.00124286 0)
(0.119577 -0.00136045 0)
(0.123829 -0.00146683 0)
(0.128296 -0.00156357 0)
(0.132941 -0.00165237 0)
(0.137738 -0.001735 0)
(0.142664 -0.00181319 0)
(0.147702 -0.00188855 0)
(0.152841 -0.00196249 0)
(0.158074 -0.00203623 0)
(0.163395 -0.00211072 0)
(0.168804 -0.00218668 0)
(0.174299 -0.00226462 0)
(0.17988 -0.00234484 0)
(0.185548 -0.00242747 0)
(0.191304 -0.0025125 0)
(0.197148 -0.00259982 0)
(0.203079 -0.00268923 0)
(0.209098 -0.00278047 0)
(0.215202 -0.00287322 0)
(0.221391 -0.00296717 0)
(0.22766 -0.00306194 0)
(0.234008 -0.00315716 0)
(0.24043 -0.00325247 0)
(0.246922 -0.00334748 0)
(0.253479 -0.0034418 0)
(0.260097 -0.00353504 0)
(0.266769 -0.00362681 0)
(0.273489 -0.00371672 0)
(0.280253 -0.00380435 0)
(0.287053 -0.00388931 0)
(0.293883 -0.00397117 0)
(0.300736 -0.0040495 0)
(0.307606 -0.00412387 0)
(0.314486 -0.00419381 0)
(0.321368 -0.00425884 0)
(0.328247 -0.00431848 0)
(0.335114 -0.00437218 0)
(0.341964 -0.00441941 0)
(0.348789 -0.00445957 0)
(0.355581 -0.00449203 0)
(0.362335 -0.00451612 0)
(0.369043 -0.00453113 0)
(0.375698 -0.00453627 0)
(0.382294 -0.00453069 0)
(0.388823 -0.00451347 0)
(0.395278 -0.00448357 0)
(0.401653 -0.00443986 0)
(0.40794 -0.0043811 0)
(0.414132 -0.00430587 0)
(0.420221 -0.00421258 0)
(0.426199 -0.00409943 0)
(0.432058 -0.00396435 0)
(0.437789 -0.00380495 0)
(0.443383 -0.00361847 0)
(0.448829 -0.00340163 0)
(0.454115 -0.00315055 0)
(0.459228 -0.00286055 0)
(0.464152 -0.00252595 0)
(0.468869 -0.0021397 0)
(0.473358 -0.001693 0)
(0.477592 -0.00117465 0)
(0.48154 -0.000570203 0)
(0.485162 0.000139577 0)
(0.488404 0.000982554 0)
(0.4912 0.00199901 0)
(0.493462 0.00324747 0)
(0.495066 0.00481665 0)
(0.495846 0.00684667 0)
(0.495569 0.00956808 0)
(0.493914 0.0133754 0)
(0.490435 0.0189713 0)
(0.484562 0.0276758 0)
(0.476198 0.0419923 0)
(0.472441 0.0661017 0)
(0.100236 -0.000400189 0)
(0.101358 -0.000760969 0)
(0.103204 -0.00109276 0)
(0.105607 -0.00139288 0)
(0.108501 -0.00166573 0)
(0.111819 -0.00191334 0)
(0.115498 -0.00213725 0)
(0.119481 -0.00233945 0)
(0.123721 -0.00252231 0)
(0.128174 -0.00268853 0)
(0.132806 -0.00284107 0)
(0.137588 -0.00298297 0)
(0.142497 -0.0031172 0)
(0.147518 -0.00324653 0)
(0.152639 -0.0033734 0)
(0.157852 -0.00349989 0)
(0.163152 -0.00362765 0)
(0.168539 -0.00375792 0)
(0.17401 -0.00389157 0)
(0.179566 -0.00402912 0)
(0.185207 -0.00417078 0)
(0.190935 -0.00431656 0)
(0.196749 -0.00446624 0)
(0.202649 -0.00461949 0)
(0.208635 -0.00477586 0)
(0.214705 -0.00493481 0)
(0.220857 -0.00509576 0)
(0.227088 -0.00525811 0)
(0.233396 -0.00542122 0)
(0.239777 -0.00558442 0)
(0.246225 -0.00574707 0)
(0.252737 -0.0059085 0)
(0.259308 -0.00606803 0)
(0.265931 -0.00622499 0)
(0.2726 -0.00637869 0)
(0.279311 -0.00652844 0)
(0.286056 -0.00667354 0)
(0.292829 -0.00681325 0)
(0.299623 -0.00694685 0)
(0.306431 -0.00707356 0)
(0.313247 -0.00719259 0)
(0.320064 -0.00730313 0)
(0.326874 -0.0074043 0)
(0.333671 -0.00749521 0)
(0.340447 -0.00757489 0)
(0.347196 -0.00764234 0)
(0.35391 -0.00769647 0)
(0.360583 -0.00773613 0)
(0.367207 -0.00776008 0)
(0.373776 -0.00776697 0)
(0.380282 -0.00775534 0)
(0.386719 -0.0077236 0)
(0.393079 -0.00767 0)
(0.399356 -0.0075926 0)
(0.405542 -0.00748925 0)
(0.41163 -0.00735756 0)
(0.417613 -0.00719481 0)
(0.423482 -0.00699794 0)
(0.42923 -0.00676348 0)
(0.434848 -0.00648737 0)
(0.440326 -0.00616497 0)
(0.445655 -0.00579079 0)
(0.450824 -0.00535834 0)
(0.45582 -0.00485987 0)
(0.460628 -0.00428597 0)
(0.465234 -0.00362507 0)
(0.469617 -0.00286281 0)
(0.473754 -0.00198101 0)
(0.47762 -0.000956357 0)
(0.481181 0.000241685 0)
(0.484395 0.00165547 0)
(0.487214 0.00334438 0)
(0.489579 0.00539213 0)
(0.49142 0.00791986 0)
(0.492654 0.0111073 0)
(0.493201 0.0152272 0)
(0.49301 0.0206991 0)
(0.492129 0.0281735 0)
(0.490876 0.0386598 0)
(0.49028 0.0536038 0)
(0.49395 0.073945 0)
(0.100219 -0.000571461 0)
(0.101326 -0.00109749 0)
(0.103154 -0.00157813 0)
(0.10554 -0.00201308 0)
(0.108417 -0.00240828 0)
(0.111718 -0.00276675 0)
(0.11538 -0.00309078 0)
(0.119346 -0.00338329 0)
(0.123567 -0.0036477 0)
(0.128 -0.00388796 0)
(0.13261 -0.00410834 0)
(0.137369 -0.00431324 0)
(0.142255 -0.00450698 0)
(0.14725 -0.00469356 0)
(0.152343 -0.00487654 0)
(0.157527 -0.0050589 0)
(0.162797 -0.00524305 0)
(0.16815 -0.00543078 0)
(0.173586 -0.00562335 0)
(0.179105 -0.0058215 0)
(0.184707 -0.00602557 0)
(0.190394 -0.00623553 0)
(0.196164 -0.00645109 0)
(0.202018 -0.00667175 0)
(0.207956 -0.00689687 0)
(0.213976 -0.00712566 0)
(0.220075 -0.0073573 0)
(0.226251 -0.00759088 0)
(0.232502 -0.00782547 0)
(0.238822 -0.00806015 0)
(0.245208 -0.00829393 0)
(0.251655 -0.00852587 0)
(0.258157 -0.00875497 0)
(0.26471 -0.00898026 0)
(0.271307 -0.00920074 0)
(0.277941 -0.0094154 0)
(0.284608 -0.00962321 0)
(0.291299 -0.00982312 0)
(0.298009 -0.0100141 0)
(0.30473 -0.0101949 0)
(0.311456 -0.0103645 0)
(0.31818 -0.0105217 0)
(0.324893 -0.0106652 0)
(0.331591 -0.0107937 0)
(0.338265 -0.0109058 0)
(0.344908 -0.0110001 0)
(0.351513 -0.0110749 0)
(0.358074 -0.0111287 0)
(0.364583 -0.0111596 0)
(0.371033 -0.0111656 0)
(0.377417 -0.0111448 0)
(0.383728 -0.0110947 0)
(0.38996 -0.0110129 0)
(0.396104 -0.0108966 0)
(0.402155 -0.0107427 0)
(0.408105 -0.0105479 0)
(0.413946 -0.0103082 0)
(0.419671 -0.0100195 0)
(0.425273 -0.00967662 0)
(0.430742 -0.00927408 0)
(0.436072 -0.00880533 0)
(0.441251 -0.00826277 0)
(0.44627 -0.00763745 0)
(0.451119 -0.00691876 0)
(0.455785 -0.00609391 0)
(0.460255 -0.00514739 0)
(0.464513 -0.00406003 0)
(0.468541 -0.00280797 0)
(0.47232 -0.00136098 0)
(0.475828 0.000319414 0)
(0.479037 0.00228405 0)
(0.481922 0.00460147 0)
(0.484459 0.00736404 0)
(0.486628 0.0106973 0)
(0.488426 0.0147728 0)
(0.489888 0.0198247 0)
(0.491124 0.0261668 0)
(0.492387 0.0342013 0)
(0.494181 0.044393 0)
(0.497399 0.0571106 0)
(0.503586 0.0719629 0)
(0.100202 -0.000749274 0)
(0.101292 -0.0014528 0)
(0.103096 -0.00209241 0)
(0.105461 -0.00267173 0)
(0.108316 -0.00319781 0)
(0.111594 -0.00367471 0)
(0.115233 -0.00410559 0)
(0.119175 -0.00449435 0)
(0.12337 -0.00484558 0)
(0.127777 -0.00516454 0)
(0.132359 -0.00545693 0)
(0.137087 -0.00572862 0)
(0.141941 -0.00598535 0)
(0.146902 -0.00623245 0)
(0.151959 -0.00647464 0)
(0.157104 -0.00671592 0)
(0.162333 -0.00695947 0)
(0.167643 -0.0072077 0)
(0.173034 -0.00746227 0)
(0.178504 -0.00772416 0)
(0.184056 -0.00799383 0)
(0.189688 -0.00827124 0)
(0.195402 -0.00855601 0)
(0.201198 -0.00884746 0)
(0.207073 -0.00914473 0)
(0.213027 -0.00944679 0)
(0.219059 -0.00975251 0)
(0.225164 -0.0100607 0)
(0.23134 -0.0103701 0)
(0.237584 -0.0106795 0)
(0.243889 -0.0109876 0)
(0.250253 -0.0112931 0)
(0.256669 -0.0115947 0)
(0.263132 -0.0118911 0)
(0.269636 -0.0121809 0)
(0.276174 -0.0124628 0)
(0.282741 -0.0127355 0)
(0.28933 -0.0129974 0)
(0.295934 -0.0132473 0)
(0.302546 -0.0134835 0)
(0.309159 -0.0137047 0)
(0.315766 -0.013909 0)
(0.32236 -0.014095 0)
(0.328934 -0.0142609 0)
(0.335481 -0.0144047 0)
(0.341994 -0.0145246 0)
(0.348465 -0.0146185 0)
(0.354888 -0.0146841 0)
(0.361256 -0.0147191 0)
(0.367561 -0.014721 0)
(0.373797 -0.0146869 0)
(0.379957 -0.0146139 0)
(0.386033 -0.0144986 0)
(0.392019 -0.0143375 0)
(0.397909 -0.0141265 0)
(0.403694 -0.0138613 0)
(0.409368 -0.0135369 0)
(0.414924 -0.0131476 0)
(0.420355 -0.0126873 0)
(0.425653 -0.0121488 0)
(0.430811 -0.0115238 0)
(0.43582 -0.0108029 0)
(0.440672 -0.00997487 0)
(0.445357 -0.00902678 0)
(0.449868 -0.00794309 0)
(0.454193 -0.00670521 0)
(0.458322 -0.0052906 0)
(0.462243 -0.00367165 0)
(0.465945 -0.00181423 0)
(0.469419 0.000323605 0)
(0.472651 0.00279415 0)
(0.475639 0.00566456 0)
(0.47839 0.00902043 0)
(0.480923 0.0129695 0)
(0.483286 0.0176455 0)
(0.485572 0.0232086 0)
(0.48794 0.0298395 0)
(0.490656 0.0377155 0)
(0.494116 0.0469518 0)
(0.498866 0.0574731 0)
(0.505545 0.0687512 0)
(0.100185 -0.000934039 0)
(0.101258 -0.00182698 0)
(0.103035 -0.00263609 0)
(0.105372 -0.00336975 0)
(0.1082 -0.0040357 0)
(0.11145 -0.00463901 0)
(0.11506 -0.0051838 0)
(0.118971 -0.00567503 0)
(0.123135 -0.00611855 0)
(0.127508 -0.00652104 0)
(0.132054 -0.00688972 0)
(0.136745 -0.00723204 0)
(0.141559 -0.00755524 0)
(0.146478 -0.0078661 0)
(0.15149 -0.00817059 0)
(0.156588 -0.00847377 0)
(0.161767 -0.00877966 0)
(0.167024 -0.00909132 0)
(0.172359 -0.00941085 0)
(0.17777 -0.0097395 0)
(0.18326 -0.0100778 0)
(0.188827 -0.0104258 0)
(0.194472 -0.0107829 0)
(0.200195 -0.0111484 0)
(0.205996 -0.011521 0)
(0.211871 -0.0118996 0)
(0.21782 -0.0122826 0)
(0.22384 -0.0126686 0)
(0.229928 -0.0130559 0)
(0.236078 -0.0134431 0)
(0.242288 -0.0138284 0)
(0.248552 -0.0142102 0)
(0.254865 -0.0145869 0)
(0.261221 -0.0149568 0)
(0.267614 -0.0153181 0)
(0.274039 -0.0156693 0)
(0.280488 -0.0160085 0)
(0.286955 -0.0163339 0)
(0.293434 -0.0166438 0)
(0.299917 -0.0169363 0)
(0.306398 -0.0172093 0)
(0.312869 -0.017461 0)
(0.319323 -0.0176891 0)
(0.325754 -0.0178914 0)
(0.332154 -0.0180657 0)
(0.338515 -0.0182094 0)
(0.344832 -0.01832 0)
(0.351097 -0.0183947 0)
(0.357303 -0.0184305 0)
(0.363442 -0.0184241 0)
(0.369509 -0.0183723 0)
(0.375497 -0.0182711 0)
(0.381398 -0.0181166 0)
(0.387206 -0.0179042 0)
(0.392914 -0.0176292 0)
(0.398516 -0.017286 0)
(0.404005 -0.0168687 0)
(0.409375 -0.0163706 0)
(0.414619 -0.0157842 0)
(0.41973 -0.0151009 0)
(0.424703 -0.014311 0)
(0.42953 -0.0134036 0)
(0.434205 -0.0123657 0)
(0.438721 -0.0111827 0)
(0.443073 -0.00983713 0)
(0.447253 -0.00830868 0)
(0.451257 -0.00657314 0)
(0.45508 -0.00460165 0)
(0.458719 -0.00235959 0)
(0.462176 0.000194339 0)
(0.465451 0.00310695 0)
(0.468559 0.00643565 0)
(0.471528 0.0102491 0)
(0.4744 0.0146262 0)
(0.477244 0.0196535 0)
(0.480165 0.0254191 0)
(0.48331 0.0319985 0)
(0.486883 0.0394306 0)
(0.491135 0.0476767 0)
(0.496349 0.056559 0)
(0.502756 0.0656836 0)
(0.100169 -0.00112613 0)
(0.101224 -0.00222023 0)
(0.102971 -0.00320973 0)
(0.105277 -0.00410802 0)
(0.108072 -0.00492324 0)
(0.111289 -0.00566133 0)
(0.114864 -0.00632743 0)
(0.118738 -0.00692764 0)
(0.122863 -0.00746914 0)
(0.127196 -0.00796014 0)
(0.1317 -0.00840949 0)
(0.136346 -0.00882632 0)
(0.141112 -0.00921953 0)
(0.145981 -0.00959737 0)
(0.15094 -0.00996719 0)
(0.155982 -0.0103352 0)
(0.161102 -0.0107062 0)
(0.166296 -0.0110842 0)
(0.171565 -0.0114715 0)
(0.176907 -0.0118697 0)
(0.182324 -0.0122797 0)
(0.187815 -0.0127012 0)
(0.19338 -0.0131337 0)
(0.199019 -0.0135761 0)
(0.204732 -0.0140272 0)
(0.210516 -0.0144852 0)
(0.21637 -0.0149485 0)
(0.222291 -0.0154152 0)
(0.228276 -0.0158833 0)
(0.23432 -0.016351 0)
(0.240419 -0.0168161 0)
(0.246568 -0.0172768 0)
(0.252763 -0.0177308 0)
(0.258997 -0.0181763 0)
(0.265264 -0.0186111 0)
(0.271559 -0.0190331 0)
(0.277874 -0.0194402 0)
(0.284204 -0.0198301 0)
(0.290541 -0.0202008 0)
(0.296878 -0.0205497 0)
(0.30321 -0.0208747 0)
(0.309527 -0.0211731 0)
(0.315825 -0.0214424 0)
(0.322095 -0.0216799 0)
(0.32833 -0.0218828 0)
(0.334523 -0.022048 0)
(0.340668 -0.0221725 0)
(0.346758 -0.0222528 0)
(0.352785 -0.0222854 0)
(0.358742 -0.0222663 0)
(0.364624 -0.0221916 0)
(0.370423 -0.0220566 0)
(0.376133 -0.0218567 0)
(0.381747 -0.0215865 0)
(0.38726 -0.0212402 0)
(0.392665 -0.0208117 0)
(0.397957 -0.0202938 0)
(0.403129 -0.019679 0)
(0.408176 -0.0189586 0)
(0.413092 -0.018123 0)
(0.417872 -0.0171616 0)
(0.422512 -0.016062 0)
(0.427008 -0.0148105 0)
(0.431354 -0.0133913 0)
(0.435549 -0.0117864 0)
(0.439589 -0.00997491 0)
(0.443476 -0.007933 0)
(0.44721 -0.00563297 0)
(0.450795 -0.00304292 0)
(0.454242 -0.000126235 0)
(0.457564 0.00315482 0)
(0.460785 0.0068427 0)
(0.463941 0.010985 0)
(0.467084 0.0156306 0)
(0.470281 0.0208242 0)
(0.473623 0.0265994 0)
(0.477222 0.0329666 0)
(0.481211 0.0398973 0)
(0.485727 0.0473041 0)
(0.490894 0.0550191 0)
(0.496766 0.0627843 0)
(0.100151 -0.00132599 0)
(0.101191 -0.00263286 0)
(0.102906 -0.00381395 0)
(0.105177 -0.00488744 0)
(0.107935 -0.00586169 0)
(0.111113 -0.00674328 0)
(0.114647 -0.00753839 0)
(0.118478 -0.00825431 0)
(0.122559 -0.00889968 0)
(0.126844 -0.00948429 0)
(0.131298 -0.0100188 0)
(0.135891 -0.0105141 0)
(0.140602 -0.0109808 0)
(0.145412 -0.0114288 0)
(0.15031 -0.0118669 0)
(0.155287 -0.0123025 0)
(0.160339 -0.0127415 0)
(0.165461 -0.0131884 0)
(0.170654 -0.0136462 0)
(0.175918 -0.0141168 0)
(0.181251 -0.014601 0)
(0.186654 -0.0150988 0)
(0.192129 -0.0156095 0)
(0.197673 -0.0161317 0)
(0.203286 -0.016664 0)
(0.208967 -0.0172043 0)
(0.214714 -0.0177507 0)
(0.220523 -0.0183007 0)
(0.226392 -0.0188523 0)
(0.232316 -0.0194029 0)
(0.238291 -0.0199502 0)
(0.244313 -0.0204918 0)
(0.250375 -0.0210252 0)
(0.256473 -0.021548 0)
(0.2626 -0.0220577 0)
(0.26875 -0.0225518 0)
(0.274917 -0.0230277 0)
(0.281094 -0.0234827 0)
(0.287274 -0.0239144 0)
(0.293451 -0.0243197 0)
(0.299618 -0.024696 0)
(0.305768 -0.0250403 0)
(0.311893 -0.0253494 0)
(0.317987 -0.0256202 0)
(0.324043 -0.0258494 0)
(0.330054 -0.0260333 0)
(0.336012 -0.0261683 0)
(0.341912 -0.0262503 0)
(0.347746 -0.0262753 0)
(0.353507 -0.0262386 0)
(0.359191 -0.0261356 0)
(0.364789 -0.0259611 0)
(0.370296 -0.0257094 0)
(0.375706 -0.0253747 0)
(0.381013 -0.0249503 0)
(0.386211 -0.0244293 0)
(0.391297 -0.0238038 0)
(0.396263 -0.0230653 0)
(0.401107 -0.0222046 0)
(0.405824 -0.0212112 0)
(0.41041 -0.0200737 0)
(0.414862 -0.0187795 0)
(0.419178 -0.0173143 0)
(0.423358 -0.0156623 0)
(0.4274 -0.0138059 0)
(0.431307 -0.0117253 0)
(0.435083 -0.00939849 0)
(0.438733 -0.00680109 0)
(0.442269 -0.0039062 0)
(0.445704 -0.000684914 0)
(0.449063 0.00289028 0)
(0.452366 0.00684584 0)
(0.455655 0.0112092 0)
(0.458976 0.0160038 0)
(0.462387 0.0212438 0)
(0.465955 0.0269288 0)
(0.469753 0.0330362 0)
(0.473857 0.0395139 0)
(0.478332 0.0462726 0)
(0.483217 0.0531827 0)
(0.488497 0.0600851 0)
(0.100134 -0.0015341 0)
(0.101157 -0.0030653 0)
(0.10284 -0.00444943 0)
(0.105073 -0.00570891 0)
(0.10779 -0.0068522 0)
(0.110924 -0.0078863 0)
(0.114411 -0.00881837 0)
(0.118193 -0.00965696 0)
(0.122221 -0.0104122 0)
(0.126452 -0.0110957 0)
(0.130848 -0.0117198 0)
(0.135382 -0.0122975 0)
(0.140029 -0.0128412 0)
(0.144772 -0.0133626 0)
(0.1496 -0.0138718 0)
(0.154503 -0.0143777 0)
(0.159477 -0.0148872 0)
(0.164519 -0.0154056 0)
(0.169626 -0.0159364 0)
(0.1748 -0.0164818 0)
(0.18004 -0.0170429 0)
(0.185346 -0.0176196 0)
(0.190718 -0.018211 0)
(0.196156 -0.0188157 0)
(0.201659 -0.0194317 0)
(0.207225 -0.0200569 0)
(0.212852 -0.0206887 0)
(0.218538 -0.0213246 0)
(0.224279 -0.0219618 0)
(0.23007 -0.0225975 0)
(0.235909 -0.023229 0)
(0.241789 -0.0238533 0)
(0.247706 -0.0244677 0)
(0.253654 -0.0250692 0)
(0.259627 -0.0256549 0)
(0.265619 -0.0262219 0)
(0.271623 -0.0267671 0)
(0.277634 -0.0272875 0)
(0.283644 -0.0277799 0)
(0.289647 -0.028241 0)
(0.295636 -0.0286677 0)
(0.301604 -0.0290564 0)
(0.307543 -0.0294035 0)
(0.313448 -0.0297053 0)
(0.319311 -0.0299579 0)
(0.325126 -0.0301572 0)
(0.330885 -0.0302989 0)
(0.336582 -0.0303785 0)
(0.342211 -0.0303912 0)
(0.347766 -0.0303318 0)
(0.353239 -0.0301949 0)
(0.358626 -0.0299748 0)
(0.363921 -0.0296653 0)
(0.369117 -0.0292596 0)
(0.374211 -0.0287507 0)
(0.379197 -0.0281308 0)
(0.38407 -0.0273916 0)
(0.388828 -0.026524 0)
(0.393466 -0.0255183 0)
(0.397982 -0.0243637 0)
(0.402373 -0.0230486 0)
(0.406639 -0.0215604 0)
(0.41078 -0.0198854 0)
(0.414796 -0.0180084 0)
(0.418691 -0.0159133 0)
(0.422469 -0.0135825 0)
(0.426137 -0.0109972 0)
(0.429705 -0.00813779 0)
(0.433187 -0.0049835 0)
(0.436599 -0.0015139 0)
(0.439968 0.00228848 0)
(0.443312 0.00643581 0)
(0.446667 0.0109392 0)
(0.450073 0.0158036 0)
(0.453571 0.0210242 0)
(0.457206 0.026583 0)
(0.461019 0.0324454 0)
(0.465049 0.0385575 0)
(0.469318 0.0448449 0)
(0.473826 0.0512158 0)
(0.478539 0.0575746 0)
(0.100115 -0.00175095 0)
(0.101124 -0.00351799 0)
(0.102773 -0.00511684 0)
(0.104966 -0.00657327 0)
(0.107637 -0.0078958 0)
(0.110721 -0.00909161 0)
(0.114156 -0.0101688 0)
(0.117883 -0.0111371 0)
(0.121852 -0.0120084 0)
(0.12602 -0.012796 0)
(0.130351 -0.0135144 0)
(0.134816 -0.0141784 0)
(0.139391 -0.0148025 0)
(0.144059 -0.0154002 0)
(0.148807 -0.0159834 0)
(0.153627 -0.0165621 0)
(0.158514 -0.0171445 0)
(0.163464 -0.0177367 0)
(0.168476 -0.0183428 0)
(0.17355 -0.0189654 0)
(0.178686 -0.0196057 0)
(0.183884 -0.0202636 0)
(0.189143 -0.020938 0)
(0.194463 -0.0216275 0)
(0.199844 -0.0223296 0)
(0.205284 -0.0230418 0)
(0.21078 -0.0237613 0)
(0.21633 -0.0244851 0)
(0.22193 -0.0252099 0)
(0.227577 -0.0259325 0)
(0.233266 -0.0266498 0)
(0.238992 -0.0273583 0)
(0.244751 -0.0280548 0)
(0.250536 -0.028736 0)
(0.256342 -0.0293984 0)
(0.262163 -0.0300386 0)
(0.267992 -0.0306532 0)
(0.273823 -0.0312385 0)
(0.279649 -0.031791 0)
(0.285465 -0.0323069 0)
(0.291262 -0.0327825 0)
(0.297035 -0.0332137 0)
(0.302776 -0.0335964 0)
(0.308479 -0.0339264 0)
(0.314137 -0.0341993 0)
(0.319743 -0.0344104 0)
(0.325292 -0.0345547 0)
(0.330776 -0.0346274 0)
(0.33619 -0.0346228 0)
(0.341527 -0.0345355 0)
(0.346782 -0.0343593 0)
(0.351949 -0.0340879 0)
(0.357023 -0.0337146 0)
(0.362 -0.0332322 0)
(0.366874 -0.0326331 0)
(0.371642 -0.031909 0)
(0.376301 -0.0310514 0)
(0.380847 -0.0300509 0)
(0.385278 -0.0288976 0)
(0.389594 -0.0275809 0)
(0.393792 -0.0260895 0)
(0.397874 -0.0244114 0)
(0.401842 -0.0225338 0)
(0.405699 -0.0204434 0)
(0.40945 -0.0181262 0)
(0.4131 -0.0155675 0)
(0.41666 -0.0127528 0)
(0.420142 -0.00966751 0)
(0.423558 -0.0062976 0)
(0.426925 -0.00263054 0)
(0.430273 0.00134389 0)
(0.433609 0.00562641 0)
(0.436965 0.0102155 0)
(0.44037 0.0151045 0)
(0.443852 0.020279 0)
(0.447436 0.0257143 0)
(0.451143 0.031375 0)
(0.454987 0.037214 0)
(0.458971 0.0431747 0)
(0.463078 0.0491943 0)
(0.467272 0.0552162 0)
(0.100095 -0.00197702 0)
(0.10109 -0.00399139 0)
(0.102706 -0.00581677 0)
(0.104854 -0.00748123 0)
(0.107476 -0.00899333 0)
(0.110506 -0.0103602 0)
(0.113882 -0.0115907 0)
(0.117546 -0.012696 0)
(0.121449 -0.0136894 0)
(0.125547 -0.0145864 0)
(0.129804 -0.0154035 0)
(0.134191 -0.0161577 0)
(0.138685 -0.0168655 0)
(0.143267 -0.0175424 0)
(0.147926 -0.0182021 0)
(0.152653 -0.0188561 0)
(0.157443 -0.0195136 0)
(0.162291 -0.0201817 0)
(0.167198 -0.0208652 0)
(0.172161 -0.0215671 0)
(0.177182 -0.0222886 0)
(0.18226 -0.0230296 0)
(0.187394 -0.0237892 0)
(0.192586 -0.0245653 0)
(0.197833 -0.0253555 0)
(0.203134 -0.0261567 0)
(0.208486 -0.0269657 0)
(0.213888 -0.0277789 0)
(0.219336 -0.0285929 0)
(0.224825 -0.0294039 0)
(0.230352 -0.0302081 0)
(0.235911 -0.0310018 0)
(0.241498 -0.0317812 0)
(0.247108 -0.0325425 0)
(0.252733 -0.0332818 0)
(0.25837 -0.0339951 0)
(0.26401 -0.0346786 0)
(0.269648 -0.0353281 0)
(0.275278 -0.0359395 0)
(0.280893 -0.0365087 0)
(0.286486 -0.0370312 0)
(0.292051 -0.0375025 0)
(0.297581 -0.0379181 0)
(0.30307 -0.0382732 0)
(0.308511 -0.0385627 0)
(0.313898 -0.0387816 0)
(0.319225 -0.0389243 0)
(0.324485 -0.0389853 0)
(0.329674 -0.0389586 0)
(0.334785 -0.0388381 0)
(0.339813 -0.0386173 0)
(0.344753 -0.0382893 0)
(0.349601 -0.037847 0)
(0.354352 -0.0372828 0)
(0.359003 -0.0365888 0)
(0.36355 -0.0357567 0)
(0.367992 -0.0347776 0)
(0.372325 -0.0336423 0)
(0.37655 -0.0323411 0)
(0.380666 -0.030864 0)
(0.384673 -0.0292004 0)
(0.388574 -0.0273394 0)
(0.392372 -0.0252699 0)
(0.396071 -0.0229806 0)
(0.399678 -0.0204601 0)
(0.4032 -0.0176974 0)
(0.406647 -0.0146822 0)
(0.41003 -0.0114049 0)
(0.413364 -0.00785773 0)
(0.416662 -0.00403489 0)
(0.419947 6.85425e-05 0)
(0.423231 0.00444732 0)
(0.42653 0.00908993 0)
(0.429865 0.0139836 0)
(0.433253 0.0191103 0)
(0.436707 0.024445 0)
(0.440234 0.0299558 0)
(0.443835 0.0356053 0)
(0.447503 0.0413515 0)
(0.451219 0.047152 0)
(0.454948 0.0529741 0)
(0.100074 -0.00221273 0)
(0.101055 -0.00448591 0)
(0.102637 -0.00654969 0)
(0.104739 -0.00843332 0)
(0.107307 -0.0101453 0)
(0.110278 -0.0116925 0)
(0.113588 -0.0130846 0)
(0.117183 -0.0143339 0)
(0.121011 -0.0154557 0)
(0.12503 -0.0164673 0)
(0.129204 -0.0173874 0)
(0.133504 -0.0182354 0)
(0.137906 -0.0190301 0)
(0.142393 -0.0197889 0)
(0.146952 -0.0205274 0)
(0.151575 -0.0212588 0)
(0.156256 -0.0219934 0)
(0.160991 -0.0227393 0)
(0.16578 -0.023502 0)
(0.170621 -0.0242848 0)
(0.175515 -0.0250892 0)
(0.180461 -0.0259152 0)
(0.18546 -0.0267615 0)
(0.19051 -0.0276259 0)
(0.195611 -0.0285057 0)
(0.200761 -0.0293973 0)
(0.205957 -0.0302971 0)
(0.211198 -0.0312012 0)
(0.216479 -0.0321054 0)
(0.221798 -0.0330056 0)
(0.227149 -0.0338975 0)
(0.232529 -0.0347768 0)
(0.237931 -0.0356394 0)
(0.243351 -0.0364807 0)
(0.248783 -0.0372965 0)
(0.254221 -0.0380823 0)
(0.259659 -0.0388336 0)
(0.265091 -0.039546 0)
(0.270511 -0.0402146 0)
(0.275912 -0.0408349 0)
(0.281288 -0.0414019 0)
(0.286632 -0.0419106 0)
(0.291939 -0.0423559 0)
(0.297202 -0.0427325 0)
(0.302415 -0.0430348 0)
(0.307572 -0.0432573 0)
(0.312666 -0.0433939 0)
(0.317693 -0.0434386 0)
(0.322648 -0.043385 0)
(0.327524 -0.0432264 0)
(0.332317 -0.0429561 0)
(0.337024 -0.0425668 0)
(0.34164 -0.0420511 0)
(0.346161 -0.0414012 0)
(0.350585 -0.040609 0)
(0.354909 -0.0396664 0)
(0.359132 -0.0385646 0)
(0.363252 -0.0372947 0)
(0.367271 -0.0358478 0)
(0.371188 -0.0342144 0)
(0.375006 -0.0323852 0)
(0.378727 -0.0303509 0)
(0.382355 -0.0281022 0)
(0.385897 -0.0256301 0)
(0.389357 -0.0229263 0)
(0.392746 -0.0199832 0)
(0.39607 -0.0167942 0)
(0.399343 -0.0133545 0)
(0.402574 -0.00966098 0)
(0.405777 -0.00571302 0)
(0.408962 -0.00151152 0)
(0.412155 0.00293776 0)
(0.41535 0.00761741 0)
(0.418564 0.012512 0)
(0.421806 0.0176028 0)
(0.42508 0.0228672 0)
(0.428387 0.0282787 0)
(0.431721 0.033808 0)
(0.435071 0.0394247 0)
(0.43842 0.0450997 0)
(0.44174 0.0508147 0)
(0.100052 -0.00245841 0)
(0.10102 -0.00500186 0)
(0.102566 -0.00731588 0)
(0.104619 -0.00942974 0)
(0.107129 -0.0113518 0)
(0.110034 -0.0130886 0)
(0.113273 -0.0146503 0)
(0.11679 -0.0160507 0)
(0.120534 -0.0173067 0)
(0.124465 -0.0184378 0)
(0.128546 -0.0194651 0)
(0.132748 -0.0204104 0)
(0.137047 -0.0212948 0)
(0.141427 -0.022138 0)
(0.145875 -0.0229574 0)
(0.150382 -0.0237678 0)
(0.154942 -0.0245812 0)
(0.159553 -0.0254064 0)
(0.164212 -0.0262496 0)
(0.168919 -0.0271147 0)
(0.173673 -0.0280034 0)
(0.178475 -0.0289156 0)
(0.183324 -0.0298499 0)
(0.18822 -0.0308039 0)
(0.193161 -0.0317743 0)
(0.198147 -0.0327573 0)
(0.203174 -0.0337488 0)
(0.20824 -0.0347443 0)
(0.213342 -0.0357393 0)
(0.218476 -0.036729 0)
(0.223638 -0.0377087 0)
(0.228823 -0.0386736 0)
(0.234026 -0.0396188 0)
(0.239243 -0.0405395 0)
(0.244467 -0.0414309 0)
(0.249693 -0.0422879 0)
(0.254915 -0.0431055 0)
(0.260127 -0.0438787 0)
(0.265323 -0.0446024 0)
(0.270497 -0.0452712 0)
(0.275643 -0.0458797 0)
(0.280754 -0.0464226 0)
(0.285825 -0.046894 0)
(0.29085 -0.0472883 0)
(0.295823 -0.0475994 0)
(0.300738 -0.0478211 0)
(0.305591 -0.0479472 0)
(0.310375 -0.047971 0)
(0.315086 -0.0478859 0)
(0.31972 -0.0476849 0)
(0.324272 -0.0473609 0)
(0.328739 -0.0469064 0)
(0.333118 -0.0463138 0)
(0.337405 -0.0455755 0)
(0.341598 -0.0446835 0)
(0.345697 -0.0436297 0)
(0.3497 -0.0424059 0)
(0.353607 -0.0410039 0)
(0.35742 -0.0394153 0)
(0.361139 -0.0376321 0)
(0.364767 -0.0356462 0)
(0.368308 -0.0334499 0)
(0.371766 -0.0310362 0)
(0.375147 -0.0283985 0)
(0.378457 -0.025531 0)
(0.381705 -0.0224295 0)
(0.384897 -0.0190907 0)
(0.388044 -0.0155133 0)
(0.391154 -0.0116982 0)
(0.394238 -0.00764816 0)
(0.397302 -0.00336823 0)
(0.40037 0.00113755 0)
(0.403425 0.00585062 0)
(0.406481 0.0107529 0)
(0.409543 0.0158264 0)
(0.412611 0.0210518 0)
(0.41568 0.026408 0)
(0.418743 0.0318723 0)
(0.42179 0.0374223 0)
(0.424804 0.0430378 0)
(0.427765 0.0487093 0)
(0.100028 -0.00271432 0)
(0.100983 -0.00553942 0)
(0.102494 -0.00811533 0)
(0.104493 -0.0104703 0)
(0.10694 -0.0126124 0)
(0.109774 -0.0145477 0)
(0.112934 -0.0162868 0)
(0.116364 -0.0178449 0)
(0.120017 -0.0192408 0)
(0.123849 -0.0204961 0)
(0.127825 -0.0216344 0)
(0.131918 -0.02268 0)
(0.136103 -0.0236566 0)
(0.140364 -0.0245861 0)
(0.144687 -0.0254881 0)
(0.149065 -0.0263791 0)
(0.153492 -0.0272724 0)
(0.157964 -0.0281779 0)
(0.16248 -0.0291028 0)
(0.167039 -0.0300511 0)
(0.17164 -0.0310249 0)
(0.176284 -0.032024 0)
(0.18097 -0.033047 0)
(0.185697 -0.0340911 0)
(0.190465 -0.0351527 0)
(0.195272 -0.0362275 0)
(0.200115 -0.037311 0)
(0.204992 -0.0383981 0)
(0.2099 -0.0394837 0)
(0.214835 -0.0405626 0)
(0.219793 -0.0416295 0)
(0.224769 -0.0426791 0)
(0.229759 -0.0437059 0)
(0.234758 -0.0447047 0)
(0.239759 -0.0456699 0)
(0.244759 -0.0465961 0)
(0.24975 -0.0474778 0)
(0.254728 -0.0483094 0)
(0.259686 -0.0490852 0)
(0.264619 -0.0497994 0)
(0.269521 -0.0504462 0)
(0.274387 -0.0510195 0)
(0.27921 -0.0515132 0)
(0.283985 -0.051921 0)
(0.288706 -0.0522366 0)
(0.29337 -0.0524534 0)
(0.29797 -0.0525646 0)
(0.302502 -0.0525634 0)
(0.306962 -0.0524428 0)
(0.311345 -0.0521955 0)
(0.315649 -0.0518143 0)
(0.319871 -0.0512918 0)
(0.324007 -0.0506204 0)
(0.328056 -0.0497925 0)
(0.332017 -0.0488005 0)
(0.335888 -0.0476367 0)
(0.339669 -0.0462936 0)
(0.343362 -0.0447637 0)
(0.346967 -0.0430398 0)
(0.350487 -0.041115 0)
(0.353925 -0.0389828 0)
(0.357284 -0.0366373 0)
(0.36057 -0.0340734 0)
(0.363786 -0.0312868 0)
(0.36694 -0.0282743 0)
(0.370038 -0.0250341 0)
(0.373086 -0.0215657 0)
(0.376093 -0.0178706 0)
(0.379064 -0.013952 0)
(0.382008 -0.00981509 0)
(0.384928 -0.00546696 0)
(0.38783 -0.000913593 0)
(0.39073 0.00383445 0)
(0.393609 0.00875436 0)
(0.396476 0.0138298 0)
(0.399328 0.0190445 0)
(0.40216 0.0243814 0)
(0.404964 0.0298229 0)
(0.40773 0.0353523 0)
(0.410446 0.040955 0)
(0.413095 0.0466268 0)
(0.100003 -0.00298058 0)
(0.100945 -0.00609854 0)
(0.102418 -0.00894764 0)
(0.104362 -0.0115543 0)
(0.10674 -0.0139259 0)
(0.109497 -0.0160682 0)
(0.112569 -0.0179921 0)
(0.115904 -0.019714 0)
(0.119453 -0.0212548 0)
(0.123175 -0.0226384 0)
(0.127036 -0.023891 0)
(0.131006 -0.0250396 0)
(0.135064 -0.0261103 0)
(0.139192 -0.0271277 0)
(0.143378 -0.0281135 0)
(0.147613 -0.029086 0)
(0.151893 -0.0300599 0)
(0.156212 -0.0310464 0)
(0.16057 -0.0320532 0)
(0.164966 -0.0330852 0)
(0.1694 -0.0341443 0)
(0.173871 -0.0352307 0)
(0.178379 -0.0363425 0)
(0.182923 -0.0374767 0)
(0.187502 -0.0386293 0)
(0.192115 -0.0397956 0)
(0.19676 -0.0409706 0)
(0.201433 -0.0421485 0)
(0.206131 -0.0433239 0)
(0.210851 -0.044491 0)
(0.21559 -0.0456437 0)
(0.220342 -0.0467764 0)
(0.225103 -0.047883 0)
(0.229868 -0.0489577 0)
(0.234632 -0.0499944 0)
(0.239389 -0.0509873 0)
(0.244135 -0.0519301 0)
(0.248864 -0.0528168 0)
(0.25357 -0.0536413 0)
(0.258249 -0.0543973 0)
(0.262893 -0.0550783 0)
(0.267499 -0.0556781 0)
(0.272061 -0.0561899 0)
(0.276574 -0.0566072 0)
(0.281033 -0.0569231 0)
(0.285434 -0.0571307 0)
(0.289772 -0.057223 0)
(0.294042 -0.057193 0)
(0.298242 -0.0570334 0)
(0.302369 -0.0567369 0)
(0.306418 -0.0562963 0)
(0.310388 -0.0557042 0)
(0.314278 -0.0549532 0)
(0.318085 -0.0540361 0)
(0.321809 -0.0529456 0)
(0.325449 -0.0516748 0)
(0.329007 -0.0502169 0)
(0.332484 -0.0485653 0)
(0.33588 -0.0467141 0)
(0.339199 -0.0446575 0)
(0.342444 -0.0423907 0)
(0.345619 -0.0399094 0)
(0.348727 -0.0372102 0)
(0.351774 -0.034291 0)
(0.354765 -0.0311505 0)
(0.357705 -0.027789 0)
(0.360599 -0.0242079 0)
(0.363454 -0.0204105 0)
(0.366273 -0.0164015 0)
(0.369063 -0.0121873 0)
(0.371825 -0.00777572 0)
(0.37456 -0.00317499 0)
(0.377287 0.00160941 0)
(0.379979 0.00655711 0)
(0.382644 0.0116515 0)
(0.38528 0.0168781 0)
(0.387882 0.0222231 0)
(0.390444 0.0276728 0)
(0.392955 0.0332138 0)
(0.395407 0.0388355 0)
(0.397787 0.0445371 0)
(0.0999755 -0.00325718 0)
(0.100904 -0.00667891 0)
(0.102339 -0.00981196 0)