    1C
    1UUSER                                                              
    1UDATE              26.august.2020                                  
    1UTIME              15:36:06                                        
    1UHOST                                                              
    1UPGM               CalculiX                                        
    1UVERSION           Version 2.15                             
    1UCOMPILETIME       Sa 15. Dez 15:34:34 CET 2018                    
    1UDIR                                                               
    1UDBN                                                               
    1UMAT    1EL                                                        
    2C                           126                                     1
 -1         1 5.00000E-02 0.00000E+00 0.00000E+00
 -1         2 0.00000E+00 0.00000E+00 0.00000E+00
 -1         3 0.00000E+00 0.00000E+00 5.00000E-02
 -1         4 5.00000E-02 0.00000E+00 5.00000E-02
 -1         5 5.00000E-02 3.00000E-01 0.00000E+00
 -1         6 0.00000E+00 3.00000E-01 0.00000E+00
 -1         7 0.00000E+00 3.00000E-01 5.00000E-02
 -1         8 5.00000E-02 3.00000E-01 5.00000E-02
 -1         9 0.00000E+00 0.00000E+00 1.00000E-01
 -1        10 5.00000E-02 0.00000E+00 1.00000E-01
 -1        11 0.00000E+00 3.00000E-01 1.00000E-01
 -1        12 5.00000E-02 3.00000E-01 1.00000E-01
 -1        13 0.00000E+00 0.00000E+00 1.50000E-01
 -1        14 5.00000E-02 0.00000E+00 1.50000E-01
 -1        15 0.00000E+00 3.00000E-01 1.50000E-01
 -1        16 5.00000E-02 3.00000E-01 1.50000E-01
 -1        17 0.00000E+00 0.00000E+00 2.00000E-01
 -1        18 5.00000E-02 0.00000E+00 2.00000E-01
 -1        19 0.00000E+00 3.00000E-01 2.00000E-01
 -1        20 5.00000E-02 3.00000E-01 2.00000E-01
 -1        21 0.00000E+00 0.00000E+00 2.50000E-01
 -1        22 5.00000E-02 0.00000E+00 2.50000E-01
 -1        23 0.00000E+00 3.00000E-01 2.50000E-01
 -1        24 5.00000E-02 3.00000E-01 2.50000E-01
 -1        25 0.00000E+00 0.00000E+00 3.00000E-01
 -1        26 5.00000E-02 0.00000E+00 3.00000E-01
 -1        27 0.00000E+00 3.00000E-01 3.00000E-01
 -1        28 5.00000E-02 3.00000E-01 3.00000E-01
 -1        29 0.00000E+00 0.00000E+00 3.50000E-01
 -1        30 5.00000E-02 0.00000E+00 3.50000E-01
 -1        31 0.00000E+00 3.00000E-01 3.50000E-01
 -1        32 5.00000E-02 3.00000E-01 3.50000E-01
 -1        33 0.00000E+00 0.00000E+00 4.00000E-01
 -1        34 5.00000E-02 0.00000E+00 4.00000E-01
 -1        35 0.00000E+00 3.00000E-01 4.00000E-01
 -1        36 5.00000E-02 3.00000E-01 4.00000E-01
 -1        37 0.00000E+00 0.00000E+00 4.50000E-01
 -1        38 5.00000E-02 0.00000E+00 4.50000E-01
 -1        39 0.00000E+00 3.00000E-01 4.50000E-01
 -1        40 5.00000E-02 3.00000E-01 4.50000E-01
 -1        41 0.00000E+00 0.00000E+00 5.00000E-01
 -1        42 5.00000E-02 0.00000E+00 5.00000E-01
 -1        43 0.00000E+00 3.00000E-01 5.00000E-01
 -1        44 5.00000E-02 3.00000E-01 5.00000E-01
 -1        45 0.00000E+00 0.00000E+00 5.50000E-01
 -1        46 5.00000E-02 0.00000E+00 5.50000E-01
 -1        47 0.00000E+00 3.00000E-01 5.50000E-01
 -1        48 5.00000E-02 3.00000E-01 5.50000E-01
 -1        49 0.00000E+00 0.00000E+00 6.00000E-01
 -1        50 5.00000E-02 0.00000E+00 6.00000E-01
 -1        51 0.00000E+00 3.00000E-01 6.00000E-01
 -1        52 5.00000E-02 3.00000E-01 6.00000E-01
 -1        53 0.00000E+00 0.00000E+00 6.50000E-01
 -1        54 5.00000E-02 0.00000E+00 6.50000E-01
 -1        55 0.00000E+00 3.00000E-01 6.50000E-01
 -1        56 5.00000E-02 3.00000E-01 6.50000E-01
 -1        57 0.00000E+00 0.00000E+00 7.00000E-01
 -1        58 5.00000E-02 0.00000E+00 7.00000E-01
 -1        59 0.00000E+00 3.00000E-01 7.00000E-01
 -1        60 5.00000E-02 3.00000E-01 7.00000E-01
 -1        61 0.00000E+00 0.00000E+00 7.50000E-01
 -1        62 5.00000E-02 0.00000E+00 7.50000E-01
 -1        63 0.00000E+00 3.00000E-01 7.50000E-01
 -1        64 5.00000E-02 3.00000E-01 7.50000E-01
 -1        65 0.00000E+00 0.00000E+00 8.00000E-01
 -1        66 5.00000E-02 0.00000E+00 8.00000E-01
 -1        67 0.00000E+00 3.00000E-01 8.00000E-01
 -1        68 5.00000E-02 3.00000E-01 8.00000E-01
 -1        69 0.00000E+00 0.00000E+00 8.50000E-01
 -1        70 5.00000E-02 0.00000E+00 8.50000E-01
 -1        71 0.00000E+00 3.00000E-01 8.50000E-01
 -1        72 5.00000E-02 3.00000E-01 8.50000E-01
 -1        73 0.00000E+00 0.00000E+00 9.00000E-01
 -1        74 5.00000E-02 0.00000E+00 9.00000E-01
 -1        75 0.00000E+00 3.00000E-01 9.00000E-01
 -1        76 5.00000E-02 3.00000E-01 9.00000E-01
 -1        77 0.00000E+00 0.00000E+00 9.50000E-01
 -1        78 5.00000E-02 0.00000E+00 9.50000E-01
 -1        79 0.00000E+00 3.00000E-01 9.50000E-01
 -1        80 5.00000E-02 3.00000E-01 9.50000E-01
 -1        81 0.00000E+00 0.00000E+00 1.00000E+00
 -1        82 5.00000E-02 0.00000E+00 1.00000E+00
 -1        83 0.00000E+00 3.00000E-01 1.00000E+00
 -1        84 5.00000E-02 3.00000E-01 1.00000E+00
 -1        85-5.00000E-02 0.00000E+00 0.00000E+00
 -1        86-5.00000E-02 0.00000E+00 5.00000E-02
 -1        87-5.00000E-02 3.00000E-01 0.00000E+00
 -1        88-5.00000E-02 3.00000E-01 5.00000E-02
 -1        89-5.00000E-02 0.00000E+00 1.00000E-01
 -1        90-5.00000E-02 3.00000E-01 1.00000E-01
 -1        91-5.00000E-02 0.00000E+00 1.50000E-01
 -1        92-5.00000E-02 3.00000E-01 1.50000E-01
 -1        93-5.00000E-02 0.00000E+00 2.00000E-01
 -1        94-5.00000E-02 3.00000E-01 2.00000E-01
 -1        95-5.00000E-02 0.00000E+00 2.50000E-01
 -1        96-5.00000E-02 3.00000E-01 2.50000E-01
 -1        97-5.00000E-02 0.00000E+00 3.00000E-01
 -1        98-5.00000E-02 3.00000E-01 3.00000E-01
 -1        99-5.00000E-02 0.00000E+00 3.50000E-01
 -1       100-5.00000E-02 3.00000E-01 3.50000E-01
 -1       101-5.00000E-02 0.00000E+00 4.00000E-01
 -1       102-5.00000E-02 3.00000E-01 4.00000E-01
 -1       103-5.00000E-02 0.00000E+00 4.50000E-01
 -1       104-5.00000E-02 3.00000E-01 4.50000E-01
 -1       105-5.00000E-02 0.00000E+00 5.00000E-01
 -1       106-5.00000E-02 3.00000E-01 5.00000E-01
 -1       107-5.00000E-02 0.00000E+00 5.50000E-01
 -1       108-5.00000E-02 3.00000E-01 5.50000E-01
 -1       109-5.00000E-02 0.00000E+00 6.00000E-01
 -1       110-5.00000E-02 3.00000E-01 6.00000E-01
 -1       111-5.00000E-02 0.00000E+00 6.50000E-01
 -1       112-5.00000E-02 3.00000E-01 6.50000E-01
 -1       113-5.00000E-02 0.00000E+00 7.00000E-01
 -1       114-5.00000E-02 3.00000E-01 7.00000E-01
 -1       115-5.00000E-02 0.00000E+00 7.50000E-01
 -1       116-5.00000E-02 3.00000E-01 7.50000E-01
 -1       117-5.00000E-02 0.00000E+00 8.00000E-01
 -1       118-5.00000E-02 3.00000E-01 8.00000E-01
 -1       119-5.00000E-02 0.00000E+00 8.50000E-01
 -1       120-5.00000E-02 3.00000E-01 8.50000E-01
 -1       121-5.00000E-02 0.00000E+00 9.00000E-01
 -1       122-5.00000E-02 3.00000E-01 9.00000E-01
 -1       123-5.00000E-02 0.00000E+00 9.50000E-01
 -1       124-5.00000E-02 3.00000E-01 9.50000E-01
 -1       125-5.00000E-02 0.00000E+00 1.00000E+00
 -1       126-5.00000E-02 3.00000E-01 1.00000E+00
 -3
    3C                            40                                     1
 -1         1    1    0    1
 -2         1         2         3         4         5         6         7         8
 -1         2    1    0    1
 -2         4         3         9        10         8         7        11        12
 -1         3    1    0    1
 -2        10         9        13        14        12        11        15        16
 -1         4    1    0    1
 -2        14        13        17        18        16        15        19        20
 -1         5    1    0    1
 -2        18        17        21        22        20        19        23        24
 -1         6    1    0    1
 -2        22        21        25        26        24        23        27        28
 -1         7    1    0    1
 -2        26        25        29        30        28        27        31        32
 -1         8    1    0    1
 -2        30        29        33        34        32        31        35        36
 -1         9    1    0    1
 -2        34        33        37        38        36        35        39        40
 -1        10    1    0    1
 -2        38        37        41        42        40        39        43        44
 -1        11    1    0    1
 -2        42        41        45        46        44        43        47        48
 -1        12    1    0    1
 -2        46        45        49        50        48        47        51        52
 -1        13    1    0    1
 -2        50        49        53        54        52        51        55        56
 -1        14    1    0    1
 -2        54        53        57        58        56        55        59        60
 -1        15    1    0    1
 -2        58        57        61        62        60        59        63        64
 -1        16    1    0    1
 -2        62        61        65        66        64        63        67        68
 -1        17    1    0    1
 -2        66        65        69        70        68        67        71        72
 -1        18    1    0    1
 -2        70        69        73        74        72        71        75        76
 -1        19    1    0    1
 -2        74        73        77        78        76        75        79        80
 -1        20    1    0    1
 -2        78        77        81        82        80        79        83        84
 -1        21    1    0    1
 -2         2        85        86         3         6        87        88         7
 -1        22    1    0    1
 -2         3        86        89         9         7        88        90        11
 -1        23    1    0    1
 -2         9        89        91        13        11        90        92        15
 -1        24    1    0    1
 -2        13        91        93        17        15        92        94        19
 -1        25    1    0    1
 -2        17        93        95        21        19        94        96        23
 -1        26    1    0    1
 -2        21        95        97        25        23        96        98        27
 -1        27    1    0    1
 -2        25        97        99        29        27        98       100        31
 -1        28    1    0    1
 -2        29        99       101        33        31       100       102        35
 -1        29    1    0    1
 -2        33       101       103        37        35       102       104        39
 -1        30    1    0    1
 -2        37       103       105        41        39       104       106        43
 -1        31    1    0    1
 -2        41       105       107        45        43       106       108        47
 -1        32    1    0    1
 -2        45       107       109        49        47       108       110        51
 -1        33    1    0    1
 -2        49       109       111        53        51       110       112        55
 -1        34    1    0    1
 -2        53       111       113        57        55       112       114        59
 -1        35    1    0    1
 -2        57       113       115        61        59       114       116        63
 -1        36    1    0    1
 -2        61       115       117        65        63       116       118        67
 -1        37    1    0    1
 -2        65       117       119        69        67       118       120        71
 -1        38    1    0    1
 -2        69       119       121        73        71       120       122        75
 -1        39    1    0    1
 -2        73       121       123        77        75       122       124        79
 -1        40    1    0    1
 -2        77       123       125        81        79       124       126        83
 -3
    1PSTEP                         1           1           1          
  100CL  101 1.00000E-02         126                     1    1           1
 -4  DISP        4    1
 -5  D1          1    2    1    0
 -5  D2          1    2    2    0
 -5  D3          1    2    3    0
 -5  ALL         1    2    0    0    1ALL
 -1         1 0.00000E+00 0.00000E+00 0.00000E+00
 -1         2 0.00000E+00 0.00000E+00 0.00000E+00
 -1         3 1.30369E-04 0.00000E+00-5.27506E-06
 -1         4 1.73838E-04 0.00000E+00-2.82927E-05
 -1         5 0.00000E+00 0.00000E+00 0.00000E+00
 -1         6 0.00000E+00 0.00000E+00 0.00000E+00
 -1         7 1.30369E-04 0.00000E+00-5.27506E-06
 -1         8 1.73838E-04 0.00000E+00-2.82927E-05
 -1         9 1.76983E-04 0.00000E+00-2.57413E-07
 -1        10 1.98005E-04 0.00000E+00-1.54111E-05
 -1        11 1.76983E-04 0.00000E+00-2.57413E-07
 -1        12 1.98005E-04 0.00000E+00-1.54111E-05
 -1        13 1.69907E-04 0.00000E+00 8.44160E-07
 -1        14 1.93218E-04 0.00000E+00-2.25225E-06
 -1        15 1.69907E-04 0.00000E+00 8.44160E-07
 -1        16 1.93218E-04 0.00000E+00-2.25225E-06
 -1        17 1.64364E-04 0.00000E+00-2.07842E-08
 -1        18 1.91361E-04 0.00000E+00-1.20862E-07
 -1        19 1.64364E-04 0.00000E+00-2.07843E-08
 -1        20 1.91361E-04 0.00000E+00-1.20862E-07
 -1        21 1.65898E-04 0.00000E+00-9.65636E-07
 -1        22 1.88706E-04 0.00000E+00-2.57738E-07
 -1        23 1.65898E-04 0.00000E+00-9.65636E-07
 -1        24 1.88706E-04 0.00000E+00-2.57738E-07
 -1        25 1.70318E-04 0.00000E+00 1.62934E-07
 -1        26 1.99366E-04 0.00000E+00 1.34593E-06
 -1        27 1.70318E-04 0.00000E+00 1.62934E-07
 -1        28 1.99366E-04 0.00000E+00 1.34593E-06
 -1        29 1.61068E-04 0.00000E+00 1.24645E-06
 -1        30 1.82829E-04 0.00000E+00 2.79859E-06
 -1        31 1.61068E-04 0.00000E+00 1.24645E-06
 -1        32 1.82829E-04 0.00000E+00 2.79859E-06
 -1        33 1.54731E-04 0.00000E+00 2.37922E-07
 -1        34 1.80505E-04 0.00000E+00 1.80486E-06
 -1        35 1.54731E-04 0.00000E+00 2.37922E-07
 -1        36 1.80505E-04 0.00000E+00 1.80486E-06
 -1        37 1.55533E-04 0.00000E+00-6.80711E-07
 -1        38 1.76480E-04 0.00000E+00 9.10339E-07
 -1        39 1.55533E-04 0.00000E+00-6.80711E-07
 -1        40 1.76480E-04 0.00000E+00 9.10339E-07
 -1        41 1.57999E-04 0.00000E+00 4.31068E-07
 -1        42 1.84217E-04 0.00000E+00 2.43381E-06
 -1        43 1.57999E-04 0.00000E+00 4.31068E-07
 -1        44 1.84217E-04 0.00000E+00 2.43381E-06
 -1        45 1.47458E-04 0.00000E+00 1.49409E-06
 -1        46 1.66661E-04 0.00000E+00 3.88517E-06
 -1        47 1.47458E-04 0.00000E+00 1.49409E-06
 -1        48 1.66661E-04 0.00000E+00 3.88517E-06
 -1        49 1.39714E-04 0.00000E+00 5.88085E-07
 -1        50 1.62322E-04 0.00000E+00 3.13785E-06
 -1        51 1.39714E-04 0.00000E+00 5.88085E-07
 -1        52 1.62322E-04 0.00000E+00 3.13785E-06
 -1        53 1.38263E-04 0.00000E+00-8.78598E-08
 -1        54 1.56302E-04 0.00000E+00 2.55890E-06
 -1        55 1.38263E-04 0.00000E+00-8.78598E-08
 -1        56 1.56302E-04 0.00000E+00 2.55890E-06
 -1        57 1.37628E-04 0.00000E+00 1.15912E-06
 -1        58 1.59850E-04 0.00000E+00 4.16845E-06
 -1        59 1.37628E-04 0.00000E+00 1.15912E-06
 -1        60 1.59850E-04 0.00000E+00 4.16845E-06
 -1        61 1.25409E-04 0.00000E+00 2.46016E-06
 -1        62 1.41199E-04 0.00000E+00 5.64888E-06
 -1        63 1.25409E-04 0.00000E+00 2.46016E-06
 -1        64 1.41199E-04 0.00000E+00 5.64888E-06
 -1        65 1.16274E-04 0.00000E+00 2.17103E-06
 -1        66 1.35377E-04 0.00000E+00 5.32397E-06
 -1        67 1.16274E-04 0.00000E+00 2.17103E-06
 -1        68 1.35377E-04 0.00000E+00 5.32397E-06
 -1        69 1.12708E-04 0.00000E+00 2.90669E-06
 -1        70 1.28451E-04 0.00000E+00 5.20338E-06
 -1        71 1.12708E-04 0.00000E+00 2.90669E-06
 -1        72 1.28451E-04 0.00000E+00 5.20338E-06
 -1        73 1.10382E-04 0.00000E+00 4.79474E-06
 -1        74 1.32644E-04 0.00000E+00 7.76332E-06
 -1        75 1.10382E-04 0.00000E+00 4.79474E-06
 -1        76 1.32644E-04 0.00000E+00 7.76332E-06
 -1        77 9.55347E-05 0.00000E+00 6.08262E-06
 -1        78 1.20143E-04 0.00000E+00 1.07903E-05
 -1        79 9.55347E-05 0.00000E+00 6.08262E-06
 -1        80 1.20143E-04 0.00000E+00 1.07903E-05
 -1        81 8.05968E-05 0.00000E+00 8.86114E-06
 -1        82 9.04430E-05 0.00000E+00 1.24888E-05
 -1        83 8.05968E-05 0.00000E+00 8.86114E-06
 -1        84 9.04430E-05 0.00000E+00 1.24888E-05
 -1        85 0.00000E+00 0.00000E+00 0.00000E+00
 -1        86 2.27319E-04 0.00000E+00 2.76290E-05
 -1        87 0.00000E+00 0.00000E+00 0.00000E+00
 -1        88 2.27319E-04 0.00000E+00 2.76290E-05
 -1        89 2.52626E-04 0.00000E+00 1.37574E-05
 -1        90 2.52626E-04 0.00000E+00 1.37574E-05
 -1        91 2.37097E-04 0.00000E+00 1.74173E-06
 -1        92 2.37097E-04 0.00000E+00 1.74173E-06
 -1        93 2.34448E-04 0.00000E+00-2.05026E-08
 -1        94 2.34448E-04 0.00000E+00-2.05026E-08
 -1        95 2.32106E-04 0.00000E+00 3.18973E-07
 -1        96 2.32106E-04 0.00000E+00 3.18972E-07
 -1        97 2.53381E-04 0.00000E+00-1.19623E-06
 -1        98 2.53381E-04 0.00000E+00-1.19623E-06
 -1        99 2.25401E-04 0.00000E+00-2.58595E-06
 -1       100 2.25401E-04 0.00000E+00-2.58595E-06
 -1       101 2.22307E-04 0.00000E+00-1.48706E-06
 -1       102 2.22307E-04 0.00000E+00-1.48706E-06
 -1       103 2.18415E-04 0.00000E+00-5.02779E-07
 -1       104 2.18415E-04 0.00000E+00-5.02779E-07
 -1       105 2.35842E-04 0.00000E+00-1.94764E-06
 -1       106 2.35842E-04 0.00000E+00-1.94764E-06
 -1       107 2.06814E-04 0.00000E+00-3.28368E-06
 -1       108 2.06814E-04 0.00000E+00-3.28368E-06
 -1       109 2.01313E-04 0.00000E+00-2.31014E-06
 -1       110 2.01313E-04 0.00000E+00-2.31014E-06
 -1       111 1.95026E-04 0.00000E+00-1.47035E-06
 -1       112 1.95026E-04 0.00000E+00-1.47035E-06
 -1       113 2.06183E-04 0.00000E+00-2.69233E-06
 -1       114 2.06183E-04 0.00000E+00-2.69233E-06
 -1       115 1.75976E-04 0.00000E+00-3.55384E-06
 -1       116 1.75976E-04 0.00000E+00-3.55384E-06
 -1       117 1.67165E-04 0.00000E+00-2.17855E-06
 -1       118 1.67165E-04 0.00000E+00-2.17855E-06
 -1       119 1.58427E-04 0.00000E+00-9.74883E-07
 -1       120 1.58427E-04 0.00000E+00-9.74883E-07
 -1       121 1.57779E-04 0.00000E+00-2.06965E-06
 -1       122 1.57779E-04 0.00000E+00-2.06965E-06
 -1       123 1.31140E-04 0.00000E+00-2.47401E-06
 -1       124 1.31140E-04 0.00000E+00-2.47401E-06
 -1       125 9.82644E-05 0.00000E+00-8.53266E-07
 -1       126 9.82644E-05 0.00000E+00-8.53266E-07
 -3
    1PSTEP                         2           1           1          
  100CL  101 1.00000E-02         126                     1    1           1
 -4  STRESS      6    1
 -5  SXX         1    4    1    1
 -5  SYY         1    4    2    2
 -5  SZZ         1    4    3    3
 -5  SXY         1    4    1    2
 -5  SYZ         1    4    2    3
 -5  SZX         1    4    3    1
 -1         1-1.25670E+02-1.29223E+02-3.01237E+02-1.42172E-10 3.02747E-11 5.33893E+02
 -1         2-2.19377E+01-2.35605E+01-5.50900E+01 3.10428E-11 1.45404E-11 4.00894E+02
 -1         3-2.85589E+02-1.23789E+02-1.24260E+02 1.58580E-07-6.00710E-09 1.86018E+02
 -1         4 4.35473E+02 1.65748E+02 1.19182E+02 3.79039E-07-1.19369E-08 2.33814E+02
 -1         5-1.25670E+02-1.29223E+02-3.01237E+02-1.42165E-10 3.02747E-11 5.33893E+02
 -1         6-2.19377E+01-2.35605E+01-5.50900E+01 3.10421E-11 1.45405E-11 4.00894E+02
 -1         7-2.85589E+02-1.23789E+02-1.24260E+02 1.58580E-07-6.00710E-09 1.86018E+02
 -1         8 4.35473E+02 1.65748E+02 1.19182E+02 3.79039E-07-1.19369E-08 2.33814E+02
 -1         9-2.78823E+02-1.11989E+02-9.31196E+01 1.05475E-07-6.91138E-09 1.59605E+01
 -1        10 2.86611E+02 1.57059E+02 2.37278E+02 1.29650E-07 9.44597E-09-1.68471E+01
 -1        11-2.78823E+02-1.11989E+02-9.31196E+01 1.05475E-07-6.91138E-09 1.59605E+01
 -1        12 2.86611E+02 1.57059E+02 2.37278E+02 1.29650E-07 9.44597E-09-1.68471E+01
 -1        13-2.34888E+02-1.00821E+02-1.00095E+02 1.53255E-08-1.07987E-08-2.55396E+01
 -1        14 2.86476E+02 1.42812E+02 1.89898E+02 5.08968E-08 1.47791E-09-1.97878E+01
 -1        15-2.34888E+02-1.00821E+02-1.00095E+02 1.53255E-08-1.07987E-08-2.55396E+01
 -1        16 2.86476E+02 1.42812E+02 1.89898E+02 5.08968E-08 1.47791E-09-1.97878E+01
 -1        17-2.35267E+02-1.03738E+02-1.09305E+02 7.82235E-08-3.55908E-08-6.31511E+00
 -1        18 2.95557E+02 1.29160E+02 1.35299E+02 1.31473E-07 1.17920E-09-7.25983E+00
 -1        19-2.35267E+02-1.03738E+02-1.09305E+02 7.82235E-08-3.55908E-08-6.31510E+00
 -1        20 2.95557E+02 1.29160E+02 1.35299E+02 1.31473E-07 1.17920E-09-7.25983E+00
 -1        21-2.32470E+02-9.98374E+01-9.92723E+01 4.72231E-08-1.12308E-08 8.27426E+00
 -1        22 2.49181E+02 1.08627E+02 1.13145E+02 2.02062E-08 1.80554E-08 1.45125E+01
 -1        23-2.32470E+02-9.98374E+01-9.92723E+01 4.72231E-08-1.12308E-08 8.27426E+00
 -1        24 2.49181E+02 1.08627E+02 1.13145E+02 2.02062E-08 1.80554E-08 1.45125E+01
 -1        25-2.84488E+02-1.19712E+02-1.12906E+02-8.00847E-08-1.51375E-08-3.51821E+00
 -1        26 3.20160E+02 1.41077E+02 1.50495E+02-1.43331E-07 2.71466E-08-5.40747E+00
 -1        27-2.84488E+02-1.19712E+02-1.12906E+02-8.00847E-08-1.51375E-08-3.51821E+00
 -1        28 3.20160E+02 1.41077E+02 1.50495E+02-1.43331E-07 2.71466E-08-5.40747E+00
 -1        29-2.28306E+02-9.81688E+01-9.79367E+01-1.10120E-07 1.72593E-08-1.56928E+01
 -1        30 2.35577E+02 1.01477E+02 1.02897E+02-3.10274E-07 6.29939E-09-2.42658E+01
 -1        31-2.28306E+02-9.81688E+01-9.79367E+01-1.10120E-07 1.72593E-08-1.56928E+01
 -1        32 2.35577E+02 1.01477E+02 1.02897E+02-3.10274E-07 6.29939E-09-2.42658E+01
 -1        33-2.28679E+02-1.01032E+02-1.06959E+02-6.47004E-08 3.15183E-08-3.44938E+00
 -1        34 2.73413E+02 1.14569E+02 1.08758E+02 1.32854E-08-1.01316E-08-4.94993E+00
 -1        35-2.28679E+02-1.01032E+02-1.06959E+02-6.47004E-08 3.15183E-08-3.44938E+00
 -1        36 2.73413E+02 1.14569E+02 1.08758E+02 1.32854E-08-1.01316E-08-4.94993E+00
 -1        37-2.24645E+02-9.64245E+01-9.58305E+01-4.69181E-08-6.87356E-09 7.20147E+00
 -1        38 2.27174E+02 9.81076E+01 1.00046E+02-9.18629E-08-1.36759E-08 1.06197E+01
 -1        39-2.24645E+02-9.64245E+01-9.58305E+01-4.69181E-08-6.87356E-09 7.20147E+00
 -1        40 2.27174E+02 9.81076E+01 1.00046E+02-9.18629E-08-1.36759E-08 1.06197E+01
 -1        41-2.71864E+02-1.14260E+02-1.07568E+02 3.84285E-09-3.63699E-08-5.68144E+00
 -1        42 2.89440E+02 1.27833E+02 1.37000E+02 7.75309E-08-5.60625E-09-8.95354E+00
 -1        43-2.71864E+02-1.14260E+02-1.07568E+02 3.84285E-09-3.63699E-08-5.68144E+00
 -1        44 2.89440E+02 1.27833E+02 1.37000E+02 7.75309E-08-5.60625E-09-8.95354E+00
 -1        45-2.15206E+02-9.23802E+01-9.18951E+01-3.02074E-08-1.70568E-08-1.70994E+01
 -1        46 2.08562E+02 9.02411E+01 9.24155E+01-2.05368E-07 7.46060E-09-2.63508E+01
 -1        47-2.15206E+02-9.23802E+01-9.18951E+01-3.02074E-08-1.70568E-08-1.70994E+01
 -1        48 2.08562E+02 9.02411E+01 9.24155E+01-2.05368E-07 7.46060E-09-2.63508E+01
 -1        49-2.12898E+02-9.37273E+01-9.85926E+01-6.35221E-08 4.35390E-08-5.76191E+00
 -1        50 2.40566E+02 1.01259E+02 9.71782E+01-1.81620E-07 4.38999E-09-8.09643E+00
 -1        51-2.12898E+02-9.37273E+01-9.85926E+01-6.35221E-08 4.35390E-08-5.76191E+00
 -1        52 2.40566E+02 1.01259E+02 9.71782E+01-1.81620E-07 4.38999E-09-8.09643E+00
 -1        53-2.06618E+02-8.81225E+01-8.63659E+01-3.46069E-08 2.25783E-08 2.98955E+00
 -1        54 1.96738E+02 8.56143E+01 8.87881E+01 5.64615E-08 2.51039E-09 4.34890E+00
 -1        55-2.06618E+02-8.81225E+01-8.63659E+01-3.46068E-08 2.25783E-08 2.98955E+00
 -1        56 1.96738E+02 8.56143E+01 8.87881E+01 5.64615E-08 2.51039E-09 4.34890E+00
 -1        57-2.42754E+02-1.01149E+02-9.33090E+01-3.79289E-08-1.40041E-08-9.21956E+00
 -1        58 2.46617E+02 1.09669E+02 1.19189E+02-5.60132E-08 1.69289E-09-1.39886E+01
 -1        59-2.42754E+02-1.01149E+02-9.33090E+01-3.79289E-08-1.40041E-08-9.21956E+00
 -1        60 2.46617E+02 1.09669E+02 1.19189E+02-5.60133E-08 1.69289E-09-1.39886E+01
 -1        61-1.84457E+02-7.79738E+01-7.48577E+01-3.72148E-08-1.90858E-08-1.86930E+01
 -1        62 1.72806E+02 7.55341E+01 7.90984E+01-4.69287E-08 2.10764E-09-2.78594E+01
 -1        63-1.84457E+02-7.79738E+01-7.48577E+01-3.72148E-08-1.90858E-08-1.86930E+01
 -1        64 1.72806E+02 7.55341E+01 7.90984E+01-4.69287E-08 2.10764E-09-2.78594E+01
 -1        65-1.69647E+02-7.23887E+01-7.10134E+01-5.61923E-08 3.43682E-09-7.99933E+00
 -1        66 2.04808E+02 8.71210E+01 8.57511E+01-1.56504E-07 1.32791E-09-9.91553E+00
 -1        67-1.69647E+02-7.23887E+01-7.10134E+01-5.61923E-08 3.43682E-09-7.99933E+00
 -1        68 2.04808E+02 8.71210E+01 8.57511E+01-1.56504E-07 1.32790E-09-9.91553E+00
 -1        69-1.54970E+02-6.31684E+01-5.50959E+01-6.06568E-08 2.15385E-08 4.31444E-01
 -1        70 1.75245E+02 7.82735E+01 8.57832E+01-9.00885E-08-6.77316E-09 2.86860E+00
 -1        71-1.54970E+02-6.31684E+01-5.50959E+01-6.06568E-08 2.15385E-08 4.31444E-01
 -1        72 1.75245E+02 7.82735E+01 8.57832E+01-9.00885E-08-6.77316E-09 2.86860E+00
 -1        73-1.27549E+02-5.07254E+01-4.09495E+01-3.10124E-08-2.63582E-09-1.13053E+01
 -1        74 2.52795E+02 1.15607E+02 1.32808E+02 2.20626E-08-1.70226E-08-3.64913E+00
 -1        75-1.27549E+02-5.07254E+01-4.09495E+01-3.10124E-08-2.63582E-09-1.13053E+01
 -1        76 2.52795E+02 1.15607E+02 1.32808E+02 2.20627E-08-1.70226E-08-3.64913E+00
 -1        77-4.95094E+01-1.60224E+01-3.50436E+00-7.18896E-10 1.31808E-08-2.54287E+01
 -1        78 2.76166E+02 1.24464E+02 1.39030E+02-7.57769E-08-4.87897E-08-5.05020E+01
 -1        79-4.95094E+01-1.60224E+01-3.50436E+00-7.18887E-10 1.31808E-08-2.54287E+01
 -1        80 2.76166E+02 1.24464E+02 1.39030E+02-7.57769E-08-4.87897E-08-5.05020E+01
 -1        81-2.92136E+01-5.22007E+00 1.18853E+01 1.16596E-07 2.21061E-08-2.54476E+01
 -1        82 1.14017E+02 5.33136E+01 6.38081E+01 2.89799E-07-1.14060E-07-8.02689E+01
 -1        83-2.92136E+01-5.22007E+00 1.18853E+01 1.16596E-07 2.21061E-08-2.54476E+01
 -1        84 1.14017E+02 5.33136E+01 6.38081E+01 2.89799E-07-1.14060E-07-8.02689E+01
 -1        85 1.35462E+02 1.29872E+02 3.03173E+02 1.34228E-10 1.94322E-11 7.00570E+02
 -1        86-1.00560E+03-4.14776E+02-3.71185E+02 1.67755E-07 7.78093E-09 2.86687E+02
 -1        87 1.35462E+02 1.29872E+02 3.03173E+02 1.34226E-10 1.94314E-11 7.00570E+02
 -1        88-1.00560E+03-4.14776E+02-3.71185E+02 1.67755E-07 7.78093E-09 2.86687E+02
 -1        89-8.72540E+02-4.09270E+02-4.88781E+02 1.70189E-07-1.94520E-08-2.79166E+01
 -1        90-8.72540E+02-4.09270E+02-4.88781E+02 1.70189E-07-1.94520E-08-2.79166E+01
 -1        91-7.53932E+02-3.42181E+02-3.84516E+02-1.42916E-07-1.95212E-08-3.06010E+01
 -1        92-7.53932E+02-3.42181E+02-3.84516E+02-1.42916E-07-1.95212E-08-3.06010E+01
 -1        93-7.56428E+02-3.26973E+02-3.31346E+02 1.68113E-07-1.51199E-08-7.65063E+00
 -1        94-7.56428E+02-3.26973E+02-3.31346E+02 1.68113E-07-1.51199E-08-7.65063E+00
 -1        95-7.14261E+02-3.08477E+02-3.12080E+02 1.37556E-07-3.64335E-08 2.50939E+01
 -1        96-7.14261E+02-3.08477E+02-3.12080E+02 1.37556E-07-3.64335E-08 2.50939E+01
 -1        97-8.98905E+02-3.90370E+02-3.99266E+02-1.17008E-07-2.77644E-08-6.11387E+00
 -1        98-8.98905E+02-3.90370E+02-3.99266E+02-1.17008E-07-2.77644E-08-6.11387E+00
 -1        99-6.92083E+02-2.97757E+02-2.98634E+02-2.05655E-08-1.65476E-09-3.59108E+01
 -1       100-6.92083E+02-2.97757E+02-2.98634E+02-2.05655E-08-1.65476E-09-3.59108E+01
 -1       101-7.21413E+02-3.07263E+02-3.00857E+02-1.10060E-07 1.30056E-08-5.42899E+00
 -1       102-7.21413E+02-3.07263E+02-3.00857E+02-1.10060E-07 1.30056E-08-5.42899E+00
 -1       103-6.76938E+02-2.91455E+02-2.92863E+02-1.25500E-07 1.14349E-08 2.02106E+01
 -1       104-6.76938E+02-2.91455E+02-2.92863E+02-1.25500E-07 1.14349E-08 2.02106E+01
 -1       105-8.42675E+02-3.65951E+02-3.74469E+02 1.55177E-08-8.74218E-10-1.04981E+01
 -1       106-8.42675E+02-3.65951E+02-3.74469E+02 1.55177E-08-8.74218E-10-1.04981E+01
 -1       107-6.38846E+02-2.74922E+02-2.76019E+02 1.06437E-07-5.64823E-09-3.83206E+01
 -1       108-6.38846E+02-2.74922E+02-2.76019E+02 1.06437E-07-5.64823E-09-3.83206E+01
 -1       109-6.57926E+02-2.80270E+02-2.74693E+02-3.86483E-08-1.24896E-09-9.20103E+00
 -1       110-6.57926E+02-2.80270E+02-2.74693E+02-3.86484E-08-1.24896E-09-9.20103E+00
 -1       111-6.11100E+02-2.63000E+02-2.64170E+02-9.25299E-08 7.56032E-09 1.17069E+01
 -1       112-6.11100E+02-2.63000E+02-2.64170E+02-9.25299E-08 7.56032E-09 1.17069E+01
 -1       113-7.41492E+02-3.21410E+02-3.27790E+02-8.67871E-08 1.72740E-09-1.74123E+01
 -1       114-7.41492E+02-3.21410E+02-3.27790E+02-8.67871E-08 1.72740E-09-1.74123E+01
 -1       115-5.42471E+02-2.32281E+02-2.30682E+02-2.52625E-08-4.25740E-09-4.14349E+01
 -1       116-5.42471E+02-2.32281E+02-2.30682E+02-2.52625E-08-4.25740E-09-4.14349E+01
 -1       117-5.41229E+02-2.29023E+02-2.21090E+02 2.81377E-09-8.40965E-10-1.35946E+01
 -1       118-5.41229E+02-2.29023E+02-2.21090E+02 2.81374E-09-8.40965E-10-1.35946E+01
 -1       119-4.91413E+02-2.10847E+02-2.10510E+02-1.01235E-07 8.10727E-09-2.50290E+00
 -1       120-4.91413E+02-2.10847E+02-2.10510E+02-1.01235E-07 8.10727E-09-2.50290E+00
 -1       121-5.13100E+02-2.22298E+02-2.26894E+02-4.84179E-08 2.56509E-08-2.08290E+01
 -1       122-5.13100E+02-2.22298E+02-2.26894E+02-4.84179E-08 2.56509E-08-2.08290E+01
 -1       123-3.80103E+02-1.61531E+02-1.57759E+02 1.99450E-08 3.88959E-08-6.51390E+01
 -1       124-3.80103E+02-1.61531E+02-1.57759E+02 1.99450E-08 3.88959E-08-6.51390E+01
 -1       125-1.82544E+02-7.40130E+01-6.40051E+01 6.07756E-08 3.52226E-08-7.12227E+01
 -1       126-1.82544E+02-7.40130E+01-6.40051E+01 6.07755E-08 3.52226E-08-7.12227E+01
 -3
    1PSTEP                         3           1           1          
  100CL  101 1.00000E-02         126                     1    1           1
 -4  TOSTRAIN    6    1
 -5  EXX         1    4    1    1
 -5  EYY         1    4    2    2
 -5  EZZ         1    4    3    3
 -5  EXY         1    4    1    2
 -5  EYZ         1    4    2    3
 -5  EZX         1    4    3    1