/*--------------------------------*- C++ -*----------------------------------*\
  =========                 |
  \\      /  F ield         | OpenFOAM: The Open Source CFD Toolbox
   \\    /   O peration     | Website:  https://openfoam.org
    \\  /    A nd           | Version:  7
     \\/     M anipulation  |
\*---------------------------------------------------------------------------*/
FoamFile
{
    version     2.0;
    format      ascii;
    class       volScalarField;
    location    "3.6";
    object      p;
}
// * * * * * * * * * * * * * * * * * * * * * * * * * * * * * * * * * * * * * //

dimensions      [0 2 -2 0 0 0 0];

internalField   nonuniform List<scalar> 
2790
(
147.246
147.153
147.42
147.991
148.771
149.729
150.861
152.168
153.644
155.285
157.085
159.035
161.129
163.354
165.694
168.13
170.634
173.173
175.705
178.179
180.537
182.715
184.645
186.266
187.526
188.4
188.836
188.892
188.942
189.155
147.043
147.061
147.353
147.921
148.697
149.651
150.779
152.08
153.549
155.182
156.972
158.912
160.995
163.209
165.538
167.964
170.459
172.993
175.523
178.001
180.369
182.564
184.519
186.168
187.452
188.327
188.723
188.778
188.911
189.195
146.844
146.932
147.243
147.801
148.564
149.506
150.619
151.901
153.349
154.957
156.719
158.628
160.676
162.851
165.139
167.522
169.973
172.464
174.956
177.403
179.753
181.946
183.918
185.608
186.959
187.935
188.528
188.883
189.199
189.498
146.619
146.738
147.062
147.611
148.359
149.284
150.378
151.636
153.055
154.629
156.353
158.218
160.217
162.337
164.566
166.883
169.268
171.691
174.118
176.508
178.815
180.987
182.969
184.709
186.163
187.315
188.183
188.854
189.407
189.926
146.359
146.491
146.823
147.365
148.097
149.001
150.069
151.296
152.677
154.209
155.883
157.692
159.628
161.678
163.83
166.065
168.364
170.698
173.04
175.353
177.598
179.733
181.715
183.506
185.076
186.419
187.549
188.512
189.323
190.07
146.058
146.196
146.53
147.062
147.774
148.652
149.688
150.877
152.215
153.694
155.309
157.052
158.913
160.881
162.942
165.079
167.274
169.504
171.74
173.956
176.118
178.196
180.157
181.978
183.641
185.143
186.489
187.695
188.715
189.633
145.715
145.854
146.186
146.705
147.394
148.242
149.241
150.386
151.672
153.092
154.639
156.304
158.079
159.952
161.909
163.935
166.011
168.116
170.229
172.325
174.38
176.371
178.279
180.089
181.795
183.395
184.889
186.268
187.433
188.48
145.331
145.468
145.792
146.294
146.958
147.771
148.729
149.825
151.052
152.405
153.875
155.455
157.133
158.899
160.739
162.638
164.579
166.543
168.511
170.463
172.38
174.247
176.054
177.796
179.475
181.094
182.649
184.121
185.371
186.522
144.904
145.038
145.351
145.834
146.469
147.245
148.156
149.196
150.36
151.639
153.025
154.509
156.081
157.73
159.44
161.199
162.988
164.791
166.591
168.369
170.113
171.811
173.458
175.058
176.62
178.155
179.663
181.134
182.405
183.643
144.438
144.566
144.866
145.327
145.929
146.664
147.525
148.506
149.6
150.798
152.093
153.474
154.931
156.451
158.021
159.625
161.246
162.868
164.474
166.048
167.576
169.05
170.468
171.835
173.168
174.486
175.806
177.144
178.344
179.649
143.933
144.054
144.339
144.775
145.343
146.033
146.84
147.757
148.776
149.889
151.086
152.357
153.691
155.073
156.491
157.927
159.364
160.785
162.172
163.506
164.774
165.964
167.07
168.098
169.062
169.99
170.92
171.918
172.88
174.199
143.39
143.505
143.773
144.182
144.712
145.356
146.106
146.955
147.895
148.917
150.011
151.166
152.369
153.606
154.861
156.118
157.356
158.557
159.699
160.761
161.722
162.564
163.272
163.837
164.263
164.572
164.815
165.122
165.503
166.676
142.813
142.92
143.17
143.55
144.041
144.636
145.326
146.104
146.962
147.889
148.876
149.909
150.975
152.06
153.145
154.211
155.238
156.202
157.077
157.836
158.449
158.883
159.105
159.079
158.775
158.177
157.301
156.307
155.358
155.862
142.204
142.303
142.533
142.882
143.333
143.876
144.504
145.209
145.981
146.811
147.687
148.595
149.52
150.447
151.355
152.225
153.03
153.744
154.335
154.767
154.997
154.973
154.634
153.902
152.678
150.848
148.283
144.979
141.028
138.989
141.565
141.655
141.865
142.182
142.591
143.081
143.645
144.275
144.96
145.69
146.452
147.232
148.014
148.779
149.507
150.174
150.751
151.207
151.504
151.594
151.421
150.91
149.965
148.45
146.17
142.837
137.991
130.971
120.502
108.268
1.73771
1.71356
1.63031
1.5144
1.39116
1.27227
1.16133
1.05886
0.964326
0.876623
0.794444
0.716578
0.642172
0.570867
0.502808
0.438485
0.378461
0.323182
0.273136
0.229308
0.193385
0.167156
0.15003
0.137825
0.125412
0.110059
0.0912433
0.0694293
0.0452203
0.0186979
1.67581
1.64792
1.57007
1.46378
1.35036
1.23988
1.13579
1.03886
0.9487
0.864374
0.784712
0.708638
0.635425
0.564859
0.497262
0.43329
0.373557
0.318376
0.268053
0.223779
0.188083
0.163127
0.147974
0.137686
0.126476
0.111543
0.092906
0.0713052
0.046773
0.0195265
1.61139
1.578
1.50338
1.40576
1.30239
1.20096
1.1045
1.01388
0.928822
0.848505
0.771886
0.698009
0.626272
0.556617
0.48959
0.426095
0.366881
0.312137
0.261882
0.217346
0.181752
0.158161
0.145373
0.137082
0.126836
0.112026
0.0932649
0.0718186
0.047419
0.0184051
1.554
1.51517
1.4425
1.35173
1.25704
1.16363
1.07411
0.989333
0.909085
0.832619
0.758991
0.68734
0.617152
0.548492
0.482087
0.419091
0.360459
0.306353
0.256305
0.210872
0.173623
0.150829
0.14232
0.13775
0.129474
0.115281
0.096293
0.0740853
0.0489923
0.0183011
1.52152
1.47741
1.40676
1.32033
1.23122
1.14276
1.05747
0.976187
0.898772
0.824556
0.752672
0.682336
0.613108
0.545121
0.479163
0.416443
0.358042
0.304364
0.255432
0.212366
0.178033
0.154194
0.141911
0.136265
0.128244
0.11334
0.0942575
0.0731637
0.0482788
0.0177599
1.52821
1.47736
1.40793
1.3215
1.23288
1.14452
1.0592
0.977812
0.900282
0.82599
0.754105
0.683872
0.614879
0.547252
0.481694
0.419241
0.360834
0.307021
0.258207
0.215822
0.182639
0.16061
0.147784
0.139435
0.129311
0.113748
0.0939651
0.0713728
0.0454599
0.0151289
1.5821
1.52287
1.44764
1.35579
1.26075
1.16688
1.07687
0.991604
0.910924
0.834158
0.760464
0.689099
0.619623
0.55205
0.486881
0.424909
0.366902
0.313429
0.265114
0.223168
0.189297
0.165349
0.1503
0.139569
0.127722
0.111644
0.0914271
0.0678604
0.0411347
0.0132084
1.68238
1.60903
1.51829
1.41225
1.30436
1.19981
1.10122
1.00927
0.92357
0.843181
0.76703
0.69422
0.624172
0.556667
0.491918
0.430463
0.372954
0.320035
0.272442
0.231211
0.197441
0.171605
0.153545
0.139592
0.125444
0.108311
0.0872942
0.062304
0.0351518
0.0109911
1.81156
1.71396
1.59811
1.47051
1.3458
1.22875
1.12092
1.02205
0.931348
0.84767
0.769589
0.695949
0.625969
0.559102
0.495198
0.434553
0.377741
0.325526
0.278668
0.237863
0.203927
0.177056
0.156411
0.139367
0.122818
0.10434
0.0823085
0.0560921
0.028969
0.00876353
1.93543
1.80468
1.66445
1.51599
1.37335
1.24315
1.12675
1.02314
0.930115
0.845268
0.766684
0.693076
0.623692
0.558027
0.495574
0.436146
0.380243
0.328844
0.282927
0.243076
0.209434
0.181633
0.15866
0.138717
0.119753
0.0997498
0.0765712
0.0493099
0.0228028
0.00665404
2.02655
1.86375
1.69522
1.5281
1.37424
1.23715
1.11673
1.01127
0.918207
0.834379
0.757121
0.684984
0.61741
0.553813
0.493278
0.435235
0.380221
0.329692
0.285008
0.246555
0.213702
0.185342
0.160336
0.137643
0.116263
0.0946852
0.0704322
0.0423955
0.0167835
0.00459185
2.0589
1.86245
1.66879
1.48666
1.32852
1.19359
1.07783
0.977656
0.89016
0.811599
0.738467
0.669504
0.605102
0.545
0.487564
0.431422
0.377221
0.327411
0.284227
0.247882
0.216625
0.188268
0.161485
0.13605
0.112169
0.0890395
0.0639763
0.0355657
0.0110577
0.00266274
1.96046
1.71531
1.52264
1.35818
1.22045
1.10566
1.00706
0.920532
0.845143
0.777127
0.711308
0.646851
0.586616
0.531525
0.478648
0.424914
0.371067
0.321416
0.279957
0.246795
0.218363
0.190752
0.16232
0.133892
0.107247
0.0826479
0.0573063
0.0291773
0.00598976
0.000970803
1.60132
1.31997
1.20471
1.12246
1.04025
0.970258
0.905527
0.841235
0.784095
0.732686
0.677388
0.617418
0.561419
0.513279
0.467299
0.416644
0.361993
0.311117
0.271438
0.243102
0.21938
0.193445
0.163234
0.13114
0.101157
0.0751562
0.0503525
0.023472
0.00187148
-0.000382114
0.808083
0.499566
0.637405
0.780938
0.792843
0.797626
0.786294
0.745334
0.706447
0.679851
0.640405
0.583089
0.529667
0.490998
0.455733
0.408818
0.350567
0.295374
0.25713
0.236304
0.220322
0.197265
0.164717
0.127679
0.0933514
0.0659708
0.042912
0.0186909
-0.0010256
-0.00129663
140.886
140.967
141.155
141.44
141.804
142.24
142.738
143.289
143.885
144.511
145.156
145.804
146.438
147.038
147.581
148.04
148.384
148.575
148.569
148.309
147.723
146.714
145.149
142.835
139.473
134.565
127.192
115.435
93.2585
33.3981
140.159
140.23
140.396
140.646
140.965
141.343
141.772
142.243
142.745
143.265
143.789
144.302
144.783
145.213
145.567
145.814
145.92
145.844
145.533
144.924
143.931
142.441
140.295
137.263
132.985
126.878
117.909
104.343
84.8177
56.3757
139.389
139.45
139.593
139.807
140.078
140.398
140.756
141.144
141.551
141.962
142.364
142.738
143.067
143.326
143.488
143.524
143.395
143.055
142.45
141.507
140.137
138.218
135.586
132.011
127.167
120.6
111.721
99.8928
85.6717
69.0853
138.578
138.63
138.748
138.926
139.148
139.408
139.694
139.998
140.308
140.61
140.888
141.125
141.299
141.389
141.364
141.193
140.836
140.245
139.363
138.118
136.418
134.145
131.148
127.231
122.147
115.603
107.304
96.9196
84.3892
69.2764
137.729
137.769
137.864
138.004
138.177
138.376
138.59
138.809
139.022
139.214
139.369
139.47
139.494
139.417
139.211
138.842
138.269
137.446
136.315
134.806
132.832
130.288
127.045
122.946
117.811
111.443
103.639
94.1603
82.8383
69.8813
136.842
136.872
136.942
137.044
137.168
137.305
137.447
137.582
137.699
137.783
137.817
137.784
137.662
137.426
137.047
136.492
135.721
134.689
133.341
131.611
129.423
126.686
123.295
119.131
114.063
107.959
100.695
92.173
82.3841
71.7414
135.921
135.941
135.986
136.05
136.125
136.201
136.271
136.323
136.345
136.323
136.24
136.079
135.817
135.43
134.889
134.164
133.215
132
130.468
128.563
126.217
123.357
119.901
115.761
110.851
105.093
98.4316
90.8566
82.4117
73.4327
134.969
134.978
134.999
135.026
135.052
135.069
135.068
135.038
134.968
134.844
134.649
134.364
133.97
133.443
132.755
131.876
130.771
129.401
127.721
125.682
123.231
120.307
116.851
112.804
108.112
102.736
96.661
89.9087
82.5287
74.7927
133.989
133.988
133.985
133.975
133.953
133.912
133.842
133.734
133.576
133.353
133.051
132.652
132.136
131.48
130.659
129.645
128.406
126.909
125.115
122.982
120.469
117.531
114.126
110.216
105.771
100.778
95.2423
89.1982
82.6995
75.9732
132.986
132.975
132.948
132.903
132.834
132.737
132.601
132.418
132.175
131.86
131.458
130.952
130.324
129.552
128.614
127.484
126.135
124.538
122.659
120.468
117.931
115.017
111.698
107.951
103.765
99.1401
94.0944
88.667
82.9111
77.0113
131.964
131.943
131.894
131.814
131.701
131.549
131.351
131.096
130.774
130.373
129.879
129.275
128.546
127.672
126.633
125.406
123.968
122.295
120.36
118.139
115.609
112.747
109.537
105.968
102.04
97.7613
93.1562
88.2639
83.1322
77.9092
130.928
130.898
130.827
130.714
130.559
130.356
130.098
129.776
129.381
128.9
128.322
127.631
126.813
125.85
124.725
123.419
121.913
120.186
118.218
115.992
113.491
110.701
107.615
104.229
100.55
96.5911
92.3786
87.9483
83.3423
78.6794
129.883
129.845
129.753
129.609
129.414
129.163
128.85
128.466
128.003
127.45
126.796
126.027
125.132
124.094
122.898
121.53
119.973
118.212
116.232
114.019
111.565
108.861
105.905
102.701
99.2564
95.5894
91.7242
87.6932
83.5321
79.337
128.836
128.789
128.678
128.505
128.273
127.977
127.613
127.173
126.648
126.03
125.309
124.473
123.511
122.41
121.159
119.743
118.152
116.373
114.396
112.213
109.817
107.207
104.384
101.353
98.128
94.7244
91.1656
87.4798
83.6972
79.8955
127.792
127.737
127.609
127.409
127.142
126.806
126.395
125.903
125.323
124.648
123.868
122.974
121.957
120.805
119.51
118.061
116.45
114.666
112.705
110.562
108.233
105.72
103.027
100.162
97.1382
93.9712
90.6821
87.2951
83.8357
80.3672
126.757
126.696
126.551
126.326
126.028
125.655
125.202
124.664
124.036
123.31
122.48
121.537
120.475
119.284
117.956
116.486
114.865
113.089
111.153
109.057
106.799
104.384
101.816
99.1063
96.2658
93.3103
90.2581
87.1302
83.9479
80.7628
125.739
125.671
125.511
125.265
124.938
124.531
124.041
123.463
122.793
122.024
121.151
120.169
119.07
117.848
116.499
115.017
113.396
111.636
109.733
107.688
105.503
103.183
100.735
98.1678
95.4935
92.7262
89.8822
86.9791
84.0349
81.0921
124.744
124.67
124.497
124.231
123.879
123.443
122.92
122.307
121.6
120.795
119.887
118.872
117.745
116.503
115.14
113.653
112.041
110.302
108.437
106.446
104.334
102.105
99.7685
97.3322
94.8075
92.2073
89.5457
86.8379
84.099
81.3641
123.78
123.701
123.516
123.232
122.857
122.396
121.845
121.201
120.463
119.628
118.692
117.652
116.505
115.248
113.879
112.395
110.797
109.084
107.258
105.322
103.28
101.139
98.9048
96.5874
94.1968
91.7444
89.2426
86.7044
84.1427
81.5863
122.853
122.77
122.574
122.275
121.881
121.397
120.822
120.153
119.39
118.53
117.572
116.513
115.351
114.086
112.716
111.24
109.66
107.976
106.191
104.309
102.334
100.274
98.134
95.9239
93.6527
91.3306
88.9685
86.5775
84.1687
81.7661
121.972
121.884
121.68
121.367
120.957
120.454
119.858
119.168
118.384
117.505
116.53
115.457
114.287
113.018
111.652
110.187
108.627
106.974
105.23
103.399
101.488
99.5019
97.4478
95.3338
93.1684
90.9608
88.7204
86.4571
84.1801
81.9096
121.144
121.053
120.841
120.516
120.092
119.573
118.96
118.253
117.453
116.558
115.57
114.489
113.314
112.046
110.686
109.236
107.698
106.075
104.37
102.589
100.736
98.8173
96.8401
94.8114
92.7392
90.6315
88.4968
86.3436
84.1801
82.0229
120.377
120.283
120.064
119.73
119.293
118.761
118.135
117.414
116.6
115.695
114.698
113.611
112.434
111.17
109.819
108.384
106.869
105.275
103.608
101.872
100.072
98.2144
96.3054
94.3519
92.361
90.34
88.2964
86.2378
84.1713
82.1109
119.68
119.583
119.358
119.015
118.569
118.026
117.388
116.656
115.833
114.919
113.916
112.826
111.651
110.392
109.052
107.633
106.139
104.574
102.941
101.246
99.4938
97.6901
95.841
93.9528
92.0321
90.0856
88.12
86.1419
84.1579
82.1796
119.061
118.962
118.731
118.38
117.925
117.373
116.726
115.986
115.155
114.236
113.23
112.139
110.966
109.714
108.384
106.981
105.508
103.968
102.366
100.708
98.9974
97.2405
95.4429
93.6106
91.7497
89.8662
87.9663
86.0559
84.1408
82.231
118.529
118.427
118.19
117.833
117.37
116.811
116.157
115.411
114.575
113.652
112.644
111.554
110.385
109.14
107.821
106.432
104.977
103.46
101.886
100.259
98.5841
96.8669
95.1128
93.3274
91.5163
89.6852
87.8398
85.9854
84.1274
82.2743
118.094
117.989
117.745
117.379
116.91
116.345
115.685
114.934
114.094
113.169
112.161
111.073
109.907
108.669
107.359
105.983
104.544
103.047
101.495
99.8945
98.2491
96.5643
94.8455
93.0978
91.3267
89.5375
87.7353
85.9252
84.1122
82.303
117.768
117.657
117.404
117.032
116.558
115.988
115.324
114.57
113.727
112.801
111.792
110.706
109.545
108.312
107.01
105.645
104.219
102.737
101.204
99.624
98.0017
96.3424
94.6512
92.933
91.193
89.4362
87.6676
85.892
84.1142
82.3401
117.566
117.431
117.161
116.783
116.307
115.734
115.068
114.312
113.468
112.542
111.534
110.45
109.292
108.064
106.769
105.411
103.994
102.524
101.003
99.4369
97.8304
96.1883
94.5154
92.8168
91.0973
89.3618
87.6151
85.8617
84.1061
82.3532
117.547
117.349
117.05
116.666
116.187
115.611
114.942
114.184
113.34
112.413
111.407
110.324
109.168
107.944
106.653
105.301
103.891
102.428
100.916
99.3596
97.7634
96.1324
94.4713
92.785
91.0784
89.3562
87.6229
85.8831
84.1411
82.4011
-50.6741
-30.4848
-11.0853
36.0752
28.7798
17.0472
51.6664
39.6562
28.5491
53.044
42.6539
34.6509
57.36
49.0983
42.3687
61.7335
54.8449
48.9722
64.9895
59.1223
54.0854
67.5689
62.5539
58.2531
69.7428
65.4176
61.7144
71.5774
67.8036
64.5803
73.1195
69.7925
66.9581
74.4183
71.4581
68.9411
75.5143
72.8578
70.6025
76.4395
74.0371
71.9995
77.2204
75.0322
73.1776
77.8787
75.8726
74.1728
78.4325
76.5821
75.0141
78.897
77.1804
75.7252
79.2851
77.6837
76.3252
79.6078
78.1058
76.8304
79.8745
78.4584
77.2544
80.0939
78.7516
77.6088
80.2726
78.9937
77.9031
80.4186
79.1936
78.1471
80.5345
79.3547
78.3454
80.6319
79.4894
78.5102
80.7022
79.5896
78.635
80.774
79.6841
78.7468
80.8073
79.7337
78.8104
80.8762
79.8167
78.8999
-2.16465
-2.0081
-0.582226
0.48339
0.551479
0.60151
0.649885
0.622592
0.602564
0.628531
0.61746
0.550665
0.488688
0.460119
0.443332
0.402241
0.336026
0.271624
0.234619
0.226292
0.223263
0.204524
0.16805
0.12361
0.0830948
0.0541326
0.0345735
0.0151996
-0.00230176
-0.00167275
3.3489
0.240749
1.39142
1.06958
-0.03109
0.0279027
0.520735
0.587825
0.544894
0.616046
0.610201
0.494629
0.407965
0.408681
0.442792
0.414492
0.32916
0.242738
0.201991
0.21121
0.229445
0.216715
0.173069
0.117212
0.0678547
0.0371988
0.0242044
0.0136309
-0.0011666
-0.00138183
14.3338
5.8935
3.02025
0.832831
0.337171
1.18096
1.41268
0.506731
0.0180638
0.26909
0.61777
0.503327
0.371532
0.406569
0.489809
0.43948
0.303052
0.171283
0.12353
0.173932
0.244842
0.24376
0.185683
0.111788
0.0496571
0.0164437
0.0133804
0.0170522
0.00487998
-0.000344048
23.9472
14.0996
8.26799
4.53169
2.64933
1.88242
0.923914
0.243253
0.252382
1.30008
1.46179
0.439522
-0.00380335
0.0487707
0.366922
0.495403
0.322648
0.130197
0.0806754
0.20677
0.312125
0.286235
0.195081
0.0931574
0.0134273
-0.0235188
-0.0111857
0.0195001
0.0147395
0.00076905
33.0601
23.3235
16.0168
10.711
7.03686
4.53754
2.7223
1.64402
1.2083
1.28577
0.828251
0.277787
0.032535
0.440469
1.07746
0.892541
0.290631
-0.0854619
-0.212118
-0.0609904
0.282822
0.355106
0.22203
0.0838404
-0.0145086
-0.0517167
-0.0135533
0.0635132
0.0579163
0.00485877
40.9941
32.0834
24.2025
17.7705
12.8366
9.17196
6.47984
4.56545
3.25724
2.37872
1.6004
0.988163
0.62384
0.661218
0.748803
0.625923
0.247797
-0.114582
-0.183216
0.331709
0.723737
0.492214
0.202975
0.00788309
-0.106217
-0.145761
-0.0964651
0.02456
0.082698
-0.00163707
47.4645
39.6692
31.9009
25.0141
19.383
14.9068
11.3689
8.60226
6.48627
4.89751
3.65642
2.66182
1.93728
1.51613
1.24712
0.969738
0.561046
0.179242
0.0659143
0.285246
0.423715
0.394273
0.215554
0.0335383
-0.0870279
-0.126803
-0.0517049
0.199473
0.307671
0.00591211
52.7354
46.0105
38.7585
31.9308
26.0441
21.0896
16.9401
13.506
10.7166
8.48167
6.67232
5.19519
4.03708
3.18667
2.55139
1.98934
1.42041
0.938864
0.680839
0.646864
0.651774
0.570966
0.360048
0.139817
-0.00868551
-0.0622238
-0.00628262
0.152601
0.259407
-0.0587268
57.0359
51.2226
44.6413
38.1687
32.3484
27.2309
22.7534
18.8803
15.5814
12.8035
10.4697
8.51618
6.91023
5.61929
4.57222
3.67386
2.87398
2.20943
1.74179
1.46423
1.26886
1.03851
0.746441
0.468339
0.267167
0.162273
0.153381
0.206414
0.190472
-0.298792
60.5455
55.4792
49.5778
43.5928
38.0366
32.9867
28.4146
24.3164
20.6934
17.5273
14.7806
12.413
10.3919
8.6832
7.23639
5.99195
4.91183
3.99923
3.27406
2.72351
2.27813
1.85924
1.44389
1.06677
0.76649
0.555885
0.424222
0.322756
0.122529
-0.517855
63.4277
58.9683
53.6881
48.2187
43.0197
38.1739
33.6689
29.5162
25.7367
22.336
19.3019
16.6138
14.2493
12.1833
10.3823
8.80798
7.43062
6.23972
5.23462
4.39931
3.68889
3.05208
2.46491
1.93717
1.48792
1.1217
0.820045
0.529262
0.140531
-0.601562
65.8147
61.8504
57.1112
52.1304
47.3126
42.7362
38.3942
34.3039
30.4949
26.9857
23.7801
20.8724
18.252
15.9044
13.8091
11.9421
10.2816
8.81423
7.53109
6.41607
5.43877
4.56397
3.76919
3.05141
2.41564
1.85831
1.3571
0.862503
0.29304
-0.534151
67.8057
64.2491
59.9723
55.4309
50.9811
46.6933
42.5613
38.6021
34.8474
31.3219
28.0382
25.0005
22.2075
19.6536
17.3285
15.2183
13.3087
11.588
10.0457
8.66754
7.43193
6.31386
5.29397
4.36316
3.5174
2.74745
2.03074
1.32642
0.5779
-0.340968
69.4755
66.2582
62.3745
58.2191
54.1077
50.102
46.1948
42.4004
38.7494
35.2681
31.9733
28.8751
25.9784
23.2843
20.7897
18.4882
16.3716
14.4315
12.6589
11.0424
9.5664
8.2128
6.96551
5.81323
4.74716
3.75524
2.81686
1.90047
0.96865
-0.0608423
70.8816
67.9492
64.4002
60.5807
56.7726
53.0303
49.3445
45.7266
42.2041
38.8026
35.5407
32.4312
29.4829
26.7013
24.0882
21.6425
19.3607
17.2379
15.2677
13.4419
11.749
10.1761
8.70992
7.33918
6.05333
4.83966
3.68034
2.55169
1.42945
0.26459
72.069
69.3774
66.1143
62.586
59.0466
55.544
52.0673
48.6245
45.2397
41.9369
38.7343
35.6461
32.6831
29.8532
27.1618
24.611
22.2011
19.9302
17.7945
15.7885
13.9045
12.1327
10.4627
8.8843
7.38683
5.95819
4.58324
3.24405
1.92426
0.598872
73.0733
70.586
67.5678
64.292
60.9891
57.7018
54.4178
51.1419
47.8949
44.6984
41.5699
38.5233
35.5704
32.7205
29.9808
27.3561
24.8489
22.4598
20.1875
18.0287
15.9783
14.0294
12.1739
10.4028
8.70631
7.07341
5.49112
3.94514
2.42296
0.915779
73.9229
71.6097
68.8017
65.7449
62.6494
59.5538
56.4447
53.3242
50.2098
47.1207
44.0729
41.0799
38.1532
35.303
32.5373
29.8625
27.2828
24.8005
22.4163
20.1289
17.9352
15.8304
13.8082
11.8611
9.98035
8.15605
6.37667
4.62984
2.90417
1.20054
74.6411
72.4764
69.8493
66.9823
64.0682
61.1424
58.1904
55.2121
52.2221
49.2373
46.272
43.3387
40.4483
37.6111
34.8356
32.1288
29.4962
26.9413
24.4662
22.0711
19.7546
17.5134
15.3429
13.2367
11.1872
9.18534
7.22048
5.28099
3.35495
1.44806
75.2473
73.2093
70.7378
68.0351
65.2794
62.5029
59.6909
56.8414
53.9661
51.0799
48.1955
45.3239
42.4756
39.6602
36.8863
34.1612
31.4911
28.8803
26.3318
23.8471
21.4259
19.0662
16.7646
14.5158
12.313
10.1478
8.01012
5.88825
3.76905
1.65975
75.7573
73.8275
71.4896
68.929
66.3109
63.6653
60.9771
58.2427
55.4718
52.677
49.8695
47.0592
44.2554
41.4671
38.7027
35.9696
33.2739
30.6207
28.0135
25.4546
22.9446
20.4826
18.0659
15.6902
13.3493
11.0353
8.73815
6.44601
4.14434
1.83994
76.1851
74.3472
72.1239
69.6856
67.1866
64.6549
62.0754
59.443
56.7656
54.0542
51.3182
48.5665
45.8073
43.049
40.2993
37.5653
34.8533
32.1685
29.5148
26.8949
24.3102
21.7604
19.2435
16.7557
14.2915
11.8432
9.4008
6.95202
4.48123
1.99378
76.5417
74.7817
72.6561
70.3225
67.9259
65.4925
63.0074
60.4644
57.8699
55.2331
52.5624
49.8652
47.149
44.4213
41.6891
38.9594
36.2379
33.5301
30.8399
28.1704
25.5233
22.8988
20.2953
17.7096
15.1365
12.5684
9.99539
7.40477
4.7801
2.12486
76.8379
75.1434
73.1004
70.8558
68.5464
66.1971
63.793
61.3274
58.8051
56.2341
53.6216
50.974
48.2978
45.5998
42.8864
40.1639
37.438
34.7138
31.9954
29.2859
26.5872
23.8998
21.2224
18.5523
15.8842
13.2108
10.5222
7.80532
5.04324
2.23707
77.08
75.4398
73.4659
71.2958
69.0596
66.7811
64.4456
62.0457
59.5852
57.071
54.5091
51.9053
49.2652
46.5947
43.8998
41.1861
38.4591
35.7236
32.9836
30.2422
27.5014
24.7618
22.0224
19.2804
16.531
13.7668
10.9778
8.1508
5.26865
2.33007
77.2797
75.6836
73.7664
71.6576
69.4816
67.2615
64.9828
62.6376
60.2287
57.7622
55.2433
52.6771
50.0683
47.4223
44.7444
42.0399
39.3139
36.5708
33.8146
31.0482
28.2736
25.4915
22.7011
19.8995
17.082
14.2413
11.3673
8.44663
5.46203
2.40906
77.4337
75.8726
74.0001
71.94
69.8119
67.6382
65.4047
63.1033
60.736
58.3079
55.824
53.2884
50.7055
48.08
45.4169
42.7209
39.9968
37.2487
34.4805
31.695
28.8941
26.0785
23.2473
20.3979
17.5254
14.6226
11.6792
8.68193
5.61344
2.46702
77.5644
76.029
74.1906
72.1674
70.0754
67.9368
65.7377
63.4696
61.1338
58.7353
56.2781
53.7662
51.2033
48.5939
45.9425
43.2535
40.5313
37.7801
35.0032
32.2035
29.3829
26.542
23.6799
20.7939
17.8792
14.9283
11.9311
8.87395
5.73932
2.51663
77.6448
76.1255
74.3095
72.3113
70.2437
68.1286
65.9525
63.7066
61.3921
59.0133
56.5741
54.0781
51.5289
48.9305
46.2871
43.603
40.8824
38.1292
35.3468
32.5378
29.7042
26.8463
23.9634
21.0527
18.1093
15.1258
12.0915
8.99272
5.8118
2.53648
77.7335
76.2153
74.4116
72.4284
70.3746
68.2721
66.1081
63.8739
61.5705
59.2018
56.7717
54.2836
51.7408
49.1474
46.5073
43.8248
41.104
38.3487
35.5622
32.7472
29.9054
27.0375
24.1425
21.2177
18.2581
15.2561
12.201
9.0778
5.86654
2.54315
)
;

boundaryField
{
    inlet
    {
        type            zeroGradient;
    }
    outlet
    {
        type            fixedValue;
        value           uniform 0;
    }
    flap
    {
        type            zeroGradient;
    }
    upperWall
    {
        type            zeroGradient;
    }
    lowerWall
    {
        type            zeroGradient;
    }
    frontAndBack
    {
        type            empty;
    }
}


// ************************************************************************* //
