/*--------------------------------*- C++ -*----------------------------------*\
  =========                 |
  \\      /  F ield         | OpenFOAM: The Open Source CFD Toolbox
   \\    /   O peration     | Website:  https://openfoam.org
    \\  /    A nd           | Version:  7
     \\/     M anipulation  |
\*---------------------------------------------------------------------------*/
FoamFile
{
    version     2.0;
    format      ascii;
    class       surfaceScalarField;
    location    "3.6";
    object      phi;
}
// * * * * * * * * * * * * * * * * * * * * * * * * * * * * * * * * * * * * * //

dimensions      [0 3 -1 0 0 0 0];

internalField   nonuniform List<scalar> 
5457
(
0.198418
0.00158236
0.19648
0.00193733
0.194192
0.00228803
0.191509
0.00268351
0.188428
0.00308111
0.184951
0.00347666
0.181073
0.00387844
0.176779
0.00429386
0.172051
0.00472804
0.166866
0.00518501
0.161197
0.00566827
0.155017
0.00618076
0.148292
0.00672467
0.140991
0.00730101
0.133082
0.00790915
0.124536
0.00854608
0.11533
0.00920552
0.105453
0.00987682
0.0949096
0.0105437
0.0837264
0.0111832
0.071962
0.0117644
0.0597138
0.0122482
0.0471252
0.0125887
0.0343849
0.0127403
0.0216896
0.0126953
0.00903926
0.0126504
-0.0029151
0.0119544
-0.0084717
0.0055566
-0.00804283
-0.000428871
-0.00804283
0.199928
0.00165419
0.199176
0.00268974
0.197965
0.00349892
0.196332
0.00431663
0.194272
0.00514108
0.191782
0.00596662
0.188855
0.0068053
0.185478
0.00767057
0.181634
0.00857278
0.177298
0.00952021
0.172446
0.0105202
0.167048
0.0115789
0.161072
0.0127011
0.154483
0.0138896
0.147249
0.0151439
0.139336
0.0164588
0.130718
0.0178231
0.121378
0.0192166
0.111314
0.0206082
0.100544
0.0219528
0.0891202
0.0231886
0.0771327
0.0242357
0.0647267
0.0249946
0.0521191
0.0253479
0.0396585
0.0251558
0.0281079
0.0242009
0.0185971
0.0214652
0.00879903
0.0153547
0.00118439
0.00718577
-0.00685845
0.199781
0.00187361
0.199087
0.00338356
0.197946
0.00463981
0.196409
0.00585318
0.194483
0.00706713
0.192164
0.00828558
0.189447
0.00952262
0.186322
0.0107959
0.182774
0.0121205
0.178785
0.0135089
0.174333
0.0149721
0.169392
0.0165196
0.163934
0.0181594
0.157927
0.0198965
0.151339
0.0217318
0.144138
0.0236602
0.136293
0.0256682
0.127779
0.0277301
0.118583
0.0298048
0.108705
0.0318304
0.0981735
0.0337203
0.0870514
0.0353578
0.0754547
0.0365913
0.0635774
0.0372252
0.0517353
0.036998
0.0403996
0.0355366
0.029741
0.0321238
0.0191675
0.0259282
0.00959845
0.0167548
0.00274
0.199703
0.00217053
0.199008
0.00407884
0.197887
0.0057603
0.196376
0.00736404
0.194488
0.00895518
0.192222
0.0105515
0.189575
0.0121702
0.186539
0.0138318
0.183105
0.0155548
0.179258
0.0173552
0.174984
0.0192469
0.170261
0.021242
0.16507
0.0233509
0.159386
0.0255804
0.153184
0.0279332
0.14644
0.0304051
0.139126
0.0329822
0.131219
0.0356371
0.1227
0.0383236
0.113559
0.040971
0.103803
0.0434769
0.0934601
0.0457003
0.0825989
0.0474525
0.071336
0.048488
0.0598438
0.0484902
0.0483194
0.047061
0.036813
0.0436303
0.0251892
0.0375519
0.0133363
0.0286078
0.0160763
0.199667
0.00250311
0.198964
0.00478208
0.197863
0.00686158
0.196381
0.00884567
0.194533
0.0108039
0.192318
0.0127661
0.189734
0.0147539
0.186776
0.0167902
0.183434
0.0188964
0.179699
0.0210908
0.175556
0.0233896
0.170991
0.0258069
0.165988
0.0283544
0.160528
0.0310404
0.154592
0.0338685
0.148162
0.0368353
0.141217
0.0399277
0.133735
0.0431183
0.125699
0.0463602
0.11709
0.0495801
0.107897
0.0526702
0.0981178
0.0554791
0.0877679
0.0578024
0.0768819
0.0593741
0.0655117
0.0598603
0.0537106
0.0588621
0.041456
0.0558848
0.0285892
0.0504188
0.0148531
0.0423438
0.0309294
0.199653
0.0028503
0.198949
0.00548612
0.197871
0.00793949
0.196427
0.0102898
0.194627
0.0126038
0.192473
0.0149195
0.189964
0.0172635
0.187093
0.019661
0.183854
0.0221356
0.180237
0.0247079
0.17623
0.027396
0.171822
0.0302154
0.166997
0.033179
0.161742
0.036296
0.156039
0.0395711
0.149873
0.0430016
0.143225
0.0465756
0.136076
0.0502673
0.128404
0.0540321
0.120185
0.0577994
0.111391
0.0614643
0.101992
0.0648777
0.091958
0.0678365
0.0812572
0.0700749
0.0698572
0.0712603
0.0577195
0.0709998
0.0447628
0.0688415
0.0308507
0.0643309
0.0158739
0.0573206
0.0468033
0.19965
0.00320024
0.198954
0.00618209
0.197904
0.00898909
0.196505
0.0116895
0.194763
0.014346
0.192681
0.0170014
0.190257
0.019687
0.187488
0.0224305
0.184366
0.0252575
0.180883
0.0281907
0.177029
0.0312497
0.172793
0.0344518
0.168161
0.0378108
0.163119
0.0413374
0.157654
0.045037
0.151746
0.0489088
0.145379
0.0529428
0.13853
0.0571165
0.131172
0.06139
0.123272
0.0656998
0.114785
0.0699506
0.105658
0.0740052
0.09582
0.0776741
0.0851895
0.0807054
0.0736715
0.0827784
0.0611644
0.0835069
0.0475577
0.0824482
0.0327604
0.0791282
0.0167838
0.0732972
0.0635871
0.199655
0.00354558
0.198975
0.00686219
0.197959
0.0100048
0.19661
0.0130382
0.194934
0.016022
0.192934
0.0190019
0.190608
0.022013
0.187952
0.0250857
0.184963
0.0282474
0.181631
0.0315226
0.177947
0.034933
0.173902
0.038497
0.169483
0.0422302
0.164676
0.0461446
0.159465
0.0502476
0.153833
0.0545408
0.147758
0.0590177
0.141214
0.0636608
0.134166
0.0684379
0.12657
0.0732962
0.118365
0.0781554
0.109472
0.0828977
0.09979
0.0873566
0.089191
0.0913044
0.0775288
0.0944405
0.0646508
0.0963848
0.0504204
0.0966786
0.0347704
0.0947783
0.017791
0.0902765
0.0813781
0.199664
0.00388141
0.199006
0.00751999
0.19803
0.0109811
0.196739
0.0143296
0.195137
0.017624
0.193227
0.0209117
0.191009
0.0242308
0.188481
0.0276142
0.185637
0.0310913
0.182471
0.0346882
0.178976
0.0384283
0.175141
0.0423317
0.170955
0.0464159
0.166405
0.0506947
0.161474
0.0551784
0.156143
0.0598719
0.150388
0.0647736
0.144175
0.0698733
0.137464
0.0751489
0.130198
0.0805622
0.122301
0.0860526
0.11367
0.0915283
0.104172
0.0968546
0.0936381
0.101838
0.081869
0.10621
0.0686536
0.1096
0.0538058
0.111526
0.0372395
0.111345
0.019085
0.108431
0.100463
0.199677
0.00420418
0.199047
0.00815023
0.198116
0.0119124
0.196887
0.0155579
0.195366
0.0191449
0.193556
0.0227223
0.191456
0.0263306
0.189065
0.0300049
0.18638
0.0337764
0.183395
0.037673
0.180104
0.0417194
0.176498
0.0459377
0.172567
0.0503473
0.168297
0.0549646
0.163672
0.0598029
0.158673
0.0648718
0.15327
0.0701758
0.14743
0.0757137
0.141103
0.081476
0.134223
0.0874423
0.126699
0.0935763
0.118409
0.0998186
0.109188
0.106076
0.0988242
0.112202
0.0870577
0.117976
0.0735952
0.123063
0.0581535
0.126968
0.0405559
0.128942
0.0209037
0.128083
0.121367
0.199693
0.00451126
0.199095
0.00874862
0.198213
0.012794
0.197053
0.0167175
0.19562
0.0205783
0.193916
0.0244261
0.191943
0.0283036
0.1897
0.0322478
0.187185
0.0362914
0.184394
0.0404638
0.181322
0.0447915
0.177962
0.0492981
0.174304
0.0540051
0.170337
0.0589317
0.166045
0.0640947
0.161408
0.0695088
0.156398
0.0751857
0.150978
0.0811343
0.145094
0.0873594
0.138676
0.0938608
0.131622
0.10063
0.123793
0.107647
0.115
0.114868
0.104988
0.122214
0.0934253
0.129539
0.0799049
0.136583
0.0639747
0.142898
0.0452406
0.147676
0.0236151
0.149709
0.144982
0.199711
0.00480057
0.199148
0.00931164
0.19832
0.0136216
0.197234
0.0178038
0.195894
0.0219185
0.194303
0.0260165
0.192465
0.0301421
0.190379
0.0343339
0.188044
0.0386261
0.185458
0.0430494
0.182618
0.0476314
0.179519
0.0523977
0.176152
0.0573717
0.172509
0.062575
0.168575
0.0680285
0.164332
0.0737517
0.159754
0.0797638
0.154804
0.0860842
0.149431
0.0927326
0.143562
0.0997299
0.137094
0.107098
0.129882
0.114859
0.121721
0.12303
0.112321
0.131614
0.101281
0.140579
0.0880543
0.14981
0.0719325
0.15902
0.0520949
0.167514
0.0278912
0.173912
0.172873
0.19973
0.00507051
0.199205
0.00983643
0.198435
0.0143916
0.197427
0.0188125
0.196184
0.0231605
0.194713
0.0274877
0.193016
0.0318395
0.191094
0.0362558
0.188948
0.040772
0.186578
0.0454197
0.183981
0.050228
0.181155
0.0552235
0.178095
0.0604315
0.174794
0.0658761
0.171242
0.0715813
0.167422
0.0775715
0.163313
0.0838727
0.158883
0.0905139
0.154087
0.0975287
0.148859
0.104958
0.143103
0.112854
0.136683
0.121279
0.129398
0.130315
0.120949
0.140063
0.110892
0.150636
0.0985548
0.162147
0.0829146
0.17466
0.0624491
0.187979
0.0351345
0.201227
0.208008
0.199751
0.00531982
0.199266
0.0103207
0.198557
0.0151011
0.197629
0.0197401
0.19649
0.0243004
0.195142
0.0288351
0.193591
0.0333905
0.19184
0.0380074
0.18989
0.042722
0.187742
0.047567
0.185398
0.052572
0.182857
0.0577649
0.180117
0.063172
0.177173
0.0688195
0.174021
0.0747339
0.170649
0.0809434
0.167042
0.0874795
0.163177
0.094379
0.159019
0.101687
0.154517
0.10946
0.149596
0.117774
0.144146
0.126729
0.137998
0.136463
0.130893
0.147167
0.122417
0.159112
0.111875
0.17269
0.0980362
0.188499
0.0785585
0.207457
0.0486825
0.231103
0.25669
0.199772
0.00554753
0.19933
0.0107626
0.198684
0.0157476
0.19784
0.0205837
0.196806
0.0253349
0.195586
0.0300548
0.194186
0.0347906
0.19261
0.0395837
0.190861
0.0444709
0.188943
0.0494851
0.186858
0.0546566
0.184609
0.0600137
0.182198
0.0655836
0.179624
0.0713935
0.176886
0.0774715
0.173981
0.0838483
0.170902
0.0905588
0.167636
0.0976447
0.164165
0.105158
0.160459
0.113166
0.156476
0.121758
0.152148
0.131057
0.147376
0.141235
0.142002
0.152541
0.135763
0.165351
0.128188
0.180265
0.118337
0.19835
0.103958
0.221836
0.0777312
0.25733
0.334421
0.00433024
-0.00433024
0.00841468
-0.00408445
0.0118387
-0.00342399
0.0146356
-0.00279695
0.0169161
-0.00228044
0.0187848
-0.00186877
0.0203314
-0.00154657
0.0216312
-0.00129979
0.0227457
-0.00111454
0.0237227
-0.000976988
0.0245965
-0.000873816
0.0253888
-0.000792254
0.0261094
-0.000720596
0.0267592
-0.00064979
0.0273346
-0.000575437
0.0278324
-0.000497833
0.0282498
-0.000417366
0.0285768
-0.000327031
0.0287885
-0.000211638
0.0288555
-6.70184e-05
0.0287593
9.62057e-05
0.0285382
0.000221136
0.0282715
0.000266645
0.028027
0.00024448
0.0278347
0.000192368
0.0277064
0.00012831
0.0276585
4.78707e-05
0.027727
-6.85586e-05
0.0279219
-0.000194814
-0.000280519
0.00380995
-0.00814018
0.00750614
-0.00778064
0.0106683
-0.00658611
0.0133156
-0.00544426
0.0155457
-0.00451058
0.0174477
-0.00377074
0.0190947
-0.00319357
0.0205464
-0.00275153
0.0218508
-0.00241893
0.0230452
-0.00217137
0.0241572
-0.00198579
0.025205
-0.00184005
0.0261978
-0.00171347
0.0271375
-0.00158942
0.0280216
-0.00145958
0.0288496
-0.00132577
0.0296254
-0.00119325
0.0303541
-0.00105567
0.0310279
-0.000885457
0.0316146
-0.000653764
0.0320841
-0.000373257
0.0324435
-0.000138271
0.032752
-4.17985e-05
0.0330639
-6.74696e-05
0.033401
-0.000144774
0.0337617
-0.000232349
0.0341311
-0.000321475
0.034492
-0.000429476
0.0348506
-0.000553402
-0.000581392
0.0030647
-0.0112049
0.00595976
-0.0106757
0.0083952
-0.00902154
0.010426
-0.00747506
0.0121385
-0.00622312
0.0136018
-0.00523397
0.0148716
-0.00446339
0.0159923
-0.00387227
0.0169992
-0.00342579
0.0179201
-0.00309225
0.0187763
-0.00284197
0.0195823
-0.00264606
0.0203453
-0.00247655
0.0210656
-0.00230964
0.0217383
-0.00213234
0.0223606
-0.00194809
0.0229382
-0.00177076
0.0234845
-0.00160199
0.0240046
-0.00140558
0.0244788
-0.00112794
0.0248728
-0.000767314
0.0251707
-0.000436171
0.0254141
-0.000285152
0.025642
-0.000295398
0.025869
-0.000371725
0.0260806
-0.000443994
0.0262488
-0.00048968
0.0263554
-0.000536056
0.0264038
-0.000601795
-0.000665654
0.00226609
-0.013471
0.0042242
-0.0126338
0.00578161
-0.010579
0.00705343
-0.00874688
0.00810871
-0.0072784
0.00899295
-0.00611821
0.00974273
-0.00521317
0.0103861
-0.00451563
0.0109453
-0.00398501
0.0114386
-0.00358553
0.0118807
-0.00328411
0.0122832
-0.0030485
0.0126531
-0.00284646
0.0129915
-0.00264809
0.0132926
-0.00243339
0.0135459
-0.00220139
0.0137481
-0.00197304
0.0139174
-0.00177125
0.0140835
-0.00157172
0.0142534
-0.00129784
0.0143374
-0.000851294
0.014156
-0.000254734
0.013683
0.000187783
0.0130992
0.000288482
0.0125318
0.000195673
0.0120332
5.4616e-05
0.011598
-5.45246e-05
0.0112446
-0.000182705
0.0110139
-0.000371006
-0.000665672
0.00135631
-0.0148273
0.00227593
-0.0135534
0.00287818
-0.0111812
0.00330082
-0.00916953
0.0035966
-0.00757417
0.0037895
-0.00631111
0.00389941
-0.00532308
0.00394194
-0.00455816
0.00392983
-0.0039729
0.00387348
-0.00352918
0.00378219
-0.00319281
0.00366474
-0.00293105
0.00352942
-0.00271114
0.00338263
-0.0025013
0.0032248
-0.00227556
0.00304333
-0.00201991
0.00280615
-0.00173586
0.00246913
-0.00143423
0.00201587
-0.00111845
0.00146742
-0.000749394
0.00091378
-0.000297654
0.000506988
0.000152059
0.000236446
0.000458325
-3.02276e-05
0.000555156
-0.000278192
0.000443637
-0.00045732
0.000233745
-0.000549723
3.78784e-05
-0.00058581
-0.000146618
-0.000600266
-0.00035655
-0.000653245
0.000303668
-0.015131
0.000125051
-0.0133748
-0.000284776
-0.0107714
-0.000750928
-0.00870337
-0.001293
-0.00703211
-0.00187859
-0.00572552
-0.00249231
-0.00470936
-0.00312105
-0.00392942
-0.00375632
-0.00333763
-0.00439236
-0.00289314
-0.00502385
-0.00256132
-0.00564435
-0.00231055
-0.00624594
-0.00210955
-0.00681938
-0.00192786
-0.00735461
-0.00174033
-0.00784228
-0.00153225
-0.00827799
-0.00130015
-0.00866553
-0.00104669
-0.00901334
-0.000770645
-0.00930607
-0.000456662
-0.00950305
-0.000100675
-0.00960237
0.000251382
-0.00965882
0.000514774
-0.00971687
0.000613204
-0.0098078
0.000534567
-0.00992622
0.000352166
-0.0100408
0.000152456
-0.0101439
-4.35421e-05
-0.0102127
-0.000287687
-0.000598009
-0.000823172
-0.0143078
-0.00214196
-0.012056
-0.00354839
-0.00936495
-0.00498461
-0.00726716
-0.00638562
-0.00563109
-0.00772561
-0.00438553
-0.00898463
-0.00345034
-0.0101508
-0.00276329
-0.0112171
-0.0022713
-0.0121827
-0.0019275
-0.0130521
-0.00169194
-0.0138323
-0.00153037
-0.0145304
-0.00141139
-0.0151524
-0.00130592
-0.0157014
-0.00119127
-0.0161788
-0.00105487
-0.0165856
-0.000893388
-0.0169249
-0.000707412
-0.0172024
-0.000493054
-0.0174181
-0.000240993
-0.0175612
4.24425e-05
-0.0176268
0.000316971
-0.0176517
0.000539642
-0.0176773
0.000638832
-0.0177369
0.000594115
-0.0178354
0.000450728
-0.0179559
0.000272964
-0.0180734
7.38728e-05
-0.0181785
-0.000182539
-0.000468632
-0.00203768
-0.0122701
-0.00446679
-0.0096269
-0.006889
-0.00694274
-0.00919517
-0.00496099
-0.0113064
-0.00351983
-0.0131916
-0.00250038
-0.0148466
-0.00179532
-0.0162857
-0.00132418
-0.0175314
-0.00102562
-0.0186094
-0.000849518
-0.0195451
-0.000756179
-0.0203608
-0.000714652
-0.021074
-0.0006982
-0.0216982
-0.000681718
-0.0222434
-0.000646067
-0.0227154
-0.000582879
-0.0231172
-0.00049161
-0.0234509
-0.00037368
-0.0237189
-0.000225072
-0.0239219
-3.80403e-05
-0.0240577
0.000178304
-0.0241393
0.000398532
-0.0241859
0.00058623
-0.0242291
0.000682037
-0.0242975
0.000662557
-0.0243997
0.000552903
-0.0245232
0.000396399
-0.0246521
0.000202777
-0.0247898
-4.48248e-05
-0.000282111
-0.00336035
-0.00890976
-0.00692855
-0.0060587
-0.0102986
-0.00357274
-0.0133306
-0.00192894
-0.0159675
-0.000882948
-0.0182142
-0.000253616
-0.0200921
8.25195e-05
-0.02164
0.000223709
-0.0229155
0.000249921
-0.023981
0.000215916
-0.0248879
0.000150721
-0.0256742
7.16701e-05
-0.0263656
-6.75247e-06
-0.0269748
-7.25633e-05
-0.0275097
-0.00011114
-0.0279777
-0.000114844
-0.0283828
-8.65354e-05
-0.0287258
-3.06716e-05
-0.0290029
5.19795e-05
-0.02921
0.000169047
-0.0293574
0.000325778
-0.0294648
0.000505893
-0.029546
0.000667404
-0.0296236
0.000759692
-0.0297178
0.000756708
-0.0298357
0.0006708
-0.029972
0.000532673
-0.0301227
0.000353495
-0.0302964
0.00012889
-6.95028e-05
-0.00495384
-0.00395592
-0.0100472
-0.0009653
-0.0143761
0.000756151
-0.017902
0.00159691
-0.020714
0.00192907
-0.022948
0.00198039
-0.024742
0.00187651
-0.0262103
0.00169201
-0.0274315
0.00147108
-0.0284586
0.00124304
-0.0293334
0.00102558
-0.0300857
0.000823882
-0.0307353
0.000642849
-0.0313026
0.000494765
-0.0318061
0.000392326
-0.0322561
0.000335172
-0.032654
0.000311361
-0.0329938
0.00030921
-0.0332722
0.000330286
-0.0334929
0.000389761
-0.0336659
0.00049885
-0.0338052
0.00064514
-0.0339266
0.000788838
-0.0340472
0.000880234
-0.0341792
0.000888697
-0.0343265
0.00081817
-0.0344875
0.000693665
-0.0346641
0.000530083
-0.0348679
0.00033264
0.000168078
-0.00673465
0.00277873
-0.0125816
0.00488161
-0.0171549
0.00532953
-0.0207812
0.00522313
-0.0236854
0.00483326
-0.0260143
0.00430937
-0.0278926
0.00375473
-0.0294178
0.00321729
-0.0306674
0.00272063
-0.0317086
0.00228425
-0.0325959
0.00191291
-0.0333643
0.00159226
-0.0340325
0.00131102
-0.0346157
0.00107795
-0.0351319
0.000908541
-0.0355974
0.000800692
-0.036017
0.000730973
-0.0363834
0.000675603
-0.0366877
0.00063461
-0.0369311
0.000633181
-0.0371279
0.000695657
-0.0372986
0.000815805
-0.0374616
0.000951818
-0.0376291
0.00104774
-0.0378056
0.00106518
-0.0379898
0.00100242
-0.0381815
0.000885383
-0.0383887
0.000737276
-0.0386261
0.000570015
0.000437632
-0.00779629
0.010575
-0.0143331
0.0114184
-0.0194667
0.0104631
-0.0234116
0.00916805
-0.026442
0.00786369
-0.0287917
0.00665906
-0.0306463
0.00560931
-0.0321359
0.0047069
-0.0333453
0.00393009
-0.0343483
0.00328725
-0.0352107
0.00277531
-0.0359697
0.00235123
-0.036635
0.00197627
-0.037215
0.00165803
-0.0377324
0.00142587
-0.0382111
0.00127939
-0.0386569
0.00117679
-0.0390542
0.00107295
-0.0393842
0.000964545
-0.0396458
0.000894808
-0.0398611
0.000910919
-0.0400601
0.00101488
-0.0402648
0.00115649
-0.0404821
0.00126498
-0.0407066
0.00128971
-0.040929
0.00122481
-0.0411472
0.00110359
-0.0413739
0.000964051
-0.0416292
0.000825254
0.000727345
-0.00928436
0.0198594
-0.016952
0.0190861
-0.02244
0.015951
-0.0263601
0.0130882
-0.0292591
0.0107627
-0.0314339
0.00883382
-0.0331195
0.00729494
-0.034476
0.00606342
-0.0355731
0.00502718
-0.0364781
0.00419216
-0.0372748
0.00357206
-0.0380048
0.0030812
-0.0386555
0.00262704
-0.0392179
0.00222035
-0.0397206
0.0019286
-0.040204
0.00176276
-0.0406768
0.00164964
-0.0411092
0.00150534
-0.041464
0.00131931
-0.0417354
0.00116621
-0.0419578
0.00113333
-0.042177
0.00123413
-0.04242
0.00139949
-0.0426869
0.00153189
-0.04296
0.00156274
-0.0432187
0.00148357
-0.0434581
0.00134296
-0.0436971
0.00120309
-0.043964
0.00109215
0.00103133
-0.0120093
0.0318687
-0.0211285
0.0282053
-0.0264951
0.0213176
-0.0298081
0.0164012
-0.0322498
0.0132044
-0.0340146
0.0105986
-0.0353522
0.00863254
-0.0364793
0.00719052
-0.0374054
0.00595328
-0.0381509
0.00493767
-0.03884
0.00426121
-0.0395339
0.00377504
-0.0401708
0.00326402
-0.0407005
0.00275002
-0.0411653
0.00239334
-0.0416406
0.00223808
-0.0421439
0.00215294
-0.04262
0.00198142
-0.0429986
0.00169798
-0.0432642
0.00143174
-0.0434727
0.00134191
-0.0436976
0.00145901
-0.0439738
0.00167563
-0.0442911
0.00184925
-0.0446149
0.00188655
-0.0449098
0.00177841
-0.045165
0.00159822
-0.0454082
0.00144626
-0.04568
0.00136392
0.00134278
-0.0168497
0.0487184
-0.027786
0.0391416
-0.0322813
0.0258129
-0.033781
0.0179009
-0.0354175
0.0148409
-0.0365138
0.0116949
-0.037273
0.00939174
-0.038121
0.00803859
-0.0388916
0.00672384
-0.0394102
0.0054563
-0.0399239
0.00477491
-0.0405851
0.00443619
-0.0412259
0.00390486
-0.041706
0.0032301
-0.0420936
0.00278095
-0.0425416
0.00268608
-0.0430875
0.00269886
-0.0436286
0.00252246
-0.0440354
0.00210483
-0.0442723
0.00166864
-0.0444358
0.0015054
-0.0446486
0.00167178
-0.0449565
0.00198353
-0.0453311
0.00222389
-0.0457131
0.00226851
-0.0460461
0.00211148
-0.0463106
0.00186268
-0.046546
0.00168164
-0.0468144
0.0016323
0.00165453
0.207447
0.00576031
0.207034
0.0111753
0.206432
0.0163502
0.205647
0.0213682
0.204688
0.0262942
0.20356
0.0311824
0.202271
0.0360802
0.200825
0.0410295
0.199228
0.0460673
0.197487
0.0512266
0.195606
0.0565376
0.193591
0.0620287
0.191447
0.0677272
0.18918
0.0736605
0.186795
0.0798572
0.184295
0.0863485
0.181683
0.0931702
0.178962
0.100366
0.176132
0.107988
0.173191
0.116107
0.170134
0.124814
0.166958
0.134233
0.163658
0.144535
0.160236
0.155964
0.156715
0.168872
0.153189
0.18379
0.150028
0.201511
0.148914
0.22295
0.160662
0.245582
0.25869
0.236393
0.21249
0.00595275
0.212118
0.0115481
0.211574
0.0168938
0.210868
0.0220742
0.210007
0.0271548
0.209
0.03219
0.207853
0.0372274
0.206573
0.0423089
0.205169
0.0474711
0.203649
0.0527468
0.202021
0.0581658
0.200294
0.0637558
0.198478
0.0695434
0.196583
0.0755553
0.194621
0.081819
0.192605
0.0883644
0.19055
0.0952257
0.188472
0.102443
0.186394
0.110066
0.184344
0.118157
0.182362
0.126796
0.180509
0.136085
0.178886
0.146159
0.177663
0.157187
0.177163
0.169372
0.178041
0.182911
0.181717
0.197836
0.190797
0.21387
0.206293
0.230086
0.245554
0.219429
0.217658
0.00612272
0.217329
0.0118772
0.21685
0.0173725
0.21623
0.022694
0.215478
0.0279072
0.214601
0.0330668
0.213608
0.0382198
0.21251
0.0434077
0.211314
0.0486667
0.210032
0.0540286
0.208676
0.0595222
0.207257
0.0651741
0.205791
0.0710094
0.204294
0.0770527
0.202784
0.0833291
0.201283
0.0898655
0.199817
0.0966914
0.198419
0.103841
0.197131
0.111354
0.196009
0.119279
0.195131
0.127674
0.194611
0.136606
0.194618
0.146152
0.195416
0.156388
0.197417
0.167372
0.201231
0.179098
0.207627
0.191439
0.217265
0.204232
0.229858
0.217493
0.228643
0.246769
0.222951
0.0062682
0.22267
0.0121585
0.222262
0.0177808
0.221735
0.0232204
0.221099
0.028543
0.220364
0.0338025
0.219538
0.0390456
0.218633
0.044313
0.21766
0.0496396
0.216632
0.0550562
0.215564
0.06059
0.214473
0.0662656
0.213376
0.0721059
0.212297
0.0781325
0.211259
0.0843669
0.210293
0.0908311
0.209437
0.0975481
0.208735
0.104543
0.208246
0.111843
0.208047
0.119478
0.20824
0.12748
0.208967
0.13588
0.210419
0.1447
0.21286
0.153947
0.216637
0.163595
0.222169
0.173566
0.229903
0.183705
0.240409
0.193726
0.254603
0.203299
0.210171
0.273075
0.228374
0.00638735
0.228144
0.0123886
0.227811
0.0181134
0.227385
0.0236468
0.226874
0.0290539
0.226289
0.0343878
0.22564
0.0396944
0.22494
0.045013
0.224202
0.0503772
0.223442
0.0558162
0.222677
0.061355
0.221927
0.0670158
0.221215
0.0728184
0.220566
0.0787809
0.220013
0.0849199
0.219593
0.0912515
0.21935
0.0977909
0.21934
0.104553
0.219633
0.11155
0.220317
0.118795
0.221504
0.126293
0.223339
0.134044
0.226007
0.142031
0.22974
0.150215
0.234815
0.15852
0.241561
0.166819
0.250357
0.17491
0.261646
0.182436
0.275901
0.189044
0.193649
0.292423
0.233929
0.00647848
0.233754
0.0125642
0.233501
0.0183658
0.233181
0.0239673
0.232802
0.0294329
0.232375
0.0348146
0.231913
0.040157
0.231428
0.0454979
0.230936
0.0508691
0.230454
0.0562977
0.230003
0.0618063
0.229605
0.0674142
0.229285
0.0731377
0.229075
0.0789906
0.229011
0.0849844
0.229134
0.0911283
0.229496
0.0974293
0.230157
0.103892
0.231192
0.110515
0.232692
0.117295
0.234769
0.124216
0.237559
0.131254
0.241225
0.138365
0.24596
0.14548
0.251983
0.152497
0.259536
0.159266
0.26886
0.165585
0.280134
0.171163
0.293451
0.175728
0.178767
0.308332
0.23962
0.00654011
0.239502
0.0126824
0.239334
0.0185337
0.239124
0.0241766
0.238883
0.0296737
0.238622
0.035076
0.238353
0.040426
0.238091
0.0457598
0.237853
0.0511073
0.237658
0.056493
0.237527
0.061937
0.237486
0.0674553
0.237563
0.0730605
0.237792
0.0787617
0.238211
0.0845651
0.238866
0.0904734
0.23981
0.0964854
0.241106
0.102596
0.242828
0.108793
0.245063
0.115059
0.247915
0.121364
0.251504
0.127666
0.255963
0.133906
0.261443
0.14
0.2681
0.14584
0.276082
0.151284
0.28551
0.156157
0.296428
0.160245
0.308823
0.163332
0.165152
0.322439
0.245448
0.00657095
0.24539
0.0127407
0.24531
0.0186137
0.245216
0.0242703
0.245118
0.0297716
0.245028
0.0351663
0.244958
0.0404955
0.244925
0.045793
0.244946
0.0510864
0.245041
0.0563978
0.245234
0.0617442
0.245551
0.0671383
0.246023
0.0725889
0.246684
0.0781008
0.247574
0.0836749
0.248739
0.0893077
0.250233
0.0949914
0.252117
0.100712
0.25446
0.106451
0.257342
0.112177
0.260851
0.117854
0.265088
0.12343
0.270154
0.128839
0.276158
0.133996
0.283199
0.1388
0.291357
0.143126
0.300679
0.146836
0.311153
0.149771
0.322712
0.151773
0.152711
0.335153
0.251418
0.00657001
0.251421
0.0127373
0.251432
0.0186031
0.251457
0.0242453
0.251506
0.0297225
0.251591
0.0350818
0.251724
0.0403618
0.251923
0.0455942
0.252205
0.0508041
0.252592
0.0560109
0.253108
0.0612287
0.253779
0.066467
0.254637
0.0717309
0.255717
0.077021
0.257058
0.0823336
0.258706
0.0876602
0.26071
0.0929872
0.263127
0.0982951
0.26602
0.103558
0.269457
0.108741
0.273511
0.1138
0.278258
0.118683
0.283773
0.123324
0.290125
0.127644
0.297371
0.131553
0.305545
0.134952
0.314648
0.137733
0.324634
0.139785
0.335404
0.141003
0.141328
0.346787
0.257532
0.00653652
0.257599
0.0126708
0.257702
0.0185
0.257848
0.0240991
0.258046
0.0295243
0.258308
0.0348202
0.258647
0.0400232
0.259078
0.0451625
0.259622
0.0502608
0.260298
0.0553347
0.261131
0.0603956
0.262148
0.0654498
0.26338
0.0704992
0.26486
0.0755407
0.266627
0.0805669
0.268722
0.0855653
0.271191
0.0905181
0.274084
0.095402
0.277455
0.100187
0.281358
0.104837
0.285851
0.109307
0.290989
0.113546
0.296821
0.117492
0.303387
0.121078
0.310711
0.124229
0.318796
0.126868
0.327613
0.128916
0.337098
0.130299
0.347148
0.130953
0.130856
0.35762
0.263794
0.00647003
0.263925
0.0125402
0.264121
0.0183032
0.26439
0.0238306
0.264738
0.0291759
0.265178
0.034381
0.265721
0.0394799
0.266384
0.0444994
0.267185
0.0494597
0.268145
0.0543747
0.269287
0.0592533
0.270638
0.0640991
0.272226
0.068911
0.274084
0.0736831
0.276246
0.078405
0.27875
0.0830614
0.281636
0.0876322
0.284946
0.0920919
0.288723
0.0964097
0.293011
0.100549
0.29785
0.104468
0.303277
0.108119
0.309321
0.111448
0.315997
0.114401
0.323309
0.116918
0.331236
0.11894
0.339737
0.120415
0.348741
0.121295
0.358149
0.121544
0.121162
0.367843
0.270207
0.00637034
0.270402
0.0123452
0.270692
0.0180125
0.271083
0.0234398
0.271582
0.0286775
0.272197
0.0337652
0.272943
0.0387342
0.273834
0.0436088
0.274887
0.0484066
0.276122
0.0531395
0.277561
0.0578138
0.27923
0.0624307
0.281154
0.0669869
0.283363
0.0714744
0.285887
0.0758808
0.288759
0.0801893
0.292013
0.0843784
0.295682
0.0884227
0.2998
0.0922918
0.304397
0.0959516
0.309501
0.0993638
0.315133
0.102487
0.321304
0.105277
0.328015
0.10769
0.335252
0.109681
0.342984
0.111208
0.351162
0.112238
0.359715
0.112742
0.368556
0.112703
0.112134
0.377584
0.276774
0.00623757
0.277033
0.0120861
0.277417
0.0176283
0.277929
0.0229275
0.278576
0.0280311
0.279365
0.0329758
0.280309
0.0377903
0.281421
0.0424966
0.282718
0.04711
0.284217
0.0516401
0.28594
0.0560914
0.287907
0.0604631
0.290144
0.0647503
0.292675
0.0689435
0.295526
0.0730292
0.298725
0.0769901
0.302299
0.080805
0.306272
0.0844492
0.310669
0.0878947
0.31551
0.0911105
0.320811
0.0940637
0.326578
0.0967195
0.332812
0.0990428
0.339503
0.101
0.346625
0.102558
0.354142
0.103691
0.362003
0.104377
0.370143
0.104602
0.378484
0.104363
0.103677
0.386941
0.283498
0.00607208
0.28382
0.0117638
0.284297
0.017152
0.284928
0.0222958
0.28572
0.0272395
0.286679
0.0320168
0.287815
0.036654
0.289141
0.0411706
0.290671
0.04558
0.292421
0.0498899
0.29441
0.0541029
0.296656
0.058217
0.29918
0.0622262
0.302003
0.0661202
0.305147
0.0698854
0.308633
0.0735047
0.31248
0.0769579
0.316707
0.0802224
0.321328
0.083273
0.326356
0.0860831
0.331794
0.088625
0.337643
0.090871
0.343892
0.092794
0.350522
0.0943693
0.357505
0.0955752
0.364801
0.0963949
0.37236
0.0968175
0.380123
0.0968392
0.388022
0.0964635
0.0957107
0.395988
0.290384
0.00587453
0.290768
0.0113793
0.291335
0.0165855
0.292083
0.0215478
0.293015
0.026307
0.294138
0.030894
0.295459
0.0353328
0.296989
0.0396405
0.298741
0.0438288
0.300727
0.0479036
0.302963
0.0518664
0.305466
0.0557143
0.308252
0.0594405
0.311337
0.0630348
0.314739
0.0664839
0.318472
0.0697717
0.32255
0.0728798
0.326984
0.075788
0.331782
0.0784748
0.336948
0.0809179
0.342478
0.0830949
0.348364
0.0849846
0.354591
0.086567
0.361135
0.087825
0.367965
0.0887453
0.375041
0.0893188
0.382317
0.0895419
0.389739
0.0894172
0.39725
0.0889528
0.0881699
0.404791
0.297435
0.00564577
0.297879
0.0109346
0.298533
0.0159317
0.299394
0.0206872
0.300462
0.0252386
0.301742
0.0296141
0.30324
0.0338351
0.304963
0.037917
0.306923
0.0418694
0.309129
0.0456974
0.311594
0.0494012
0.314331
0.0529775
0.317352
0.0564193
0.32067
0.0597169
0.324296
0.0628578
0.32824
0.0658274
0.332511
0.0686095
0.337112
0.0711868
0.342045
0.0735413
0.347308
0.0756551
0.352892
0.077511
0.358784
0.079093
0.364963
0.0803875
0.371405
0.0813836
0.378076
0.082074
0.384939
0.0824556
0.391951
0.0825297
0.399066
0.0823027
0.406233
0.0817855
0.0809988
0.413404
0.304654
0.00538686
0.305157
0.0104317
0.305895
0.0151936
0.306864
0.0197185
0.308062
0.0240403
0.309491
0.0281846
0.311156
0.0321706
0.313061
0.0360116
0.315215
0.0397161
0.317624
0.0432879
0.320299
0.0467267
0.323247
0.0500289
0.326479
0.0531879
0.330001
0.0561946
0.333821
0.0590377
0.337944
0.0617047
0.342372
0.0641815
0.347105
0.0664538
0.352139
0.0685071
0.357466
0.0703276
0.363075
0.0719025
0.368947
0.0732207
0.375061
0.0742733
0.381391
0.0750545
0.387903
0.0755614
0.394564
0.075795
0.401334
0.07576
0.408171
0.0754649
0.415035
0.074922
0.0741506
0.421883
0.312046
0.00509902
0.312605
0.00987292
0.313423
0.014375
0.314495
0.0186467
0.315817
0.0227187
0.317388
0.0266139
0.319209
0.0303493
0.321284
0.0339368
0.323617
0.0373833
0.326213
0.0406919
0.329077
0.043862
0.332216
0.0468902
0.335634
0.0497702
0.339334
0.052494
0.34332
0.0550518
0.347592
0.0574328
0.352148
0.0596256
0.356983
0.0616186
0.36209
0.0634006
0.367456
0.0649612
0.373067
0.0662916
0.378903
0.0673846
0.384941
0.0682352
0.391155
0.0688411
0.397513
0.0692029
0.403984
0.0693243
0.410532
0.0692118
0.417121
0.0688753
0.423716
0.0683271
0.0675853
0.430282
0.319615
0.00478357
0.320227
0.00926095
0.321122
0.0134798
0.322292
0.0174772
0.32373
0.0212806
0.325433
0.0249105
0.327401
0.0283817
0.329633
0.0317046
0.332131
0.0348851
0.334897
0.0379257
0.337934
0.0408257
0.341242
0.0435818
0.344824
0.0461885
0.348679
0.0486389
0.352806
0.0509247
0.357202
0.0530372
0.36186
0.054967
0.366773
0.0567054
0.37193
0.058244
0.377316
0.0595754
0.382913
0.060694
0.388702
0.0615956
0.394659
0.0622784
0.400758
0.0627426
0.406969
0.062991
0.413265
0.0630291
0.419612
0.0628645
0.42598
0.0625073
0.432338
0.0619696
0.0612677
0.438655
0.327365
0.00444187
0.328027
0.00859845
0.328995
0.012512
0.330257
0.0162154
0.331804
0.0197331
0.333632
0.023083
0.335736
0.0262781
0.338113
0.0293273
0.340762
0.0322356
0.343683
0.0350051
0.346874
0.0376349
0.350333
0.0401223
0.354059
0.0424626
0.358048
0.04465
0.362295
0.0466778
0.366793
0.0485389
0.371534
0.0502263
0.376506
0.0517333
0.381696
0.0530542
0.387087
0.0541841
0.392661