/*--------------------------------*- C++ -*----------------------------------*\
  =========                 |
  \\      /  F ield         | OpenFOAM: The Open Source CFD Toolbox
   \\    /   O peration     | Website:  https://openfoam.org
    \\  /    A nd           | Version:  7
     \\/     M anipulation  |
\*---------------------------------------------------------------------------*/
FoamFile
{
    version     2.0;
    format      ascii;
    class       volVectorField;
    location    "3.6";
    object      U;
}
// * * * * * * * * * * * * * * * * * * * * * * * * * * * * * * * * * * * * * //

dimensions      [0 1 -1 0 0 0 0];

internalField   nonuniform List<vector> 
2790
(
(9.94399 0.0205231 0)
(9.87572 0.0295876 0)
(9.77521 0.0359893 0)
(9.64944 0.0425559 0)
(9.50409 0.0493851 0)
(9.34007 0.0564279 0)
(9.15655 0.0638153 0)
(8.95263 0.0717109 0)
(8.72748 0.0802543 0)
(8.4801 0.0895724 0)
(8.2093 0.0997922 0)
(7.91368 0.111044 0)
(7.59172 0.123459 0)
(7.24183 0.137163 0)
(6.86238 0.152271 0)
(6.45186 0.168869 0)
(6.00895 0.186996 0)
(5.53276 0.206618 0)
(5.02306 0.22759 0)
(4.48055 0.249611 0)
(3.90726 0.272177 0)
(3.30694 0.294527 0)
(2.6854 0.315622 0)
(2.05074 0.334292 0)
(1.41191 0.350611 0)
(0.79814 0.372888 0)
(0.110853 0.32511 0)
(-0.469541 -0.114833 0)
(-0.453756 -0.297164 0)
(-0.231157 -0.423857 0)
(9.9985 0.0407029 0)
(9.98145 0.0623825 0)
(9.93575 0.0791397 0)
(9.86417 0.096624 0)
(9.77098 0.115123 0)
(9.65716 0.134487 0)
(9.52206 0.154973 0)
(9.36486 0.176941 0)
(9.18473 0.200705 0)
(8.98069 0.226546 0)
(8.75155 0.25474 0)
(8.49592 0.285556 0)
(8.21224 0.319244 0)
(7.89887 0.356017 0)
(7.5541 0.396014 0)
(7.17626 0.439257 0)
(6.76386 0.485587 0)
(6.31575 0.534582 0)
(5.83135 0.585458 0)
(5.31099 0.636951 0)
(4.75627 0.687203 0)
(4.17054 0.733648 0)
(3.55943 0.772958 0)
(2.93169 0.801102 0)
(2.30008 0.813763 0)
(1.69307 0.807273 0)
(1.10727 0.747288 0)
(0.658969 0.547975 0)
(0.186556 0.224679 0)
(-0.0081968 -0.453697 0)
(9.99559 0.0432068 0)
(9.97556 0.0752712 0)
(9.9318 0.103345 0)
(9.8649 0.13237 0)
(9.77778 0.163058 0)
(9.67155 0.195396 0)
(9.54588 0.229739 0)
(9.40014 0.266599 0)
(9.23367 0.306465 0)
(9.04565 0.3498 0)
(8.83511 0.397064 0)
(8.60084 0.448713 0)
(8.34148 0.505182 0)
(8.05555 0.566851 0)
(7.74143 0.633998 0)
(7.39751 0.706716 0)
(7.02218 0.784822 0)
(6.61404 0.867708 0)
(6.17204 0.95418 0)
(5.69575 1.04224 0)
(5.18575 1.12887 0)
(4.64409 1.20978 0)
(4.07493 1.27916 0)
(3.48551 1.32934 0)
(2.88698 1.35011 0)
(2.29959 1.32646 0)
(1.73195 1.22083 0)
(1.21634 0.973074 0)
(0.701202 0.570227 0)
(0.358073 -0.156452 0)
(9.99403 0.049499 0)
(9.97181 0.0932057 0)
(9.92788 0.133571 0)
(9.86225 0.174207 0)
(9.77694 0.216431 0)
(9.67299 0.260658 0)
(9.55032 0.307425 0)
(9.4085 0.357409 0)
(9.24703 0.411283 0)
(9.06535 0.469696 0)
(8.8627 0.533291 0)
(8.63822 0.60271 0)
(8.39088 0.678576 0)
(8.11956 0.761456 0)
(7.82305 0.851799 0)
(7.50007 0.949851 0)
(7.14932 1.05552 0)
(6.76953 1.16821 0)
(6.35959 1.28658 0)
(5.91871 1.40824 0)
(5.44665 1.52945 0)
(4.94413 1.64467 0)
(4.4133 1.74614 0)
(3.85841 1.82323 0)
(3.28595 1.86139 0)
(2.70653 1.84037 0)
(2.12576 1.72608 0)
(1.55434 1.47796 0)
(0.958003 1.08381 0)
(0.509444 0.502442 0)
(9.99331 0.0572133 0)
(9.96994 0.110958 0)
(9.92593 0.162103 0)
(9.86146 0.213346 0)
(9.77799 0.266354 0)
(9.67635 0.32191 0)
(9.55654 0.380696 0)
(9.41822 0.443481 0)
(9.26098 0.511047 0)
(9.08434 0.584158 0)
(8.88772 0.663573 0)
(8.67041 0.750045 0)
(8.43162 0.844313 0)
(8.17049 0.947058 0)
(7.88612 1.05885 0)
(7.57753 1.18004 0)
(7.24373 1.31065 0)
(6.88369 1.45014 0)
(6.49637 1.59718 0)
(6.08084 1.74929 0)
(5.63627 1.90238 0)
(5.16225 2.05029 0)
(4.65891 2.18417 0)
(4.12736 2.29175 0)
(3.56954 2.35659 0)
(2.98902 2.35738 0)
(2.38695 2.26505 0)
(1.76648 2.04776 0)
(1.09005 1.69155 0)
(0.536677 1.1543 0)
(9.99302 0.0655383 0)
(9.96923 0.128701 0)
(9.92556 0.190112 0)
(9.86253 0.251841 0)
(9.78129 0.315575 0)
(9.68244 0.382314 0)
(9.56601 0.452869 0)
(9.43172 0.528093 0)
(9.27921 0.608869 0)
(9.10807 0.69607 0)
(8.91779 0.790561 0)
(8.70776 0.893202 0)
(8.47731 1.00483 0)
(8.22571 1.12622 0)
(7.95219 1.25805 0)
(7.65594 1.40077 0)
(7.33609 1.5545 0)
(6.99171 1.71881 0)
(6.62177 1.8925 0)
(6.22511 2.07317 0)
(5.8004 2.25681 0)
(5.34617 2.43717 0)
(4.86085 2.60518 0)
(4.34285 2.74823 0)
(3.79055 2.84958 0)
(3.20272 2.88827 0)
(2.5767 2.83834 0)
(1.91357 2.67176 0)
(1.17281 2.37418 0)
(0.549997 1.8946 0)
(9.99297 0.0740745 0)
(9.96926 0.146313 0)
(9.92637 0.217482 0)
(9.86508 0.28929 0)
(9.78642 0.363352 0)
(9.69085 0.440822 0)
(9.57835 0.522654 0)
(9.44872 0.609801 0)
(9.30165 0.703243 0)
(9.13678 0.803948 0)
(8.95365 0.912879 0)
(8.75171 1.03098 0)
(8.53035 1.15919 0)
(8.2889 1.29836 0)
(8.02662 1.44925 0)
(7.74273 1.61243 0)
(7.43635 1.78813 0)
(7.10647 1.9761 0)
(6.75189 2.17534 0)
(6.37111 2.38376 0)
(5.96222 2.59768 0)
(5.52278 2.81134 0)
(5.04968 3.01613 0)
(4.53917 3.19997 0)
(3.98683 3.34672 0)
(3.38808 3.43605 0)
(2.7374 3.44344 0)
(2.03636 3.34167 0)
(1.24183 3.1138 0)
(0.56355 2.69339 0)
(9.99306 0.0825878 0)
(9.96981 0.163605 0)
(9.92807 0.244049 0)
(9.86885 0.325478 0)
(9.79313 0.409443 0)
(9.70126 0.497201 0)
(9.59323 0.589832 0)
(9.46888 0.688386 0)
(9.32796 0.793926 0)
(9.17014 0.907511 0)
(8.99503 1.03019 0)
(8.80211 1.16301 0)
(8.59083 1.30697 0)
(8.36052 1.46305 0)
(8.11047 1.6321 0)
(7.83984 1.81481 0)
(7.54766 2.0116 0)
(7.23274 2.22244 0)
(6.89359 2.44666 0)
(6.52827 2.68261 0)
(6.13422 2.92728 0)
(5.708 3.17571 0)
(5.24514 3.42032 0)
(4.73997 3.65019 0)
(4.18568 3.85027 0)
(3.57495 4.00098 0)
(2.8997 4.07805 0)
(2.16226 4.05259 0)
(1.31622 3.90196 0)
(0.583263 3.54045 0)
(9.99326 0.0909281 0)
(9.97072 0.180408 0)
(9.93046 0.269666 0)
(9.87362 0.360239 0)
(9.80118 0.453644 0)
(9.71343 0.551205 0)
(9.61038 0.654104 0)
(9.49188 0.763485 0)
(9.35776 0.88049 0)
(9.20773 1.00626 0)
(9.04145 1.14193 0)
(8.85848 1.28863 0)
(8.65828 1.44748 0)
(8.44023 1.61954 0)
(8.20359 1.80581 0)
(7.94749 2.00714 0)
(7.67083 2.22417 0)
(7.37222 2.45719 0)
(7.04987 2.70596 0)
(6.70137 2.96947 0)
(6.32348 3.24557 0)
(5.91181 3.53045 0)
(5.46055 3.81801 0)
(4.96222 4.09896 0)
(4.40764 4.35989 0)
(3.78664 4.58219 0)
(3.08779 4.74124 0)
(2.31289 4.80471 0)
(1.41077 4.74141 0)
(0.614366 4.4423 0)
(9.99352 0.0989921 0)
(9.97191 0.196579 0)
(9.9334 0.294194 0)
(9.87924 0.393415 0)
(9.8104 0.495753 0)
(9.72716 0.602584 0)
(9.62953 0.715175 0)
(9.51741 0.834751 0)
(9.39068 0.962529 0)
(9.24912 1.09973 0)
(9.09245 1.24756 0)
(8.92028 1.40726 0)
(8.73213 1.58002 0)
(8.52742 1.76705 0)
(8.30544 1.96949 0)
(8.06528 2.1884 0)
(7.80576 2.4247 0)
(7.52535 2.67907 0)
(7.22198 2.95181 0)
(6.89286 3.2427 0)
(6.53416 3.55067 0)
(6.14064 3.87339 0)
(5.70525 4.20662 0)
(5.21872 4.54333 0)
(4.66926 4.87244 0)
(4.04315 5.17705 0)
(3.32397 5.43249 0)
(2.51001 5.60226 0)
(1.54204 5.6439 0)
(0.664135 5.41851 0)
(9.99384 0.106704 0)
(9.9733 0.212 0)
(9.93679 0.317502 0)
(9.88558 0.424854 0)
(9.82063 0.535586 0)
(9.74225 0.651116 0)
(9.65044 0.77278 0)
(9.54517 0.901875 0)
(9.42637 1.03968 0)
(9.29389 1.1875 0)
(9.14751 1.3466 0)
(8.98693 1.51831 0)
(8.81174 1.70394 0)
(8.62142 1.90481 0)
(8.41532 2.12224 0)
(8.19253 2.35751 0)
(7.9519 2.61186 0)
(7.69182 2.88643 0)
(7.41011 3.18215 0)
(7.10373 3.49972 0)
(6.76847 3.83933 0)
(6.3985 4.2004 0)
(5.98577 4.58106 0)
(5.51935 4.97724 0)
(4.98469 5.38129 0)
(4.36361 5.77962 0)
(3.63226 6.14933 0)
(2.78045 6.45101 0)
(1.73369 6.62902 0)
(0.744948 6.50372 0)
(9.9942 0.114006 0)
(9.97487 0.226575 0)
(9.94055 0.339473 0)
(9.89251 0.454423 0)
(9.83173 0.572981 0)
(9.7585 0.696606 0)
(9.67288 0.826687 0)
(9.57487 0.964583 0)
(9.46447 1.11164 0)
(9.34161 1.2692 0)
(9.20614 1.43862 0)
(9.05785 1.6213 0)
(8.89642 1.81864 0)
(8.72145 2.0321 0)
(8.53236 2.26316 0)
(8.32836 2.51335 0)
(8.10836 2.78424 0)
(7.87083 3.07743 0)
(7.61365 3.39458 0)
(7.3338 3.73732 0)
(7.02703 4.10728 0)
(6.6873 4.50585 0)
(6.3061 4.93394 0)
(5.87136 5.39131 0)
(5.36613 5.87528 0)
(4.76731 6.37827 0)
(4.04117 6.8834 0)
(3.16191 7.35389 0)
(2.02511 7.72385 0)
(0.880916 7.75795 0)
(9.99459 0.120854 0)
(9.97657 0.240225 0)
(9.94461 0.360008 0)
(9.89995 0.482001 0)
(9.84355 0.607795 0)
(9.77575 0.73888 0)
(9.69661 0.876692 0)
(9.60621 1.02264 0)
(9.50462 1.1781 0)
(9.39183 1.34449 0)
(9.26779 1.52322 0)
(9.13239 1.71575 0)
(8.98545 1.92356 0)
(8.82666 2.14823 0)
(8.6556 2.3914 0)
(8.47165 2.65483 0)
(8.27391 2.94041 0)
(8.06108 3.2502 0)
(7.83128 3.58652 0)
(7.58184 3.95198 0)
(7.30887 4.34963 0)
(7.00678 4.78293 0)
(6.66741 5.25588 0)
(6.27875 5.77274 0)
(5.82284 6.33754 0)
(5.27297 6.95236 0)
(4.58512 7.61377 0)
(3.7106 8.30134 0)
(2.48875 8.95905 0)
(1.1248 9.29447 0)
(9.99501 0.127211 0)
(9.97838 0.252886 0)
(9.94891 0.379023 0)
(9.90779 0.507488 0)
(9.85597 0.639908 0)
(9.7938 0.777801 0)
(9.72141 0.922635 0)
(9.63892 1.07585 0)
(9.54645 1.23888 0)
(9.4441 1.41315 0)
(9.33192 1.60013 0)
(9.20991 1.80132 0)
(9.07801 2.01829 0)
(8.9361 2.25269 0)
(8.78393 2.5063 0)
(8.62112 2.78107 0)
(8.44705 3.07916 0)
(8.26078 3.40303 0)
(8.06094 3.75558 0)
(7.84546 4.14029 0)
(7.61135 4.56143 0)
(7.35417 5.02443 0)
(7.06731 5.53624 0)
(6.74067 6.10585 0)
(6.35831 6.74499 0)
(5.89463 7.46875 0)
(5.30154 8.29633 0)
(4.50981 9.24834 0)
(3.2698 10.3429 0)
(1.60565 11.3611 0)
(9.99545 0.133052 0)
(9.98026 0.264506 0)
(9.95339 0.396445 0)
(9.91595 0.530792 0)
(9.86887 0.669201 0)
(9.81251 0.813213 0)
(9.74706 0.964321 0)
(9.67269 1.12399 0)
(9.5896 1.29367 0)
(9.49798 1.47482 0)
(9.39798 1.66893 0)
(9.28973 1.87754 0)
(9.17332 2.10224 0)
(9.0488 2.34478 0)
(8.91617 2.60701 0)
(8.77532 2.89101 0)
(8.626 3.19914 0)
(8.46777 3.53414 0)
(8.2999 3.89934 0)
(8.12125 4.29882 0)
(7.93014 4.73781 0)
(7.724 5.22314 0)
(7.499 5.76404 0)
(7.24927 6.37335 0)
(6.96532 7.06951 0)
(6.63165 7.88038 0)
(6.21549 8.85145 0)
(5.66741 10.0658 0)
(4.69221 11.732 0)
(2.689 14.5961 0)
(0.138126 -0.142086 0)
(0.318341 -0.126947 0)
(0.504785 -0.101591 0)
(0.664759 -0.0789831 0)
(0.793821 -0.0609593 0)
(0.897499 -0.0469688 0)
(0.982095 -0.03625 0)
(1.05244 -0.0281608 0)
(1.11211 -0.0221389 0)
(1.16382 -0.0176815 0)
(1.20963 -0.0143456 0)
(1.25096 -0.0117455 0)
(1.2886 -0.00955895 0)
(1.3228 -0.00755264 0)
(1.35344 -0.00561109 0)
(1.3803 -0.00371882 0)
(1.40321 -0.00185225 0)
(1.42192 0.000167912 0)
(1.43566 0.00267213 0)
(1.44289 0.00576043 0)
(1.44239 0.00871555 0)
(1.43426 0.0106209 0)
(1.42116 0.0109051 0)
(1.40736 0.00968799 0)
(1.39587 0.00757045 0)
(1.38761 0.00509795 0)
(1.38274 0.00232871 0)
(1.38298 -0.000622091 0)
(1.38965 -0.00320481 0)
(1.40596 -0.00482038 0)
(0.111157 -0.315551 0)
(0.283937 -0.293503 0)
(0.453843 -0.241722 0)
(0.602102 -0.193849 0)
(0.725509 -0.155409 0)
(0.828784 -0.125516 0)
(0.916968 -0.102609 0)
(0.993855 -0.0853221 0)
(1.06223 -0.0724441 0)
(1.12424 -0.0628926 0)
(1.18151 -0.055711 0)
(1.23521 -0.0500572 0)
(1.28605 -0.0452141 0)
(1.33429 -0.0406537 0)
(1.37991 -0.0361231 0)
(1.42273 -0.0316408 0)
(1.46275 -0.027272 0)
(1.50021 -0.0227585 0)
(1.53525 -0.0174172 0)
(1.56725 -0.0108383 0)
(1.59433 -0.00392141 0)
(1.6152 0.00146301 0)
(1.63118 0.0041064 0)
(1.64571 0.0045153 0)
(1.66141 0.00379733 0)
(1.67881 0.0026031 0)
(1.69742 0.000768168 0)
(1.71586 -0.00211589 0)
(1.73346 -0.00567407 0)
(1.75422 -0.00798618 0)
(0.0834944 -0.489671 0)
(0.227762 -0.458425 0)
(0.358418 -0.38082 0)
(0.472468 -0.309081 0)
(0.566951 -0.251506 0)
(0.646363 -0.20655 0)
(0.714417 -0.171876 0)
(0.773831 -0.145443 0)
(0.826657 -0.125482 0)
(0.874497 -0.110443 0)
(0.918594 -0.0989652 0)
(0.959869 -0.0898349 0)
(0.998904 -0.0819895 0)
(1.03593 -0.0746134 0)
(1.07084 -0.0673025 0)
(1.10333 -0.0601436 0)
(1.13323 -0.0534386 0)
(1.16092 -0.0470354 0)
(1.18721 -0.0397341 0)
(1.21242 -0.0299505 0)
(1.23539 -0.0182325 0)
(1.25358 -0.00927698 0)
(1.26639 -0.00669437 0)
(1.27705 -0.00891729 0)
(1.28788 -0.0127917 0)
(1.29891 -0.0164227 0)
(1.30891 -0.0191102 0)
(1.31617 -0.021094 0)
(1.32001 -0.0225727 0)
(1.32129 -0.0216275 0)
(0.0578714 -0.619743 0)
(0.165678 -0.573627 0)
(0.248574 -0.473182 0)
(0.322154 -0.383508 0)
(0.380632 -0.312476 0)
(0.429284 -0.257157 0)
(0.470169 -0.214508 0)
(0.504895 -0.181924 0)
(0.534769 -0.157226 0)
(0.560837 -0.138556 0)
(0.583936 -0.124291 0)
(0.604735 -0.112971 0)
(0.623774 -0.103281 0)
(0.641381 -0.0941448 0)
(0.657547 -0.0849573 0)
(0.671805 -0.0757863 0)
(0.683241 -0.0672339 0)
(0.691807 -0.0597272 0)
(0.698806 -0.0527002 0)
(0.706996 -0.0445688 0)
(0.717249 -0.0336521 0)
(0.720615 -0.0203596 0)
(0.700802 -0.00993966 0)
(0.670437 -0.00605491 0)
(0.639964 -0.0052769 0)
(0.612221 -0.00460691 0)
(0.58971 -0.00383302 0)
(0.570396 -0.00438572 0)
(0.55569 -0.00633697 0)
(0.545497 -0.0101758 0)
(0.0318449 -0.708398 0)
(0.0963667 -0.64243 0)
(0.12535 -0.522549 0)
(0.155168 -0.421219 0)
(0.172581 -0.341732 0)
(0.185283 -0.27988 0)
(0.193207 -0.232149 0)
(0.197189 -0.195577 0)
(0.197956 -0.167747 0)
(0.196101 -0.146647 0)
(0.192093 -0.130555 0)
(0.186406 -0.117918 0)
(0.179649 -0.107278 0)
(0.172397 -0.0973318 0)
(0.165007 -0.0871648 0)
(0.157213 -0.0765284 0)
(0.146793 -0.0658625 0)
(0.132694 -0.0555996 0)
(0.111644 -0.0448672 0)
(0.0873363 -0.0311832 0)
(0.0579233 -0.0123994 0)
(0.0333963 0.00717774 0)
(0.0196028 0.0187352 0)
(0.00596413 0.019613 0)
(-0.00788029 0.0139292 0)
(-0.0214855 0.00629413 0)
(-0.0261432 -0.000199244 0)
(-0.027761 -0.00566755 0)
(-0.0290584 -0.011454 0)
(-0.0333698 -0.0205603 0)
(0.00407445 -0.748583 0)
(0.0193904 -0.65902 0)
(-0.00813826 -0.523065 0)
(-0.0251349 -0.415526 0)
(-0.052218 -0.331432 0)
(-0.079689 -0.266553 0)
(-0.109217 -0.216793 0)
(-0.139988 -0.178926 0)
(-0.171512 -0.150244 0)
(-0.203393 -0.128529 0)
(-0.235344 -0.11198 0)
(-0.267017 -0.0990426 0)
(-0.297933 -0.0883087 0)
(-0.327532 -0.0785435 0)
(-0.355277 -0.0688327 0)
(-0.380787 -0.0587451 0)
(-0.403911 -0.0483498 0)
(-0.424742 -0.0379645 0)
(-0.443489 -0.0276708 0)
(-0.459271 -0.0171291 0)
(-0.470759 -0.00622555 0)
(-0.476475 0.00389523 0)
(-0.479159 0.0121707 0)
(-0.482497 0.0155721 0)
(-0.487484 0.0132404 0)
(-0.494008 0.00813059 0)
(-0.499905 0.00289827 0)
(-0.503751 -0.00186415 0)
(-0.510594 -0.00748653 0)
(-0.517195 -0.0141152 0)
(-0.0281593 -0.73266 0)
(-0.0671015 -0.616215 0)
(-0.148146 -0.476164 0)
(-0.21579 -0.368518 0)
(-0.286644 -0.285159 0)
(-0.35455 -0.222064 0)
(-0.419163 -0.174616 0)
(-0.479637 -0.139406 0)
(-0.5354 -0.113633 0)
(-0.586177 -0.0949705 0)
(-0.63205 -0.0815112 0)
(-0.67331 -0.0716599 0)
(-0.710298 -0.0640101 0)
(-0.743298 -0.0573324 0)
(-0.772516 -0.0506984 0)
(-0.798087 -0.0436042 0)
(-0.820143 -0.0359315 0)
(-0.83887 -0.0277633 0)
(-0.854401 -0.0190861 0)
(-0.866598 -0.00968052 0)
(-0.875412 0.000223568 0)
(-0.879171 0.00929086 0)
(-0.880713 0.0154319 0)
(-0.881982 0.0174056 0)
(-0.884639 0.0150737 0)
(-0.889203 0.0102523 0)
(-0.894916 0.00506404 0)
(-0.900877 -0.000133741 0)
(-0.907952 -0.00672353 0)
(-0.9135 -0.0137622 0)
(-0.0665167 -0.657842 0)
(-0.158683 -0.522769 0)
(-0.291535 -0.383995 0)
(-0.407034 -0.280724 0)
(-0.516977 -0.204686 0)
(-0.616193 -0.150035 0)
(-0.70411 -0.111275 0)
(-0.780955 -0.084294 0)
(-0.847666 -0.0660482 0)
(-0.905435 -0.0541151 0)
(-0.955529 -0.0464999 0)
(-0.999134 -0.0416314 0)
(-1.03722 -0.0382235 0)
(-1.07055 -0.0352017 0)
(-1.09969 -0.0318148 0)
(-1.12505 -0.0277399 0)
(-1.14685 -0.0229542 0)
(-1.16525 -0.0175337 0)
(-1.18029 -0.0114148 0)
(-1.19193 -0.00444337 0)
(-1.20027 0.00312966 0)
(-1.20477 0.0105815 0)
(-1.20746 0.0162546 0)
(-1.20955 0.0185869 0)
(-1.21252 0.0172805 0)
(-1.21705 0.0135038 0)
(-1.22306 0.00878346 0)
(-1.23021 0.00348699 0)
(-1.23718 -0.00318006 0)
(-1.24214 -0.00957256 0)
(-0.111174 -0.523045 0)
(-0.258025 -0.378066 0)
(-0.441996 -0.250714 0)
(-0.598407 -0.162858 0)
(-0.738792 -0.101982 0)
(-0.859836 -0.0617381 0)
(-0.962324 -0.0366078 0)
(-1.04723 -0.0222902 0)
(-1.11682 -0.0150351 0)
(-1.17463 -0.011917 0)
(-1.22344 -0.0111735 0)
(-1.26543 -0.0116698 0)
(-1.30214 -0.0125625 0)
(-1.33464 -0.0131477 0)
(-1.36316 -0.0129325 0)
(-1.38817 -0.0116616 0)
(-1.40998 -0.00942864 0)
(-1.42866 -0.00641134 0)
(-1.44421 -0.00261749 0)
(-1.45629 0.00205982 0)
(-1.46461 0.00751508 0)
(-1.47056 0.0131527 0)
(-1.4749 0.01782 0)
(-1.47871 0.0200369 0)
(-1.48301 0.019277 0)
(-1.4884 0.0162122 0)
(-1.49516 0.011939 0)
(-1.50335 0.00685897 0)
(-1.51156 0.000806729 0)
(-1.51606 -0.00456213 0)
(-0.167298 -0.33145 0)
(-0.38117 -0.190172 0)
(-0.627757 -0.0714411 0)
(-0.820052 -0.00438303 0)
(-0.97473 0.0279963 0)
(-1.09823 0.0414215 0)
(-1.19688 0.0441448 0)
(-1.27708 0.0412734 0)
(-1.34364 0.0358678 0)
(-1.39933 0.0295622 0)
(-1.44652 0.0232475 0)
(-1.48694 0.017318 0)
(-1.52177 0.0120516 0)
(-1.55188 0.00782809 0)
(-1.57854 0.00505888 0)
(-1.60239 0.00380541 0)
(-1.62365 0.00373855 0)
(-1.64213 0.00449814 0)
(-1.65747 0.00603558 0)
(-1.66976 0.00860631 0)
(-1.67933 0.0123708 0)
(-1.68682 0.0168222 0)
(-1.69309 0.0207756 0)
(-1.699 0.022867 0)
(-1.70525 0.0224294 0)
(-1.71223 0.0198183 0)
(-1.72039 0.0158844 0)
(-1.72996 0.0110807 0)
(-1.73929 0.00555751 0)
(-1.74378 0.000986451 0)
(-0.24141 -0.0381275 0)
(-0.502711 0.108013 0)
(-0.762484 0.149192 0)
(-0.960415 0.15742 0)
(-1.12047 0.150821 0)
(-1.24905 0.136641 0)
(-1.35261 0.119536 0)
(-1.43647 0.101893 0)
(-1.50491 0.0849847 0)
(-1.56153 0.0697641 0)
(-1.60935 0.0566508 0)
(-1.65047 0.0454307 0)
(-1.68613 0.0358734 0)
(-1.71716 0.0281929 0)
(-1.7445 0.022713 0)
(-1.76904 0.0192834 0)
(-1.79125 0.0172367 0)
(-1.81093 0.0159163 0)
(-1.82759 0.0152624 0)
(-1.84104 0.0157954 0)
(-1.85175 0.0179512 0)
(-1.86068 0.0213758 0)
(-1.86887 0.0248479 0)
(-1.87706 0.0268961 0)
(-1.88557 0.0266559 0)
(-1.89454 0.0242758 0)
(-1.90441 0.0205372 0)
(-1.91557 0.0160364 0)
(-1.92621 0.0111083 0)
(-1.93152 0.00721541 0)
(-0.282736 0.339542 0)
(-0.573258 0.390927 0)
(-0.866927 0.370281 0)
(-1.0861 0.329879 0)
(-1.25618 0.28431 0)
(-1.38787 0.239851 0)
(-1.49112 0.199859 0)
(-1.57338 0.165105 0)
(-1.63977 0.135284 0)
(-1.69434 0.110527 0)
(-1.74061 0.0906336 0)
(-1.78095 0.0743643 0)
(-1.81629 0.0605505 0)
(-1.84709 0.0491956 0)
(-1.87433 0.0408755 0)
(-1.89929 0.0354216 0)
(-1.9226 0.0316535 0)
(-1.94377 0.0283597 0)
(-1.9618 0.0253846 0)
(-1.97624 0.0236803 0)
(-1.98781 0.0242211 0)
(-1.99795 0.0268465 0)
(-2.008 0.0301448 0)
(-2.01857 0.0323118 0)
(-2.02956 0.0321882 0)
(-2.04067 0.0297859 0)
(-2.05218 0.0259925 0)
(-2.06451 0.0216813 0)
(-2.07585 0.0173228 0)
(-2.08129 0.0140313 0)
(-0.334378 0.74725 0)
(-0.680396 0.73354 0)
(-1.01009 0.62159 0)
(-1.23553 0.511134 0)
(-1.40093 0.417979 0)
(-1.52436 0.339416 0)
(-1.61884 0.275534 0)
(-1.69356 0.224293 0)
(-1.75368 0.182239 0)
(-1.80287 0.148505 0)
(-1.84519 0.122791 0)
(-1.88338 0.102506 0)
(-1.91766 0.0848893 0)
(-1.9475 0.0698485 0)
(-1.97384 0.058801 0)
(-1.99865 0.0518093 0)
(-2.02295 0.0468804 0)
(-2.0458 0.0418277 0)
(-2.06525 0.0363139 0)
(-2.0804 0.032042 0)
(-2.09228 0.0309261 0)
(-2.10313 0.033076 0)
(-2.11477 0.036633 0)
(-2.12768 0.0391636 0)
(-2.14119 0.0390816 0)
(-2.15441 0.0363227 0)
(-2.16733 0.0320849 0)
(-2.18049 0.0277394 0)
(-2.19225 0.0239429 0)
(-2.19775 0.0213214 0)
(-0.435518 1.24703 0)
(-0.864786 1.13336 0)
(-1.22079 0.885229 0)
(-1.42345 0.680447 0)
(-1.56166 0.538063 0)
(-1.66285 0.425272 0)
(-1.73835 0.339785 0)
(-1.79904 0.276395 0)
(-1.84908 0.224508 0)
(-1.88974 0.182104 0)
(-1.92564 0.151569 0)
(-1.96074 0.128915 0)
(-1.99386 0.1082 0)
(-2.02223 0.0893225 0)
(-2.04657 0.0756933 0)
(-2.07038 0.0681236 0)
(-2.09562 0.0631421 0)
(-2.12055 0.0567317 0)
(-2.14159 0.0482238 0)
(-2.15689 0.0406663 0)
(-2.16809 0.0376743 0)
(-2.17876 0.0397616 0)
(-2.19155 0.0441759 0)
(-2.20675 0.0474194 0)
(-2.22289 0.0473209 0)
(-2.23826 0.0438132 0)
(-2.25239 0.0386458 0)
(-2.26601 0.0339788 0)
(-2.27789 0.0307316 0)
(-2.28338 0.0288369 0)
(-0.641522 2.16904 0)
(-1.16781 1.76275 0)
(-1.53968 1.17517 0)
(-1.66525 0.781265 0)
(-1.73852 0.619396 0)
(-1.80244 0.491414 0)
(-1.84689 0.391796 0)
(-1.88772 0.321217 0)
(-1.92699 0.258997 0)
(-1.95714 0.204907 0)
(-1.98329 0.172282 0)
(-2.01428 0.153186 0)
(-2.04691 0.132275 0)
(-2.07347 0.109235 0)
(-2.09415 0.0921464 0)
(-2.1156 0.0846981 0)
(-2.14191 0.0808137 0)
(-2.16995 0.0731663 0)
(-2.19311 0.0605717 0)
(-2.20786 0.0483908 0)
(-2.21689 0.0431795 0)
(-2.2262 0.0460178 0)
(-2.23975 0.0523799 0)
(-2.25746 0.0569957 0)
(-2.27666 0.0569368 0)
(-2.29439 0.0522501 0)
(-2.30953 0.0455348 0)
(-2.32309 0.0401743 0)
(-2.33467 0.0375277 0)
(-2.34003 0.0364782 0)
(9.9959 0.138447 0)
(9.98225 0.275241 0)
(9.9581 0.412529 0)
(9.92453 0.552277 0)
(9.88241 0.696165 0)
(9.83214 0.845743 0)
(9.77396 1.00252 0)
(9.70812 1.16797 0)
(9.63488 1.34355 0)
(9.55453 1.53073 0)
(9.46734 1.73101 0)
(9.37357 1.94592 0)
(9.27348 2.1771 0)
(9.16734 2.42629 0)
(9.0554 2.6954 0)
(8.93787 2.98657 0)
(8.81494 3.30224 0)
(8.68676 3.64532 0)
(8.55341 4.0193 0)
(8.41487 4.42857 0)
(8.27109 4.87877 0)
(8.12196 5.37736 0)
(7.96743 5.93451 0)
(7.80778 6.56458 0)
(7.64426 7.28864 0)
(7.48188 8.1393 0)
(7.33399 9.17056 0)
(7.29092 10.476 0)
(7.75169 12.2007 0)
(7.93868 14.9206 0)
(9.99638 0.143407 0)
(9.98434 0.285097 0)
(9.96305 0.427258 0)
(9.93351 0.571889 0)
(9.89655 0.720682 0)
(9.8526 0.875194 0)
(9.80194 1.03693 0)
(9.74489 1.20738 0)
(9.68179 1.38798 0)
(9.61304 1.58019 0)
(9.539 1.7855 0)
(9.46011 2.00543 0)
(9.37679 2.2416 0)
(9.28953 2.49572 0)
(9.19885 2.76969 0)
(9.10532 3.06561 0)
(9.00961 3.38592 0)
(8.91246 3.73346 0)
(8.81479 4.11168 0)
(8.71778 4.52484 0)
(8.62304 4.97835 0)
(8.53295 5.47924 0)
(8.45123 6.03684 0)
(8.38414 6.66371 0)
(8.34291 7.37707 0)
(8.34965 8.20031 0)
(8.44329 9.16354 0)
(8.67984 10.2999 0)
(9.32831 11.5538 0)
(9.82078 12.6392 0)
(9.99688 0.147845 0)
(9.9865 0.29391 0)
(9.96818 0.440411 0)
(9.94282 0.589362 0)
(9.91119 0.742459 0)
(9.87375 0.901253 0)
(9.83082 1.06724 0)
(9.78279 1.24188 0)
(9.73008 1.4266 0)
(9.67316 1.62284 0)
(9.61255 1.83202 0)
(9.54878 2.05565 0)
(9.4825 2.29526 0)
(9.41439 2.55253 0)
(9.34525 2.82924 0)
(9.276 3.1274 0)
(9.20775 3.44928 0)
(9.14182 3.7975 0)
(9.07992 4.1752 0)
(9.02425 4.58612 0)
(8.97784 5.03487 0)
(8.94497 5.52711 0)
(8.93194 6.06981 0)
(8.94828 6.67136 0)
(9.00849 7.34117 0)
(9.13472 8.08784 0)
(9.358 8.91316 0)
(9.68776 9.80587 0)
(10.2536 10.7143 0)
(10.9412 11.4279 0)
(9.9974 0.151707 0)
(9.98873 0.301573 0)
(9.97346 0.451819 0)
(9.95237 0.604464 0)
(9.92621 0.761193 0)
(9.89542 0.923542 0)
(9.86038 1.09298 0)
(9.82152 1.27094 0)
(9.77936 1.45881 0)
(9.73444 1.65797 0)
(9.68738 1.8698 0)
(9.63887 2.09571 0)
(9.58969 2.33715 0)
(9.54075 2.59568 0)
(9.4931 2.87293 0)
(9.44796 3.17072 0)
(9.40682 3.49104 0)
(9.37152 3.83615 0)
(9.34434 4.20864 0)
(9.32827 4.61146 0)
(9.32723 5.04803 0)
(9.34652 5.52216 0)
(9.3934 6.03799 0)
(9.47777 6.59945 0)
(9.61283 7.2093 0)
(9.8154 7.86715 0)
(10.1082 8.56587 0)
(10.4999 9.29072 0)
(11.0572 10.0315 0)
(11.8498 10.6751 0)
(9.99792 0.154948 0)
(9.991 0.307993 0)
(9.97883 0.461349 0)
(9.9621 0.617018 0)
(9.94148 0.776667 0)
(9.91742 0.941802 0)
(9.89035 1.11386 0)
(9.86076 1.29422 0)
(9.8292 1.48421 0)
(9.79631 1.68516 0)
(9.76281 1.89835 0)
(9.72949 2.12508 0)
(9.6973 2.3667 0)
(9.66729 2.62458 0)
(9.64072 2.90016 0)
(9.61909 3.19499 0)
(9.60416 3.5107 0)
(9.59811 3.84909 0)
(9.60365 4.21205 0)
(9.62415 4.60165 0)
(9.66393 5.01996 0)
(9.72852 5.46901 0)
(9.82499 5.95039 0)
(9.96229 6.46478 0)
(10.1515 7.0111 0)
(10.4056 7.58544 0)
(10.7419 8.17965 0)
(11.172 8.77904 0)
(11.7189 9.37202 0)
(12.4713 9.88374 0)
(9.99845 0.157522 0)
(9.9933 0.313086 0)
(9.98426 0.468873 0)
(9.97192 0.626859 0)
(9.95687 0.788677 0)
(9.93958 0.955793 0)
(9.92049 1.12959 0)
(9.90015 1.3114 0)
(9.87916 1.50247 0)
(9.85822 1.70403 0)
(9.83812 1.91728 0)
(9.81976 2.14339 0)
(9.80419 2.38353 0)
(9.7926 2.63889 0)
(9.7864 2.91067 0)
(9.78725 3.20009 0)
(9.79711 3.50839 0)
(9.81834 3.83683 0)
(9.85381 4.1866 0)
(9.90701 4.55885 0)
(9.98222 4.95445 0)
(10.0847 5.37389 0)
(10.2207 5.81688 0)
(10.3978 6.28197 0)
(10.6248 6.7659 0)
(10.9113 7.26287 0)
(11.2687 7.76366 0)
(11.7048 8.25271 0)
(12.2203 8.71333 0)
(12.8952 9.10403 0)
(9.99898 0.159393 0)
(9.9956 0.316774 0)
(9.9897 0.474279 0)
(9.98175 0.633839 0)
(9.97226 0.797043 0)
(9.96169 0.965305 0)
(9.95054 1.13995 0)
(9.93935 1.32222 0)
(9.92877 1.51331 0)
(9.91956 1.71432 0)
(9.91256 1.92633 0)
(9.90875 2.15037 0)
(9.90923 2.38744 0)
(9.91529 2.6385 0)
(9.92843 2.90449 0)
(9.95038 3.18628 0)
(9.98319 3.48469 0)
(10.0292 3.80046 0)
(10.0914 4.13413 0)
(10.173 4.48599 0)
(10.2779 4.85595 0)
(10.4109 5.24331 0)
(10.5771 5.64648 0)
(10.7825 6.06264 0)
(11.0335 6.48731 0)
(11.3366 6.9138 0)
(11.6977 7.33275 0)
(12.121 7.73076 0)
(12.6004 8.09327 0)
(13.205 8.39981 0)
(9.99951 0.160525 0)
(9.99788 0.31899 0)
(9.99509 0.477468 0)
(9.99149 0.637832 0)
(9.9875 0.801614 0)
(9.98357 0.970165 0)
(9.98021 1.14474 0)
(9.97799 1.32649 0)
(9.97758 1.51652 0)
(9.97975 1.71582 0)
(9.98541 1.92533 0)
(9.99554 2.14593 0)
(10.0113 2.37841 0)
(10.034 2.62352 0)
(10.0652 2.88191 0)
(10.1066 3.15412 0)
(10.1602 3.44059 0)
(10.2283 3.74154 0)
(10.3137 4.05695 0)
(10.4192 4.38644 0)
(10.5483 4.72915 0)
(10.7049 5.08356 0)
(10.893 5.44727 0)
(11.117 5.81677 0)
(11.3812 6.18716 0)
(11.6894 6.55186 0)
(12.0443 6.90263 0)
(12.4475 7.22914 0)
(12.8912 7.52028 0)
(13.4336 7.76475 0)
(10 0.160891 0)
(10.0001 0.31968 0)
(10.0004 0.478362 0)
(10.0011 0.638738 0)
(10.0025 0.802272 0)
(10.005 0.970244 0)
(10.0092 1.14382 0)
(10.0157 1.32409 0)
(10.0251 1.512 0)
(10.0382 1.70847 0)
(10.0559 1.91426 0)
(10.0793 2.13011 0)
(10.1094 2.35661 0)
(10.1476 2.59427 0)
(10.1953 2.8435 0)
(10.2543 3.10452 0)
(10.3263 3.3774 0)
(10.4136 3.66195 0)
(10.5185 3.95768 0)
(10.6436 4.26371 0)
(10.7917 4.57866 0)
(10.9657 4.90051 0)
(11.1688 5.22646 0)
(11.4038 5.55281 0)
(11.6733 5.8748 0)
(11.9791 6.18659 0)
(12.3222 6.48132 0)
(12.7022 6.75118 0)
(13.1115 6.98782 0)
(13.5987 7.18441 0)
(10.0005 0.160469 0)
(10.0023 0.318802 0)
(10.0056 0.4769 0)
(10.0104 0.636482 0)
(10.017 0.798934 0)
(10.0259 0.965457 0)
(10.0374 1.13713 0)
(10.0522 1.31493 0)
(10.071 1.49972 0)
(10.0944 1.69227 0)
(10.1235 1.89321 0)
(10.1592 2.1031 0)
(10.2025 2.32237 0)
(10.2548 2.5513 0)
(10.3175 2.79006 0)
(10.392 3.03859 0)
(10.4801 3.29667 0)
(10.5837 3.56377 0)
(10.7047 3.83906 0)
(10.8452 4.12132 0)
(11.0076 4.40885 0)
(11.1938 4.69939 0)
(11.4061 4.99008 0)
(11.6462 5.27733 0)
(11.9153 5.55685 0)
(12.2141 5.82368 0)
(12.5422 6.07227 0)
(12.8982 6.29677 0)
(13.2751 6.49112 0)
(13.7145 6.65118 0)
(10.001 0.159245 0)
(10.0044 0.316326 0)
(10.0106 0.473043 0)
(10.0194 0.631018 0)
(10.031 0.791554 0)
(10.0459 0.955765 0)
(10.0644 1.12464 0)
(10.0871 1.29904 0)
(10.1147 1.47973 0)
(10.1479 1.66734 0)
(10.1875 1.86239 0)
(10.2345 2.06525 0)
(10.2899 2.27619 0)
(10.3549 2.49531 0)
(10.4307 2.72254 0)
(10.5188 2.95763 0)
(10.6205 3.2001 0)
(10.7375 3.44918 0)
(10.8713 3.70381 0)
(11.0237 3.96257 0)
(11.1962 4.22363 0)
(11.3903 4.4847 0)
(11.6072 4.74302 0)
(11.848 4.99532 0)
(12.1129 5.2379 0)
(12.4018 5.46666 0)
(12.7134 5.67729 0)
(13.0459 5.86542 0)
(13.3931 6.02684 0)
(13.7916 6.15904 0)
(10.0015 0.15721 0)
(10.0065 0.312239 0)
(10.0154 0.466772 0)
(10.028 0.622329 0)
(10.0444 0.780124 0)
(10.065 0.941177 0)
(10.09 1.10638 0)
(10.1202 1.2765 0)
(10.156 1.45217 0)
(10.1981 1.63392 0)
(10.2474 1.82211 0)
(10.3047 2.017 0)
(10.3709 2.21869 0)
(10.4471 2.42712 0)
(10.5344 2.64205 0)
(10.6339 2.86304 0)
(10.7469 3.08944 0)
(10.8747 3.32034 0)
(11.0184 3.55453 0)
(11.1793 3.79053 0)
(11.3585 4.02648 0)
(11.5568 4.2602 0)
(11.775 4.48916 0)
(12.0133 4.71051 0)
(12.2714 4.92114 0)
(12.5486 5.11778 0)
(12.8434 5.29711 0)
(13.1537 5.45598 0)
(13.4743 5.59148 0)
(13.8375 5.7021 0)
(10.0019 0.154364 0)
(10.0084 0.306539 0)
(10.0199 0.45809 0)
(10.0361 0.610429 0)
(10.0571 0.764673 0)
(10.0829 0.921748 0)
(10.1141 1.08245 0)
(10.1512 1.24744 0)
(10.1945 1.41725 0)
(10.2449 1.59229 0)
(10.3029 1.7728 0)
(10.3694 1.95892 0)
(10.4451 2.15061 0)
(10.531 2.34767 0)
(10.628 2.54974 0)
(10.737 2.75626 0)
(10.8591 2.96646 0)
(10.9952 3.17934 0)
(11.1461 3.39365 0)
(11.3128 3.6079 0)
(11.4958 3.82034 0)
(11.6956 4.02896 0)
(11.9124 4.23153 0)
(12.1459 4.42563 0)
(12.3956 4.60872 0)
(12.6604 4.77823 0)
(12.9387 4.93167 0)
(13.2284 5.06678 0)
(13.5252 5.18157 0)
(13.8581 5.27521 0)
(10.0024 0.150712 0)
(10.0102 0.29924 0)
(10.0241 0.447022 0)
(10.0438 0.595357 0)
(10.0689 0.745264 0)
(10.0997 0.897576 0)
(10.1366 1.05299 0)
(10.1799 1.21207 0)
(10.2301 1.37525 0)
(10.2878 1.54282 0)
(10.3536 1.71494 0)
(10.4281 1.89162 0)
(10.5121 2.07272 0)
(10.6062 2.25795 0)
(10.7113 2.44684 0)
(10.828 2.63875 0)
(10.9571 2.83286 0)
(11.0993 3.02812 0)
(11.2553 3.22334 0)
(11.4253 3.41707 0)
(11.6098 3.60771 0)
(11.8089 3.79348 0)
(12.0223 3.97246 0)
(12.2497 4.14264 0)
(12.49 4.30199 0)
(12.7422 4.44853 0)
(13.0047 4.58041 0)
(13.2756 4.69604 0)
(13.5512 4.79408 0)
(13.8577 4.87412 0)
(10.0027 0.146266 0)
(10.0119 0.290367 0)
(10.0281 0.43361 0)
(10.0508 0.57718 0)
(10.0798 0.721995 0)
(10.1152 0.868797 0)
(10.1572 1.01819 0)
(10.2062 1.17064 0)
(10.2626 1.3265 0)
(10.3268 1.48596 0)
(10.3994 1.64908 0)
(10.4809 1.8158 0)
(10.5718 1.98588 0)
(10.6728 2.15897 0)
(10.7843 2.33454 0)
(10.907 2.51191 0)
(11.0414 2.69022 0)
(11.1879 2.86849 0)
(11.3468 3.04554 0)
(11.5184 3.22008 0)
(11.7026 3.39065 0)
(11.8992 3.55571 0)
(12.108 3.71367 0)
(12.3281 3.86287 0)
(12.5587 4.00173 0)
(12.7986 4.12873 0)
(13.0462 4.24254 0)
(13.2999 4.34203 0)
(13.5565 4.42634 0)
(13.8401 4.4953 0)
(10.0031 0.141047 0)
(10.0134 0.279959 0)
(10.0317 0.417916 0)
(10.0573 0.555987 0)
(10.0898 0.694993 0)
(10.1293 0.835584 0)
(10.1759 0.978275 0)
(10.23 1.12345 0)
(10.2918 1.27138 0)
(10.3618 1.42216 0)
(10.4402 1.5758 0)
(10.5276 1.73216 0)
(10.6243 1.89094 0)
(10.7308 2.05174 0)
(10.8474 2.21401 0)
(10.9746 2.37704 0)
(11.1127 2.54004 0)
(11.2618 2.70203 0)
(11.4221 2.86195 0)
(11.5936 3.01862 0)
(11.776 3.1708 0)
(11.9691 3.31718 0)
(12.1722 3.45642 0)
(12.3847 3.58722 0)
(12.6055 3.70833 0)
(12.8334 3.81864 0)
(13.0672 3.91716 0)
(13.3052 4.00313 0)
(13.5449 4.07602 0)
(13.8085 4.13581 0)
(10.0034 0.135075 0)
(10.0148 0.268064 0)
(10.035 0.400016 0)