/*--------------------------------*- C++ -*----------------------------------*\
  =========                 |
  \\      /  F ield         | OpenFOAM: The Open Source CFD Toolbox
   \\    /   O peration     | Website:  https://openfoam.org
    \\  /    A nd           | Version:  7
     \\/     M anipulation  |
\*---------------------------------------------------------------------------*/
FoamFile
{
    version     2.0;
    format      ascii;
    class       surfaceVectorField;
    location    "3.6";
    object      Uf;
}
// * * * * * * * * * * * * * * * * * * * * * * * * * * * * * * * * * * * * * //

dimensions      [0 1 -1 0 0 0 0];

internalField   nonuniform List<vector> 
5457
(
(9.92088 0.0251095 0)
(9.97125 0.0387457 0)
(9.82402 0.0328267 0)
(9.92859 0.048585 0)
(9.70961 0.0393119 0)
(9.85548 0.0587679 0)
(9.57544 0.0460113 0)
(9.7568 0.070593 0)
(9.42138 0.0529486 0)
(9.63753 0.0830129 0)
(9.24755 0.0601657 0)
(9.49861 0.0959358 0)
(9.05363 0.0678103 0)
(9.33931 0.109612 0)
(8.83893 0.0760336 0)
(9.15875 0.124287 0)
(8.60253 0.0849691 0)
(8.95611 0.140165 0)
(8.34328 0.0947434 0)
(8.7304 0.157431 0)
(8.05987 0.105485 0)
(8.48042 0.176267 0)
(7.75083 0.117326 0)
(8.2048 0.196853 0)
(7.4146 0.130393 0)
(7.90198 0.219357 0)
(7.04955 0.144808 0)
(7.57035 0.243918 0)
(6.65409 0.160669 0)
(7.20824 0.270627 0)
(6.22679 0.178041 0)
(6.81406 0.299495 0)
(5.76651 0.196925 0)
(6.38641 0.330408 0)
(5.27267 0.21723 0)
(5.92426 0.363078 0)
(4.74548 0.238732 0)
(5.42721 0.39697 0)
(4.18632 0.261029 0)
(4.89577 0.431232 0)
(3.5981 0.283486 0)
(4.33177 0.464615 0)
(2.98569 0.305201 0)
(3.73874 0.495423 0)
(2.35626 0.325069 0)
(3.12242 0.521513 0)
(1.71924 0.342549 0)
(2.49121 0.540561 0)
(1.08448 0.361882 0)
(1.856 0.551679 0)
(0.451963 0.348713 0)
(1.24561 0.563026 0)
(-0.145755 0.10251 0)
(0.609061 0.54492 0)
(-0.423585 -0.207088 0)
(0.0947141 0.259415 0)
(-0.402142 -0.361268 0)
(-0.1336 -0.0205066 0)
(-0.119677 -0.393873 0)
(9.99641 0.0516722 0)
(9.99705 0.0405044 0)
(9.95879 0.0708612 0)
(9.97851 0.0674541 0)
(9.89824 0.0879863 0)
(9.93377 0.0898694 0)
(9.81659 0.105984 0)
(9.86453 0.113554 0)
(9.71359 0.12492 0)
(9.77438 0.138514 0)
(9.58909 0.144852 0)
(9.66435 0.164645 0)
(9.44275 0.166088 0)
(9.53397 0.19233 0)
(9.27391 0.188965 0)
(9.3825 0.222028 0)
(9.08168 0.21378 0)
(9.2092 0.254145 0)
(8.86492 0.240812 0)
(9.01317 0.289059 0)
(8.62232 0.270332 0)
(8.79333 0.327147 0)
(8.35242 0.302601 0)
(8.54838 0.368779 0)
(8.05359 0.337851 0)
(8.27686 0.414308 0)
(7.72416 0.376255 0)
(7.97721 0.464037 0)
(7.36243 0.417894 0)
(7.64776 0.518178 0)
(6.96679 0.462699 0)
(7.28688 0.576795 0)
(6.53591 0.510377 0)
(6.89302 0.639713 0)
(6.06892 0.560324 0)
(6.4649 0.706415 0)
(5.5657 0.611512 0)
(6.00169 0.775896 0)
(5.02722 0.662377 0)
(5.50337 0.846512 0)
(4.45601 0.710703 0)
(4.97101 0.915797 0)
(3.85663 0.753538 0)
(4.40731 0.980301 0)
(3.23634 0.787199 0)
(3.81718 1.03546 0)
(2.60596 0.807509 0)
(3.2086 1.07549 0)
(1.98293 0.810479 0)
(2.59353 1.09316 0)
(1.4054 0.776922 0)
(1.99633 1.0771 0)
(0.929855 0.646441 0)
(1.41961 0.978455 0)
(0.439952 0.384395 0)
(0.937654 0.716848 0)
(0.0592193 -0.118562 0)
(0.443879 0.34359 0)
(0.174938 -0.335871 0)
(9.98903 0.0594306 0)
(9.99481 0.0458772 0)
(9.95434 0.089476 0)
(9.97368 0.0848537 0)
(9.89729 0.118031 0)
(9.92984 0.119173 0)
(9.82047 0.147897 0)
(9.86357 0.153975 0)
(9.72416 0.17942 0)
(9.77736 0.190406 0)
(9.60822 0.212773 0)
(9.67227 0.228634 0)
(9.47235 0.248389 0)
(9.5481 0.269126 0)
(9.31608 0.28677 0)
(9.40432 0.312492 0)
(9.13869 0.328392 0)
(9.24035 0.35932 0)
(8.93926 0.373715 0)
(9.0555 0.410167 0)
(8.71666 0.423197 0)
(8.84891 0.465589 0)
(8.46962 0.477284 0)
(8.61953 0.52614 0)
(8.19671 0.536385 0)
(8.36618 0.592358 0)
(7.89636 0.600826 0)
(8.08755 0.66472 0)
(7.56697 0.670792 0)
(7.78224 0.743597 0)
(7.2069 0.746236 0)
(7.44879 0.829166 0)
(6.81464 0.82676 0)
(7.08575 0.921293 0)
(6.38897 0.911461 0)
(6.69178 1.01938 0)
(5.92914 0.998737 0)
(6.26581 1.12215 0)
(5.43526 1.08607 0)
(5.80723 1.2274 0)
(4.90868 1.16981 0)
(5.3162 1.33173 0)
(4.35257 1.24489 0)
(4.79411 1.43018 0)
(3.77273 1.30455 0)
(4.24412 1.51587 0)
(3.17887 1.33985 0)
(3.67196 1.57943 0)
(2.58676 1.33815 0)
(3.08647 1.60777 0)
(2.01998 1.27301 0)
(2.50306 1.58162 0)
(1.48705 1.09547 0)
(1.92885 1.46431 0)
(0.958373 0.769243 0)
(1.38534 1.21048 0)
(0.479922 0.202546 0)
(0.829603 0.801135 0)
(0.433759 0.134183 0)
(9.98515 0.0716135 0)
(9.99367 0.0531476 0)
(9.95039 0.11363 0)
(9.97087 0.10229 0)
(9.89437 0.154132 0)
(9.92691 0.147953 0)
(9.81882 0.195572 0)
(9.86185 0.19372 0)
(9.72442 0.238809 0)
(9.77746 0.241275 0)
(9.61112 0.284321 0)
(9.67467 0.291161 0)
(9.47875 0.332716 0)
(9.55343 0.343951 0)
(9.32695 0.384668 0)
(9.41336 0.400366 0)
(9.15524 0.440839 0)
(9.25401 0.461132 0)
(8.96292 0.501873 0)
(9.07485 0.526951 0)
(8.74918 0.568415 0)
(8.87521 0.598523 0)
(8.51306 0.641096 0)
(8.65431 0.676546 0)
(8.25349 0.720511 0)
(8.41125 0.761701 0)
(7.9693 0.807167 0)
(8.14503 0.854613 0)
(7.65922 0.901411 0)
(7.85459 0.955791 0)
(7.32198 1.00332 0)
(7.5388 1.06554 0)
(6.95628 1.11254 0)
(7.19652 1.18381 0)
(6.56093 1.2281 0)
(6.82661 1.31004 0)
(6.13499 1.34814 0)
(6.42798 1.44288 0)
(5.67796 1.46957 0)
(5.99977 1.57987 0)
(5.19013 1.58775 0)
(5.54146 1.71705 0)
(4.673 1.69601 0)
(5.05319 1.84852 0)
(4.12994 1.78515 0)
(4.53611 1.96582 0)
(3.5668 1.84254 0)
(3.99288 2.05731 0)
(2.99219 1.85076 0)
(3.42775 2.10717 0)
(2.41597 1.78254 0)
(2.84777 2.09453 0)
(1.84065 1.60054 0)
(2.25635 1.98881 0)
(1.25946 1.27853 0)
(1.66041 1.75315 0)
(0.666813 0.789651 0)
(1.02403 1.36789 0)
(0.523061 0.787285 0)
(9.98337 0.0844069 0)
(9.99316 0.0612911 0)
(9.94821 0.136836 0)
(9.96958 0.119926 0)
(9.89315 0.18803 0)
(9.92575 0.176239 0)
(9.81906 0.240167 0)
(9.86199 0.232696 0)
(9.72663 0.294464 0)
(9.77964 0.291084 0)
(9.6159 0.351655 0)
(9.6794 0.35227 0)
(9.48671 0.412464 0)
(9.56128 0.416971 0)
(9.33879 0.477668 0)
(9.42497 0.486 0)
(9.17171 0.548039 0)
(9.2701 0.560194 0)
(8.98493 0.62434 0)
(9.09621 0.640373 0)
(8.7778 0.707325 0)
(8.90275 0.72735 0)
(8.54955 0.797742 0)
(8.68908 0.821935 0)
(8.29938 0.896299 0)
(8.45446 0.924915 0)
(8.02638 1.00362 0)
(8.1981 1.03702 0)
(7.72962 1.12017 0)
(7.91915 1.15888 0)
(7.40811 1.24613 0)
(7.61674 1.29088 0)
(7.06083 1.38123 0)
(7.28991 1.4331 0)
(6.68677 1.52454 0)
(6.9377 1.58506 0)
(6.28495 1.67415 0)
(6.55907 1.74545 0)
(5.85449 1.82675 0)
(6.15297 1.91184 0)
(5.39483 1.97722 0)
(5.71834 2.08012 0)
(4.90589 2.11803 0)
(5.25421 2.24406 0)
(4.3884 2.2386 0)
(4.75988 2.39459 0)
(3.84409 2.32456 0)
(4.2351 2.5192 0)
(3.27558 2.35699 0)
(3.68005 2.60127 0)
(2.68553 2.31066 0)
(3.09587 2.61976 0)
(2.0728 2.15511 0)
(2.48182 2.54741 0)
(1.42946 1.86753 0)
(1.84002 2.35385 0)
(0.742655 1.41972 0)
(1.13143 2.02468 0)
(0.543337 1.51467 0)
(9.98264 0.097497 0)
(9.99299 0.0697924 0)
(9.94744 0.159774 0)
(9.96925 0.137582 0)
(9.89354 0.221346 0)
(9.92597 0.203925 0)
(9.82134 0.284089 0)
(9.86381 0.270686 0)
(9.73134 0.349344 0)
(9.78386 0.339579 0)
(9.62367 0.418013 0)
(9.68665 0.411692 0)
(9.49819 0.49093 0)
(9.57218 0.487896 0)
(9.35465 0.568964 0)
(9.44022 0.569095 0)
(9.19269 0.652991 0)
(9.29043 0.656221 0)
(9.01184 0.74388 0)
(9.12243 0.750198 0)
(8.81152 0.842495 0)
(8.93572 0.851936 0)
(8.5911 0.949683 0)
(8.72974 0.962341 0)
(8.34987 1.06625 0)
(8.50383 1.08229 0)
(8.08709 1.19293 0)
(8.2573 1.21261 0)
(7.80196 1.33026 0)
(7.98941 1.354 0)
(7.49365 1.47855 0)
(7.69933 1.50698 0)
(7.16125 1.63764 0)
(7.38622 1.67171 0)
(6.8038 1.8067 0)
(7.04909 1.84786 0)
(6.4202 1.98392 0)
(6.68683 2.0343 0)
(6.00924 2.16609 0)
(6.29811 2.22878 0)
(5.56953 2.34807 0)
(5.88131 2.42743 0)
(5.0996 2.52218 0)
(5.43448 2.62422 0)
(4.5979 2.67756 0)
(4.95527 2.81027 0)
(4.06286 2.79951 0)
(4.44101 2.97322 0)
(3.49286 2.86916 0)
(3.88869 3.09666 0)
(2.88598 2.86301 0)
(3.2954 3.15997 0)
(2.23814 2.75405 0)
(2.65705 3.13802 0)
(1.54253 2.52119 0)
(1.97497 3.00335 0)
(0.793697 2.13152 0)
(1.20732 2.7408 0)
(0.556773 2.29205 0)
(9.9825 0.110625 0)
(9.99302 0.0783609 0)
(9.9477 0.182323 0)
(9.96954 0.155036 0)
(9.89522 0.253815 0)
(9.92722 0.230884 0)
(9.82524 0.326763 0)
(9.86697 0.307506 0)
(9.73813 0.40255 0)
(9.78978 0.386518 0)
(9.63403 0.482227 0)
(9.69605 0.469142 0)
(9.51286 0.566748 0)
(9.58579 0.556389 0)
(9.37438 0.65708 0)
(9.4588 0.64926 0)
(9.21828 0.754197 0)
(9.31481 0.748773 0)
(9.04414 0.859065 0)
(9.15346 0.855944 0)
(8.85145 0.972638 0)
(8.97434 0.971778 0)
(8.63964 1.09585 0)
(8.77691 1.09727 0)
(8.40804 1.22961 0)
(8.56059 1.23338 0)
(8.15597 1.37471 0)
(8.32471 1.38103 0)
(7.88268 1.53182 0)
(8.06855 1.54103 0)
(7.58731 1.70133 0)
(7.79129 1.71399 0)
(7.26895 1.88324 0)
(7.49201 1.90024 0)
(6.9265 2.07691 0)
(7.1696 2.09964 0)
(6.5586 2.28079 0)
(6.82274 2.31132 0)
(6.16358 2.492 0)
(6.44969 2.53342 0)
(5.73926 2.70579 0)
(6.04822 2.76258 0)
(5.28288 2.91495 0)
(5.61539 2.99341 0)
(4.791 3.10914 0)
(5.14741 3.21781 0)
(4.25948 3.27422 0)
(4.63957 3.42427 0)
(3.68357 3.39191 0)
(4.08626 3.59718 0)
(3.05822 3.43979 0)
(3.48152 3.71662 0)
(2.37789 3.39195 0)
(2.81855 3.75826 0)
(1.63802 3.22637 0)
(2.09931 3.69418 0)
(0.839191 2.90108 0)
(1.27902 3.50473 0)
(0.573406 3.11398 0)
(9.98273 0.123581 0)
(9.99316 0.086817 0)
(9.94873 0.204308 0)
(9.97027 0.172092 0)
(9.89794 0.28525 0)
(9.92926 0.256973 0)
(9.83051 0.367962 0)
(9.87123 0.342985 0)
(9.74671 0.453846 0)
(9.79715 0.431674 0)
(9.64668 0.54407 0)
(9.70735 0.524345 0)
(9.53038 0.639698 0)
(9.6018 0.622127 0)
(9.39762 0.741787 0)
(9.48038 0.726114 0)
(9.24813 0.851397 0)
(9.34286 0.837409 0)
(9.08153 0.969585 0)
(9.18894 0.957112 0)
(8.89737 1.09739 0)
(9.01824 1.08632 0)
(8.69511 1.23585 0)
(8.8303 1.2261 0)
(8.47414 1.38594 0)
(8.62455 1.37754 0)
(8.23378 1.54858 0)
(8.40038 1.54164 0)
(7.97325 1.72455 0)
(8.15703 1.71932 0)
(7.69165 1.91438 0)
(7.89367 1.91137 0)
(7.38791 2.11828 0)
(7.60924 2.11829 0)
(7.06069 2.33589 0)
(7.30248 2.34021 0)
(6.7083 2.56604 0)
(6.97173 2.57668 0)
(6.32848 2.80641 0)
(6.61482 2.82635 0)
(5.91824 3.05298 0)
(6.22885 3.08662 0)
(5.47362 3.29948 0)
(5.8099 3.3531 0)
(4.9895 3.53663 0)
(5.35284 3.61893 0)
(4.45955 3.75142 0)
(4.8511 3.87398 0)
(3.87644 3.92652 0)
(4.29666 4.10397 0)
(3.23254 4.03997 0)
(3.6808 4.28977 0)
(2.52102 4.06517 0)
(2.99375 4.40693 0)
(1.73852 3.97638 0)
(2.23758 4.42482 0)
(0.889551 3.71905 0)
(1.36349 4.3166 0)
(0.598814 3.98524 0)
(9.98321 0.136203 0)
(9.99339 0.09504 0)
(9.95032 0.225571 0)
(9.97131 0.188588 0)
(9.90151 0.315494 0)
(9.93193 0.282047 0)
(9.83694 0.4075 0)
(9.87643 0.376957 0)
(9.75684 0.503007 0)
(9.80579 0.474836 0)
(9.66135 0.603269 0)
(9.7203 0.577044 0)
(9.55046 0.709448 0)
(9.61995 0.684806 0)
(9.42403 0.822687 0)
(9.50464 0.799304 0)
(9.28184 0.944127 0)
(9.37422 0.921718 0)
(9.12356 1.07491 0)
(9.22843 1.05323 0)
(8.94879 1.21616 0)
(9.06695 1.19501 0)
(8.75705 1.36901 0)
(8.88938 1.34824 0)
(8.54777 1.53454 0)
(8.6952 1.51408 0)
(8.32026 1.71379 0)
(8.48383 1.69365 0)
(8.07372 1.90768 0)
(8.25452 1.88804 0)
(7.80717 2.11695 0)
(8.00638 2.09819 0)
(7.51938 2.34207 0)
(7.73829 2.32488 0)
(7.20875 2.58306 0)
(7.44879 2.56859 0)
(6.8732 2.83929 0)
(7.13593 2.82935 0)
(6.5099 3.10917 0)
(6.79712 3.10653 0)
(6.11504 3.38971 0)
(6.42882 3.39851 0)
(5.68351 3.67595 0)
(6.02622 3.7022 0)
(5.2086 3.96016 0)
(5.5829 4.01241 0)
(4.6819 4.23098 0)
(5.09047 4.32093 0)
(4.09345 4.47237 0)
(4.53845 4.6154 0)
(3.43268 4.66267 0)
(3.91489 4.87795 0)
(2.69029 4.77336 0)
(3.20588 5.08375 0)
(1.86197 4.77268 0)
(2.41145 5.19823 0)
(0.95425 4.59007 0)
(1.4764 5.18466 0)
(0.63925 4.91987 0)
(9.98386 0.148368 0)
(9.99368 0.102943 0)
(9.95235 0.24597 0)
(9.9726 0.204394 0)
(9.90578 0.344397 0)
(9.9351 0.305968 0)
(9.84437 0.445195 0)
(9.88241 0.409268 0)
(9.76832 0.549806 0)
(9.81552 0.515813 0)
(9.6778 0.659552 0)
(9.73471 0.627006 0)
(9.57281 0.775677 0)
(9.63998 0.74415 0)
(9.45327 0.899404 0)
(9.53129 0.868505 0)
(9.31901 1.03195 0)
(9.40852 1.00132 0)
(9.16977 1.17453 0)
(9.27151 1.14385 0)
(9.00522 1.32836 0)
(9.11998 1.29735 0)
(8.82492 1.49467 0)
(8.9536 1.46309 0)
(8.62835 1.67465 0)
(8.77193 1.64232 0)
(8.41485 1.86948 0)
(8.57442 1.8363 0)
(8.18362 2.08026 0)
(8.36038 2.04628 0)
(7.93363 2.30797 0)
(8.12891 2.27341 0)
(7.66352 2.5534 0)
(7.87883 2.51878 0)
(7.3715 2.81707 0)
(7.60859 2.78328 0)
(7.05514 3.099 0)
(7.31605 3.06756 0)
(6.71114 3.39853 0)
(6.9983 3.37183 0)
(6.33495 3.71396 0)
(6.65131 3.69564 0)
(5.92044 4.04199 0)
(6.26957 4.03753 0)
(5.45939 4.37699 0)
(5.84551 4.3944 0)
(4.94121 4.70985 0)
(5.36903 4.76064 0)
(4.35289 5.02657 0)
(4.82698 5.12672 0)
(3.67976 5.3063 0)
(4.20338 5.47712 0)
(2.90767 5.51839 0)
(3.47811 5.78763 0)
(2.0278 5.62333 0)
(2.64523 6.01979 0)
(1.04518 5.52986 0)
(1.63787 6.12434 0)
(0.704541 5.94356 0)
(9.98465 0.159981 0)
(9.99402 0.110463 0)
(9.95473 0.265381 0)
(9.97409 0.2194 0)
(9.91065 0.37182 0)
(9.93867 0.328612 0)
(9.85266 0.480882 0)
(9.88905 0.439775 0)
(9.78099 0.594042 0)
(9.82618 0.554431 0)
(9.6958 0.712675 0)
(9.75037 0.674021 0)
(9.59715 0.838099 0)
(9.66166 0.79991 0)
(9.48501 0.971603 0)
(9.56002 0.933425 0)
(9.35926 1.11447 0)
(9.44542 1.07588 0)
(9.21972 1.268 0)
(9.31775 1.22859 0)
(9.06611 1.43349 0)
(9.17683 1.39289 0)
(8.89809 1.61224 0)
(9.02239 1.57011 0)
(8.7152 1.80558 0)
(8.85408 1.76164 0)
(8.51685 2.01482 0)
(8.67144 1.96884 0)
(8.30226 2.24128 0)
(8.47384 2.19313 0)
(8.07041 2.48621 0)
(8.26045 2.43591 0)
(7.81991 2.75079 0)
(8.03013 2.6986 0)
(7.54888 3.03606 0)
(7.78133 2.98255 0)
(7.25472 3.34284 0)
(7.51188 3.28907 0)
(6.93379 3.67156 0)
(7.21877 3.61933 0)
(6.58109 4.02202 0)
(6.89775 3.97423 0)
(6.18966 4.39301 0)
(6.5429 4.35418 0)
(5.75002 4.78152 0)
(6.14593 4.75867 0)
(5.24941 5.18168 0)
(5.69536 5.18546 0)
(4.67127 5.58284 0)
(5.17541 5.62919 0)
(3.99524 5.96668 0)
(4.56546 6.07887 0)
(3.19874 6.30197 0)
(3.83671 6.51378 0)
(2.26203 6.54108 0)
(2.97118 6.89441 0)
(1.18076 6.56562 0)
(1.8794 7.15837 0)
(0.812932 7.10004 0)
(9.98553 0.170963 0)
(9.9944 0.117547 0)
(9.95738 0.283699 0)
(9.97572 0.23352 0)
(9.916 0.397635 0)
(9.94258 0.349869 0)
(9.86169 0.51441 0)
(9.89623 0.468351 0)
(9.79468 0.635532 0)
(9.83764 0.590539 0)
(9.71516 0.762424 0)
(9.76712 0.717907 0)
(9.62324 0.896459 0)
(9.68474 0.85187 0)
(9.51893 1.03899 0)
(9.59054 0.993809 0)
(9.40219 1.19136 0)
(9.48454 1.14509 0)
(9.27292 1.35492 0)
(9.36672 1.30709 0)
(9.13092 1.53105 0)
(9.23696 1.4812 0)
(8.97594 1.72115 0)
(9.09512 1.66883 0)
(8.80761 1.92664 0)
(8.94094 1.87145 0)
(8.62544 2.14901 0)
(8.77406 2.09056 0)
(8.42876 2.38975 0)
(8.59398 2.32773 0)
(8.21661 2.65041 0)
(8.4 2.58461 0)
(7.9877 2.93259 0)
(8.19113 2.86292 0)
(7.74021 3.2379 0)
(7.96595 3.16451 0)
(7.47155 3.568 0)
(7.72247 3.49137 0)
(7.17809 3.92451 0)
(7.45782 3.84565 0)
(6.8547 4.30894 0)
(7.16795 4.22966 0)
(6.49411 4.72245 0)
(6.84704 4.64589 0)
(6.08603 5.16536 0)
(6.48676 5.09677 0)
(5.61604 5.63619 0)
(6.07506 5.58428 0)
(5.06404 6.12978 0)
(5.59448 6.10894 0)
(4.40271 6.63385 0)
(5.02014 6.66754 0)
(3.59663 7.12146 0)
(4.31314 7.24866 0)
(2.60475 7.54108 0)
(3.43626 7.82055 0)
(1.39456 7.7411 0)
(2.25693 8.31568 0)
(1.00286 8.46593 0)
(9.9865 0.181253 0)
(9.9948 0.124156 0)
(9.96026 0.300832 0)
(9.97747 0.246681 0)
(9.92176 0.421733 0)
(9.94676 0.369647 0)
(9.87133 0.54565 0)
(9.90387 0.494886 0)
(9.80922 0.674121 0)
(9.84976 0.624003 0)
(9.73566 0.80861 0)
(9.78477 0.758504 0)
(9.65079 0.950536 0)
(9.70901 0.899842 0)
(9.5547 1.1013 0)
(9.62256 1.04944 0)
(9.4474 1.26229 0)
(9.52553 1.20871 0)
(9.32888 1.43493 0)
(9.41796 1.37907 0)
(9.19906 1.62064 0)
(9.29985 1.56195 0)
(9.05777 1.82089 0)
(9.17115 1.75884 0)
(8.90477 2.03724 0)
(9.03173 1.97126 0)
(8.73972 2.27127 0)
(8.88138 2.20085 0)
(8.56208 2.52469 0)
(8.71977 2.4493 0)
(8.37109 2.79933 0)
(8.54639 2.71847 0)
(8.16564 3.09715 0)
(8.36048 3.01039 0)
(7.94416 3.42037 0)
(8.16093 3.32735 0)
(7.70435 3.77143 0)
(7.94611 3.67194 0)
(7.44294 4.15318 0)
(7.71365 4.04725 0)
(7.15517 4.56887 0)
(7.46011 4.45696 0)
(6.83417 5.02223 0)
(7.18048 4.90557 0)
(6.46989 5.5174 0)
(6.86736 5.39859 0)
(6.04746 6.05851 0)
(6.50971 5.94275 0)
(5.54462 6.64862 0)
(6.09057 6.54596 0)
(4.92774 7.28702 0)
(5.5838 7.21665 0)
(4.14573 7.96166 0)
(4.94333 7.9616 0)
(3.12245 8.63412 0)
(4.11021 8.776 0)
(1.75672 9.12876 0)
(2.87928 9.62173 0)
(1.36522 10.1865 0)
(9.98753 0.1908 0)
(9.99523 0.130261 0)
(9.96332 0.316708 0)
(9.97932 0.258825 0)
(9.92785 0.444023 0)
(9.95115 0.38787 0)
(9.88147 0.57449 0)
(9.91187 0.519287 0)
(9.82448 0.709679 0)
(9.86242 0.654715 0)
(9.75711 0.851083 0)
(9.80316 0.795683 0)
(9.67956 1.00016 0)
(9.73423 0.943673 0)
(9.59199 1.15834 0)
(9.6558 1.10014 0)
(9.49448 1.32706 0)
(9.56803 1.26652 0)
(9.38712 1.50776 0)
(9.47104 1.44426 0)
(9.26992 1.70193 0)
(9.36495 1.63484 0)
(9.14285 1.9111 0)
(9.24982 1.83978 0)
(9.00583 2.13689 0)
(9.12567 2.06066 0)
(8.85866 2.38101 0)
(8.99245 2.29918 0)
(8.70103 2.64533 0)
(8.85005 2.55717 0)
(8.53243 2.9319 0)
(8.69822 2.83664 0)
(8.35209 3.24303 0)
(8.53652 3.13985 0)
(8.15884 3.58142 0)
(8.36427 3.46943 0)
(7.95093 3.95023 0)
(8.18042 3.82849 0)
(7.72584 4.35337 0)
(7.98336 4.22085 0)
(7.47981 4.7957 0)
(7.77074 4.65129 0)
(7.20729 5.28339 0)
(7.53908 5.12604 0)
(6.89989 5.82445 0)
(7.28315 5.65329 0)
(6.54466 6.42924 0)
(6.99497 6.24419 0)
(6.12086 7.11119 0)
(6.66182 6.91429 0)
(5.59376 7.88748 0)
(6.26314 7.68585 0)
(4.90181 8.77802 0)
(5.75851 8.59242 0)
(3.92793 9.80214 0)
(5.08861 9.68533 0)
(2.43412 10.8581 0)
(3.98101 11.0503 0)
(2.14732 12.5706 0)
(9.98861 0.199564 0)
(9.99567 0.135837 0)
(9.96652 0.331264 0)
(9.98124 0.269908 0)
(9.93419 0.464421 0)
(9.9557 0.404475 0)
(9.89201 0.600824 0)
(9.92016 0.541479 0)
(9.84029 0.742068 0)
(9.87551 0.682586 0)
(9.7793 0.88967 0)
(9.82214 0.829341 0)
(9.7093 1.04511 0)
(9.76026 0.983244 0)
(9.63048 1.20984 0)
(9.69007 1.14577 0)
(9.54304 1.38533 0)
(9.61182 1.31836 0)
(9.44713 1.57304 0)
(9.52573 1.5025 0)
(9.3429 1.77448 0)
(9.43201 1.69966 0)
(9.23046 1.99123 0)
(9.33086 1.9114 0)
(9.10988 2.22496 0)
(9.22246 2.13932 0)
(8.98118 2.47746 0)
(9.10696 2.38517 0)
(8.8443 2.75071 0)
(8.98448 2.65084 0)
(8.69905 3.04691 0)
(8.85507 2.93844 0)
(8.54509 3.36864 0)
(8.7187 3.25037 0)
(8.3818 3.71893 0)
(8.57521 3.58948 0)
(8.20825 4.10147 0)
(8.42427 3.95918 0)
(8.02297 4.52094 0)
(8.2653 4.36374 0)
(7.82378 4.98337 0)
(8.09741 4.80863 0)
(7.6074 5.49682 0)
(7.91924 5.30108 0)
(7.36882 6.07233 0)
(7.72881 5.85096 0)
(7.10011 6.72559 0)
(7.52328 6.47221 0)
(6.78815 7.47979 0)
(7.29841 7.18542 0)
(6.4094 8.37172 0)
(7.04878 8.02299 0)
(5.91686 9.46591 0)
(6.76423 9.04146 0)
(5.1979 10.9089 0)
(6.46391 10.3566 0)
(3.88656 13.1812 0)
(6.19321 12.3043 0)
(5.26452 16.3773 0)
(0.216512 -0.134607 0)
(0.124641 -0.21206 0)
(0.420734 -0.11442 0)
(0.301139 -0.195299 0)
(0.591934 -0.0904222 0)
(0.479314 -0.159852 0)
(0.731781 -0.0700789 0)
(0.633431 -0.127494 0)
(0.845803 -0.0540476 0)
(0.759665 -0.101495 0)
(0.939242 -0.0416734 0)
(0.863141 -0.0812085 0)
(1.01657 -0.0322537 0)
(0.949531 -0.0656198 0)
(1.08156 -0.0251858 0)
(1.02315 -0.0538465 0)
(1.13729 -0.0199369 0)
(1.08717 -0.0450815 0)
(1.18614 -0.0160335 0)
(1.14403 -0.0385845 0)
(1.22983 -0.0130611 0)
(1.19557 -0.0336949 0)
(1.26944 -0.0106653 0)
(1.24309 -0.0298282 0)
(1.30547 -0.00856778 0)
(1.28732 -0.0264896 0)
(1.33796 -0.00659346 0)
(1.32855 -0.0233225 0)
(1.36673 -0.00467626 0)
(1.36667 -0.020166 0)
(1.39162 -0.00279669 0)
(1.40152 -0.0170343 0)
(1.41249 -0.00085424 0)
(1.43298 -0.0139437 0)
(1.42884 0.00140506 0)
(1.46107 -0.0106677 0)
(1.43942 0.00419782 0)
(1.48545 -0.00674054 0)
(1.44277 0.00722033 0)
(1.50507 -0.00208408 0)
(1.43796 0.00965683 0)
(1.51836 0.00292106 0)
(1.42691 0.0107613 0)
(1.52473 0.00655571 0)
(1.41358 0.0103038 0)
(1.52617 0.00771816 0)
(1.40135 0.00864187 0)
(1.52654 0.00690944 0)
(1.39173 0.00634897 0)
(1.52864 0.00530826 0)
(1.38532 0.00372987 0)
(1.53321 0.003457 0)
(1.38292 0.000870939 0)
(1.54008 0.0012593 0)
(1.38635 -0.00189802 0)
(1.54942 -0.00176092 0)
(1.39609 -0.00400294 0)
(1.56155 -0.0048856 0)
(1.58009 -0.00686877 0)
(0.190497 -0.304659 0)
(0.0973257 -0.39864 0)
(0.375307 -0.267922 0)
(0.25585 -0.372034 0)
(0.533413 -0.218072 0)
(0.406131 -0.307479 0)
(0.665779 -0.174859 0)
(0.537285 -0.248167 0)
(0.777285 -0.140641 0)
(0.64623 -0.200751 0)
(0.872384 -0.1142 0)
(0.737574 -0.16386 0)
(0.954734 -0.0940691 0)
(0.815692 -0.135501 0)
(1.02732 -0.07896 0)
(0.883843 -0.113988 0)
(1.09254 -0.0677254 0)
(0.944446 -0.0978423 0)
(1.15226 -0.0593447 0)
(0.999369 -0.0857546 0)
(1.20786 -0.0529179 0)
(1.05005 -0.0765732 0)
(1.26025 -0.0476646 0)
(1.09754 -0.0692778 0)
(1.30989 -0.0429612 0)
(1.14248 -0.0629883 0)
(1.35687 -0.0384155 0)
(1.18511 -0.0570482 0)
(1.40108 -0.0339088 0)
(1.22537 -0.0511506 0)
(1.44248 -0.0294825 0)
(1.26303 -0.0453637 0)
(1.48127 -0.0250422 0)
(1.29799 -0.039865 0)
(1.5177 -0.0201197 0)
(1.33057 -0.0344358 0)
(1.55139 -0.014167 0)
(1.36123 -0.0282013 0)
(1.58073 -0.00742117 0)
(1.38983 -0.0203302 0)
(1.60421 -0.00126137 0)
(1.41486 -0.0113331 0)
(1.62218 0.00276891 0)
(1.43439 -0.00409911 0)
(1.6376 0.00430841 0)
(1.44879 -0.00120987 0)
(1.6532 0.0041606 0)
(1.46138 -0.00190681 0)
(1.67005 0.00320735 0)
(1.47465 -0.00399494 0)
(1.68809 0.0016966 0)
(1.48886 -0.00626008 0)
(1.70655 -0.000656628 0)
(1.50316 -0.00845679 0)
(1.7246 -0.00387372 0)
(1.51602 -0.011031 0)
(1.74253 -0.00681631 0)
(1.52674 -0.0138784 0)
(1.53776 -0.0142359 0)
(0.153235 -0.474235 0)
(0.0706829 -0.548725 0)
(0.297988 -0.420087 0)
(0.19672 -0.510462 0)
(0.41976 -0.345379 0)
(0.303496 -0.42118 0)
(0.5213 -0.280638 0)
(0.397311 -0.340738 0)
(0.606927 -0.229297 0)
(0.473792 -0.276971 0)
(0.680088 -0.18942 0)
(0.537823 -0.227445 0)
(0.743579 -0.158818 0)
(0.592293 -0.189378 0)
(0.799616 -0.135582 0)
(0.639363 -0.160417 0)
(0.849959 -0.118052 0)
(0.680713 -0.138569 0)
(0.896003 -0.104773 0)
(0.717667 -0.122123 0)
(0.938813 -0.0944546 0)
(0.751265 -0.109588 0)
(0.979113 -0.0859591 0)
(0.782302 -0.0996238 0)
(1.01727 -0.0783455 0)
(0.811339 -0.0910395 0)
(1.05328 -0.0710016 0)
(0.838655 -0.0828985 0)
(1.08692 -0.0637658 0)
(0.864192 -0.0747272 0)
(1.11803 -0.0568312 0)
(0.887566 -0.066658 0)
(1.14691 -0.0502753 0)
(0.908237 -0.059159 0)
(1.17422 -0.0434283 0)
(0.926365 -0.0522567 0)
(1.20023 -0.0349007 0)
(0.943006 -0.044767 0)
(1.22394 -0.0241615 0)
(0.959708 -0.0350756 0)
(1.24364 -0.0138082 0)
(0.97632 -0.0232977 0)
(1.25854 -0.0080011 0)
(0.987097 -0.0129305 0)
(1.2707 -0.00779254 0)
(0.983597 -0.00825384 0)
(1.2821 -0.0108314 0)
(0.973745 -0.00834846 0)
(1.29345 -0.0145855 0)
(0.963924 -0.0102575 0)
(1.30403 -0.0177504 0)
(0.955566 -0.0119623 0)
(1.31244 -0.0200902 0)
(0.949312 -0.0128816 0)
(1.31777 -0.0218245 0)
(0.943282 -0.0137685 0)
(1.32019 -0.0221058 0)
(0.937852 -0.015092 0)
(0.933394 -0.0162992 0)
(0.113305 -0.59696 0)
(0.0448582 -0.6597 0)
(0.21121 -0.524005 0)
(0.131022 -0.604089 0)
(0.28908 -0.428881 0)
(0.186962 -0.493889 0)
(0.352672 -0.348416 0)
(0.238661 -0.398712 0)
(0.405436 -0.285147 0)
(0.276607 -0.323938 0)
(0.449648 -0.236087 0)
(0.307283 -0.26587 0)
(0.487137 -0.198411 0)
(0.331688 -0.221191 0)
(0.519304 -0.169723 0)
(0.351042 -0.187069 0)
(0.547265 -0.148002 0)
(0.366362 -0.161188 0)
(0.571929 -0.131508 0)
(0.378469 -0.141605 0)
(0.594036 -0.118698 0)
(0.388015 -0.126637 0)
(0.614158 -0.108184 0)
(0.39557 -0.114775 0)
(0.632653 -0.0987672 0)
(0.401711 -0.104638 0)
(0.649576 -0.0896059 0)
(0.406889 -0.0950464 0)
(0.664628 -0.0804266 0)
(0.411277 -0.0852774 0)
(0.677293 -0.0715612 0)
(0.414509 -0.0753249 0)
(0.687407 -0.0635254 0)
(0.415017 -0.065917 0)
(0.69587 -0.0562557 0)
(0.412251 -0.0577778 0)
(0.704177 -0.0486831 0)
(0.405225 -0.0500582 0)
(0.712672 -0.0391757 0)
(0.397166 -0.0403591 0)
(0.716871 -0.0270853 0)
(0.387586 -0.0258476 0)
(0.707799 -0.0152119 0)
(0.377006 -0.00755173 0)
(0.684152 -0.00802049 0)
(0.360202 0.00543546 0)
(0.654958 -0.00567055 0)
(0.338201 0.00815301 0)
(0.626588 -0.00494591 0)
(0.316042 0.00539946 0)
(0.601658 -0.00422459 0)
(0.295368 0.00147149 0)
(0.5799 -0.00410607 0)
(0.281783 -0.00143433 0)
(0.562232 -0.00534969 0)
(0.271317 -0.00469276 0)
(0.550693 -0.00823347 0)
(0.263316 -0.00930418 0)
(0.256064 -0.0162996 0)
(0.0678157 -0.675808 0)
(0.0179597 -0.726121 0)
(0.113796 -0.583206 0)
(0.0578785 -0.648061 0)
(0.143909 -0.47249 0)
(0.0586061 -0.522006 0)
(0.165041 -0.381951 0)
(0.0650166 -0.417978 0)
(0.17983 -0.311176 0)
(0.0601815 -0.337102 0)
(0.189475 -0.256299 0)
(0.052797 -0.274253 0)
(0.19497 -0.214081 0)
(0.0419951 -0.225854 0)
(0.197097 -0.181828 0)
(0.0286004 -0.188831 0)
(0.196491 -0.157323 0)
(0.0132221 -0.160698 0)
(0.193674 -0.138697 0)
(-0.00364598 -0.139379 0)
(0.189109 -0.124312 0)
(-0.0216254 -0.123117 0)
(0.183237 -0.112661 0)
(-0.0403056 -0.110354 0)
(0.176471 -0.102364 0)
(-0.059142 -0.0996631 0)
(0.169132 -0.0923091 0)
(-0.0775674 -0.0897779 0)
(0.16124 -0.0819101 0)
(-0.095135 -0.0797463 0)
(0.152166 -0.0712592 0)
(-0.111787 -0.0691154 0)
(0.140307 -0.0607924 0)
(-0.128559 -0.0579932 0)
(0.123456 -0.0502975 0)
(-0.146024 -0.0467843 0)
(0.100793 -0.038107 0)
(-0.165922 -0.0356221 0)
(0.073371 -0.0219035 0)
(-0.185967 -0.023304 0)
(0.045689 -0.00272783 0)
(-0.206418 -0.00903756 0)
(0.0253494 0.0128874 0)
(-0.221539 0.00450787 0)
(0.0118223 0.0191689 0)
(-0.229778 0.0132664 0)
(-0.00151138 0.0168051 0)
(-0.238267 0.0156897 0)
(-0.0139096 0.0101573 0)
(-0.247682 0.0122418 0)
(-0.022866 0.00308624 0)
(-0.257747 0.00629768 0)
(-0.0274862 -0.00290072 0)
(-0.263024 0.000996437 0)
(-0.0292905 -0.00852622 0)
(-0.265756 -0.00376587 0)
(-0.0300133 -0.0159527 0)
(-0.269826 -0.00894165 0)
(-0.275282 -0.0159953 0)
(0.0151834 -0.704337 0)
(-0.0120424 -0.740992 0)
(0.00625257 -0.591855 0)
(-0.0238556 -0.63952 0)
(-0.0142388 -0.469938 0)
(-0.078142 -0.502873 0)
(-0.0375464 -0.373981 0)
(-0.120462 -0.396729 0)
(-0.0646499 -0.29938 0)
(-0.169431 -0.312976 0)
(-0.0939294 -0.24197 0)
(-0.217119 -0.248806 0)
(-0.124615 -0.198086 0)
(-0.26419 -0.199814 0)
(-0.156052 -0.164756 0)
(-0.309813 -0.162784 0)
(-0.187816 -0.139516 0)
(-0.353456 -0.135003 0)
(-0.219618 -0.120354 0)
(-0.394785 -0.11426 0)
(-0.251193 -0.105589 0)
(-0.433697 -0.098766 0)
(-0.282218 -0.0937398 0)
(-0.470164 -0.0869919 0)
(-0.312297 -0.0834845 0)
(-0.504115 -0.0775483 0)
(-0.340969 -0.0737461 0)
(-0.535415 -0.0691957 0)
(-0.367731 -0.0638492 0)
(-0.563897 -0.0609893 0)
(-0.392114 -0.0536096 0)
(-0.589437 -0.0524288 0)
(-0.413899 -0.0432192 0)
(-0.612027 -0.0434366 0)
(-0.433276 -0.0328791 0)
(-0.631806 -0.0341428 0)
(-0.450667 -0.0224629 0)
(-0.648945 -0.0245445 0)
(-0.465304 -0.0117425 0)
(-0.662934 -0.0142009 0)
(-0.475152 -0.00122564 0)
(-0.673086 -0.00305677 0)
(-0.480119 0.0079835 0)
(-0.677823 0.00745238 0)
(-0.482941 0.013851 0)
(-0.679936 0.0149004 0)
(-0.485844 0.0144202 0)
(-0.682239 0.0173302 0)
(-0.49039 0.010716 0)
(-0.686061 0.014751 0)
(-0.496311 0.0055457 0)
(-0.691606 0.00948824 0)
(-0.50204 0.000545516 0)
(-0.69741 0.00401053 0)
(-0.507194 -0.00464175 0)
(-0.702314 -0.00111838 0)
(-0.510637 -0.0107613 0)
(-0.709273 -0.00721469 0)
(-0.715347 -0.0146428 0)
(-0.0411586 -0.675133 0)
(-0.047338 -0.70068 0)
(-0.107098 -0.547026 0)
(-0.112892 -0.576462 0)
(-0.17742 -0.422984 0)
(-0.219841 -0.437212 0)
(-0.24923 -0.327337 0)
(-0.311412 -0.331261 0)
(-0.319281 -0.253988 0)
(-0.401811 -0.250621 0)
(-0.386281 -0.198623 0)
(-0.485371 -0.190576 0)
(-0.449231 -0.157222 0)
(-0.561636 -0.146395 0)
(-0.507538 -0.126674 0)
(-0.630296 -0.114475 0)
(-0.560854 -0.104413 0)
(-0.691533 -0.0918712 0)
(-0.609136 -0.0883212 0)
(-0.745806 -0.0761233 0)
(-0.652606 -0.0766444 0)
(-0.79379 -0.0652421 0)
(-0.691614 -0.0678807 0)
(-0.836222 -0.0576184 0)
(-0.726522 -0.0607112 0)
(-0.87376 -0.0518837 0)
(-0.757619 -0.0540551 0)
(-0.906926 -0.0468727 0)
(-0.785072 -0.0471937 0)
(-0.936105 -0.0417477 0)
(-0.808941 -0.0398137 0)
(-0.961567 -0.0360945 0)
(-0.829279 -0.0318962 0)
(-0.983497 -0.0298471 0)
(-0.846243 -0.0234766 0)
(-1.00206 -0.0230756 0)
(-0.860122 -0.0144395 0)
(-1.01735 -0.0157035 0)
(-0.870906 -0.00478766 0)
(-1.02926 -0.00749419 0)
(-0.878062 0.00470304 0)
(-1.03784 0.00128867 0)
(-0.881341 0.0123247 0)
(-1.04197 0.0093968 0)
(-0.882585 0.0164069 0)
(-1.04408 0.0156201 0)
(-0.883866 0.0162536 0)
(-1.04576 0.0180545 0)
(-0.886843 0.0126918 0)
(-1.04858 0.0163942 0)
(-0.891772 0.00768918 0)
(-1.05313 0.0121438 0)
(-0.897797 0.00249621 0)
(-1.05899 0.00718064 0)
(-0.903668 -0.00338926 0)
(-1.06554 0.00189741 0)
(-0.908925 -0.0102008 0)
(-1.07257 -0.00457777 0)
(-1.07782 -0.0114749 0)
(-0.101884 -0.591113 0)
(-0.0888453 -0.60089 0)
(-0.22334 -0.454212 0)
(-0.208354 -0.460313 0)
(-0.34445 -0.332977 0)
(-0.366766 -0.324129 0)
(-0.459758 -0.243159 0)
(-0.502721 -0.226139 0)
(-0.565321 -0.177687 0)
(-0.627884 -0.156656 0)
(-0.659579 -0.130887 0)
(-0.738014 -0.108655 0)
(-0.74233 -0.0979458 0)
(-0.833217 -0.0761741 0)
(-0.814285 -0.0752801 0)
(-0.914094 -0.0548571 0)
(-0.87657 -0.060153 0)
(-0.982244 -0.041485 0)
(-0.930468 -0.050353 0)
(-1.04003 -0.0335503 0)
(-0.977256 -0.0440947 0)
(-1.08949 -0.0291587 0)
(-1.01804 -0.0399478 0)
(-1.13228 -0.0269066 0)
(-1.0537 -0.0367307 0)
(-1.16968 -0.0256663 0)
(-1.08491 -0.0335285 0)
(-1.2026 -0.0244685 0)
(-1.11217 -0.0298017 0)
(-1.23143 -0.0226412 0)
(-1.13577 -0.0253757 0)
(-1.25661 -0.0199444 0)
(-1.15586 -0.0202764 0)
(-1.27842 -0.0164241 0)
(-1.17255 -0.0145108 0)
(-1.29695 -0.0121894 0)
(-1.18595 -0.00797073 0)
(-1.31225 -0.00716839 0)
(-1.19609 -0.000702104 0)
(-1.32411 -0.00118294 0)
(-1.20289 0.00681104 0)
(-1.33244 0.0054138 0)
(-1.20697 0.0133841 0)
(-1.33766 0.0118147 0)
(-1.20929 0.0174068 0)
(-1.34118 0.0169687 0)
(-1.21146 0.0179415 0)
(-1.34413 0.0192756 0)
(-1.21488 0.0154147 0)
(-1.34776 0.0182828 0)
(-1.21999 0.0111718 0)
(-1.35273 0.0148966 0)
(-1.22616 0.00616688 0)
(-1.35911 0.0104277 0)
(-1.2326 0.000193301 0)
(-1.36678 0.00520832 0)
(-1.23949 -0.00633811 0)
(-1.37437 -0.00112413 0)
(-1.3791 -0.00690777 0)
(-0.168017 -0.451422 0)
(-0.139236 -0.436328 0)
(-0.346427 -0.315151 0)
(-0.319598 -0.289699 0)
(-0.514928 -0.207311 0)