/*--------------------------------*- C++ -*----------------------------------*\
  =========                 |
  \\      /  F ield         | OpenFOAM: The Open Source CFD Toolbox
   \\    /   O peration     | Website:  https://openfoam.org
    \\  /    A nd           | Version:  7
     \\/     M anipulation  |
\*---------------------------------------------------------------------------*/
FoamFile
{
    version     2.0;
    format      ascii;
    class       surfaceScalarField;
    location    "0.08";
    object      phi;
}
// * * * * * * * * * * * * * * * * * * * * * * * * * * * * * * * * * * * * * //

dimensions      [1 0 -1 0 0 0 0];

internalField   nonuniform List<scalar> 
23692
(
1.15551e-05
7.99305e-08
1.14984e-05
5.67704e-08
1.14808e-05
1.76504e-08
1.14749e-05
5.97862e-09
1.14663e-05
8.66661e-09
1.14533e-05
1.30784e-08
1.14373e-05
1.60335e-08
1.14197e-05
1.76485e-08
1.14012e-05
1.85118e-08
1.13823e-05
1.89569e-08
1.13632e-05
1.92015e-08
1.13439e-05
1.9324e-08
1.13246e-05
1.93872e-08
1.13052e-05
1.94015e-08
1.12859e-05
1.93938e-08
1.12666e-05
1.93735e-08
1.12473e-05
1.9347e-08
1.1228e-05
1.93195e-08
1.12087e-05
1.93045e-08
1.11895e-05
1.92948e-08
1.11702e-05
1.93051e-08
1.11509e-05
1.93307e-08
1.11316e-05
1.93815e-08
1.11122e-05
1.94534e-08
1.10927e-05
1.95432e-08
1.10731e-05
1.96538e-08
1.10533e-05
1.97755e-08
1.10334e-05
1.99118e-08
1.10134e-05
2.00496e-08
1.09933e-05
2.0191e-08
1.0973e-05
2.03319e-08
1.09526e-05
2.04624e-08
1.0932e-05
2.05895e-08
1.09113e-05
2.07078e-08
1.08905e-05
2.08076e-08
1.08697e-05
2.08934e-08
1.08487e-05
2.09677e-08
1.08278e-05
2.10275e-08
1.08067e-05
2.10727e-08
1.07856e-05
2.11025e-08
1.07645e-05
2.11164e-08
1.07435e-05
2.11141e-08
1.07224e-05
2.10954e-08
1.07014e-05
2.10616e-08
1.06804e-05
2.10143e-08
1.06594e-05
2.09563e-08
1.06386e-05
2.08882e-08
1.06178e-05
2.08096e-08
1.05971e-05
2.07226e-08
1.05765e-05
2.06308e-08
1.0556e-05
2.05378e-08
1.05356e-05
2.04472e-08
1.05152e-05
2.03622e-08
1.04949e-05
2.02868e-08
1.04747e-05
2.0226e-08
1.04546e-05
2.01867e-08
1.04344e-05
2.01779e-08
1.04142e-05
2.02096e-08
1.0394e-05
2.02952e-08
1.03735e-05
2.04528e-08
1.03528e-05
2.07062e-08
1.03318e-05
2.10855e-08
1.03102e-05
2.163e-08
1.02878e-05
2.23924e-08
1.02644e-05
2.34438e-08
1.02395e-05
2.48818e-08
1.02127e-05
2.68415e-08
1.01832e-05
2.95134e-08
1.015e-05
3.31687e-08
1.01118e-05
3.82046e-08
1.00666e-05
4.5213e-08
1.00115e-05
5.51001e-08
9.94228e-06
6.9288e-08
9.85222e-06
9.00696e-08
9.731e-06
1.21239e-07
9.56182e-06
1.69192e-07
9.31701e-06
2.44817e-07
8.95033e-06
3.66698e-07
8.38267e-06
5.67673e-07
7.47358e-06
9.09109e-07
1.5525e-06
5.92109e-06
1.23692e-05
1.60685e-07
1.23094e-05
1.16677e-07
1.22892e-05
3.79425e-08
1.22815e-05
1.37073e-08
1.22716e-05
1.86843e-08
1.22573e-05
2.73845e-08
1.22401e-05
3.32775e-08
1.22213e-05
3.65233e-08
1.22016e-05
3.82646e-08
1.21815e-05
3.91666e-08
1.21611e-05
3.96623e-08
1.21406e-05
3.99112e-08
1.212e-05
4.00379e-08
1.20993e-05
4.00669e-08
1.20787e-05
4.00518e-08
1.20582e-05
4.00095e-08
1.20376e-05
3.99561e-08
1.20171e-05
3.9902e-08
1.19965e-05
3.98712e-08
1.1976e-05
3.98538e-08
1.19555e-05
3.98763e-08
1.1935e-05
3.99313e-08
1.19143e-05
4.0037e-08
1.18937e-05
4.01857e-08
1.18729e-05
4.03722e-08
1.1852e-05
4.05993e-08
1.18309e-05
4.08506e-08
1.18098e-05
4.11301e-08
1.17884e-05
4.14128e-08
1.1767e-05
4.17032e-08
1.17453e-05
4.19908e-08
1.17236e-05
4.22586e-08
1.17017e-05
4.25186e-08
1.16797e-05
4.27592e-08
1.16576e-05
4.29626e-08
1.16353e-05
4.31368e-08
1.16131e-05
4.3286e-08
1.15907e-05
4.34053e-08
1.15683e-05
4.34943e-08
1.15459e-05
4.3551e-08
1.15235e-05
4.35735e-08
1.15011e-05
4.35633e-08
1.14787e-05
4.35189e-08
1.14563e-05
4.34425e-08
1.1434e-05
4.3338e-08
1.14118e-05
4.32101e-08
1.13896e-05
4.30606e-08
1.13676e-05
4.28894e-08
1.13456e-05
4.26996e-08
1.13238e-05
4.24985e-08
1.13021e-05
4.22941e-08
1.12804e-05
4.20933e-08
1.12589e-05
4.19026e-08
1.12375e-05
4.17297e-08
1.12162e-05
4.15849e-08
1.11949e-05
4.14823e-08
1.11737e-05
4.14394e-08
1.11524e-05
4.14767e-08
1.11311e-05
4.16208e-08
1.11097e-05
4.1908e-08
1.1088e-05
4.23857e-08
1.1066e-05
4.31137e-08
1.10435e-05
4.41697e-08
1.10202e-05
4.56579e-08
1.0996e-05
4.77164e-08
1.09704e-05
5.05345e-08
1.09428e-05
5.4373e-08
1.09128e-05
5.95932e-08
1.08793e-05
6.6704e-08
1.08411e-05
7.64349e-08
1.07964e-05
8.98502e-08
1.0743e-05
1.08535e-07
1.06774e-05
1.34896e-07
1.05949e-05
1.72656e-07
1.04884e-05
2.27663e-07
1.03485e-05
3.09167e-07
1.01617e-05
4.31624e-07
9.91161e-06
6.16793e-07
9.58367e-06
8.95635e-07
9.19228e-06
1.30051e-06
1.79537e-06
8.94942e-06
1.3246e-05
2.36711e-07
1.31845e-05
1.7832e-07
1.31597e-05
6.27476e-08
1.31485e-05
2.50524e-08
1.31362e-05
3.10422e-08
1.31203e-05
4.33051e-08
1.31018e-05
5.18667e-08
1.30817e-05
5.66503e-08
1.30608e-05
5.92387e-08
1.30395e-05
6.05863e-08
1.30179e-05
6.13305e-08
1.29961e-05
6.17027e-08
1.29743e-05
6.18908e-08
1.29525e-05
6.19354e-08
1.29307e-05
6.19132e-08
1.29089e-05
6.185e-08
1.28872e-05
6.17743e-08
1.28654e-05
6.16975e-08
1.28437e-05
6.16581e-08
1.2822e-05
6.16393e-08
1.28002e-05
6.16815e-08
1.27784e-05
6.17755e-08
1.27566e-05
6.19424e-08
1.27346e-05
6.21768e-08
1.27126e-05
6.24677e-08
1.26904e-05
6.28202e-08
1.26681e-05
6.32071e-08
1.26456e-05
6.36349e-08
1.2623e-05
6.40712e-08
1.26002e-05
6.45141e-08
1.25773e-05
6.49521e-08
1.25542e-05
6.53613e-08
1.2531e-05
6.57548e-08
1.25077e-05
6.61177e-08
1.24843e-05
6.64258e-08
1.24608e-05
6.66871e-08
1.24372e-05
6.69085e-08
1.24136e-05
6.70832e-08
1.23899e-05
6.7209e-08
1.23662e-05
6.72838e-08
1.23425e-05
6.73065e-08
1.23188e-05
6.72765e-08
1.22952e-05
6.71932e-08
1.22716e-05
6.70597e-08
1.22481e-05
6.6881e-08
1.22246e-05
6.66641e-08
1.22013e-05
6.64115e-08
1.21781e-05
6.61236e-08
1.2155e-05
6.58057e-08
1.21321e-05
6.54678e-08
1.21093e-05
6.51211e-08
1.20866e-05
6.4776e-08
1.20641e-05
6.44424e-08
1.20417e-05
6.41315e-08
1.20195e-05
6.38589e-08
1.19973e-05
6.36453e-08
1.19753e-05
6.35156e-08
1.19533e-05
6.35004e-08
1.19313e-05
6.3639e-08
1.19092e-05
6.39852e-08
1.1887e-05
6.46079e-08
1.18646e-05
6.55934e-08
1.18417e-05
6.70521e-08
1.18183e-05
6.9136e-08
1.1794e-05
7.20371e-08
1.17685e-05
7.60216e-08
1.17414e-05
8.14494e-08
1.17122e-05
8.88092e-08
1.16802e-05
9.87725e-08
1.16444e-05
1.12283e-07
1.16036e-05
1.30662e-07
1.15563e-05
1.55801e-07
1.15008e-05
1.90439e-07
1.14349e-05
2.38552e-07
1.13567e-05
3.05923e-07
1.1265e-05
4.00869e-07
1.11617e-05
5.34883e-07
1.10562e-05
7.22358e-07
1.09747e-05
9.77111e-07
1.09795e-05
1.29575e-06
1.6051e-06
1.11698e-05
1.41887e-05
3.03234e-07
1.41269e-05
2.40146e-07
1.40964e-05
9.33685e-08
1.40799e-05
4.16197e-08
1.40644e-05
4.65858e-08
1.40466e-05
6.12488e-08
1.40266e-05
7.19425e-08
1.40052e-05
7.80581e-08
1.39831e-05
8.14069e-08
1.39606e-05
8.31649e-08
1.39379e-05
8.41406e-08
1.3915e-05
8.46268e-08
1.38921e-05
8.48692e-08
1.38692e-05
8.49307e-08
1.38462e-05
8.49042e-08
1.38233e-05
8.48245e-08
1.38004e-05
8.47363e-08
1.37775e-05
8.46486e-08
1.37546e-05
8.46119e-08
1.37317e-05
8.46052e-08
1.37088e-05
8.46815e-08
1.36858e-05
8.48298e-08
1.36627e-05
8.50696e-08
1.36395e-05
8.54019e-08
1.36162e-05
8.58091e-08
1.35928e-05
8.62957e-08
1.35692e-05
8.68255e-08
1.35455e-05
8.74071e-08
1.35216e-05
8.8003e-08
1.34976e-05
8.86007e-08
1.34734e-05
8.91902e-08
1.3449e-05
8.97428e-08
1.34246e-05
9.02665e-08
1.34e-05
9.07483e-08
1.33753e-05
9.11592e-08
1.33505e-05
9.15035e-08
1.33257e-05
9.17898e-08
1.33008e-05
9.20111e-08
1.32759e-05
9.21625e-08
1.32509e-05
9.22431e-08
1.3226e-05
9.22512e-08
1.32011e-05
9.21854e-08
1.31763e-05
9.20449e-08
1.31516e-05
9.18334e-08
1.31269e-05
9.1558e-08
1.31024e-05
9.12254e-08
1.3078e-05
9.08397e-08
1.30538e-05
9.0403e-08
1.30297e-05
8.99217e-08
1.30058e-05
8.94078e-08
1.2982e-05
8.88754e-08
1.29585e-05
8.83371e-08
1.29352e-05
8.78059e-08
1.2912e-05
8.7297e-08
1.28891e-05
8.68302e-08
1.28663e-05
8.64312e-08
1.28437e-05
8.61313e-08
1.28213e-05
8.59694e-08
1.2799e-05
8.59969e-08
1.27767e-05
8.62813e-08
1.27544e-05
8.69092e-08
1.2732e-05
8.79913e-08
1.27095e-05
8.96536e-08
1.26865e-05
9.20901e-08
1.26631e-05
9.55296e-08
1.26388e-05
1.00285e-07
1.26135e-05
1.06775e-07
1.25868e-05
1.15555e-07
1.25582e-05
1.27353e-07
1.25274e-05
1.43172e-07
1.24937e-05
1.64346e-07
1.24568e-05
1.92683e-07
1.24167e-05
2.30633e-07
1.23737e-05
2.81473e-07
1.23302e-05
3.49495e-07
1.2291e-05
4.40102e-07
1.22664e-05
5.59478e-07
1.22757e-05
7.1312e-07
1.23512e-05
9.01562e-07
1.25378e-05
1.10923e-06
1.28279e-06
1.28601e-05
1.51991e-05
3.57832e-07
1.51387e-05
3.0069e-07
1.51022e-05
1.29941e-07
1.50797e-05
6.41795e-08
1.50604e-05
6.59692e-08
1.50402e-05
8.15614e-08
1.50185e-05
9.36666e-08
1.49959e-05
1.00797e-07
1.49726e-05
1.04767e-07
1.49489e-05
1.06874e-07
1.49251e-05
1.08047e-07
1.49012e-05
1.0863e-07
1.48772e-05
1.08917e-07
1.48532e-05
1.08996e-07
1.48292e-05
1.08969e-07
1.48052e-05
1.08881e-07
1.47812e-05
1.08795e-07
1.47572e-05
1.08711e-07
1.47332e-05
1.08694e-07
1.47091e-05
1.0872e-07
1.4685e-05
1.0885e-07
1.46608e-05
1.09072e-07
1.46365e-05
1.09401e-07
1.46121e-05
1.09847e-07
1.45876e-05
1.10384e-07
1.4563e-05
1.11016e-07
1.45381e-05
1.11697e-07
1.45132e-05
1.12437e-07
1.4488e-05
1.13197e-07
1.44627e-05
1.13951e-07
1.44373e-05
1.1469e-07
1.44117e-05
1.15385e-07
1.43859e-05
1.16034e-07
1.43601e-05
1.16627e-07
1.43342e-05
1.17134e-07
1.43082e-05
1.17553e-07
1.42821e-05
1.17894e-07
1.4256e-05
1.18148e-07
1.42299e-05
1.18309e-07
1.42038e-05
1.18377e-07
1.41777e-05
1.18351e-07
1.41517e-05
1.18227e-07
1.41258e-05
1.18005e-07
1.41e-05
1.17689e-07
1.40743e-05
1.17286e-07
1.40487e-05
1.16804e-07
1.40234e-05
1.16247e-07
1.39982e-05
1.1562e-07
1.39732e-05
1.14929e-07
1.39485e-05
1.14188e-07
1.3924e-05
1.13411e-07
1.38997e-05
1.12614e-07
1.38757e-05
1.11812e-07
1.3852e-05
1.11024e-07
1.38286e-05
1.10271e-07
1.38055e-05
1.09583e-07
1.37827e-05
1.08996e-07
1.37601e-05
1.08555e-07
1.37378e-05
1.08319e-07
1.37158e-05
1.08367e-07
1.36939e-05
1.08794e-07
1.36722e-05
1.0972e-07
1.36506e-05
1.11295e-07
1.3629e-05
1.13728e-07
1.36073e-05
1.17256e-07
1.35854e-05
1.22205e-07
1.35632e-05
1.29001e-07
1.35405e-05
1.38193e-07
1.35174e-05
1.50472e-07
1.34939e-05
1.66735e-07
1.34701e-05
1.88114e-07
1.34468e-05
2.16048e-07
1.34251e-05
2.52308e-07
1.34076e-05
2.99012e-07
1.33986e-05
3.58536e-07
1.34055e-05
4.3325e-07
1.34401e-05
5.24869e-07
1.35202e-05
6.33076e-07
1.36689e-05
7.52826e-07
1.39087e-05
8.69504e-07
9.52761e-07
1.42387e-05
1.628e-05
3.99967e-07
1.6222e-05
3.58858e-07
1.61801e-05
1.71852e-07
1.61517e-05
9.27258e-08
1.61282e-05
8.95129e-08
1.61054e-05
1.04482e-07
1.6082e-05
1.17179e-07
1.60579e-05
1.24931e-07
1.60334e-05
1.29335e-07
1.60087e-05
1.31703e-07
1.59838e-05
1.33023e-07
1.59588e-05
1.33678e-07
1.59338e-05
1.33998e-07
1.59088e-05
1.34092e-07
1.58837e-05
1.34068e-07
1.58587e-05
1.33983e-07
1.58336e-05
1.33915e-07
1.58086e-05
1.33856e-07
1.57834e-05
1.33878e-07
1.57583e-05
1.33962e-07
1.5733e-05
1.34169e-07
1.57076e-05
1.34488e-07
1.56822e-05
1.34927e-07
1.56566e-05
1.35505e-07
1.56308e-05
1.36187e-07
1.56049e-05
1.36974e-07
1.55789e-05
1.37816e-07
1.55526e-05
1.38718e-07
1.55262e-05
1.39643e-07
1.54997e-05
1.40553e-07
1.5473e-05
1.41438e-07
1.54462e-05
1.4227e-07
1.54192e-05
1.43037e-07
1.53921e-05
1.43729e-07
1.5365e-05
1.4432e-07
1.53378e-05
1.44803e-07
1.53106e-05
1.45181e-07
1.52833e-05
1.45449e-07
1.5256e-05
1.45599e-07
1.52288e-05
1.45631e-07
1.52017e-05
1.45543e-07
1.51746e-05
1.45332e-07
1.51477e-05
1.44997e-07
1.51208e-05
1.44542e-07
1.50942e-05
1.43974e-07
1.50677e-05
1.43299e-07
1.50415e-05
1.42524e-07
1.50155e-05
1.41652e-07
1.49898e-05
1.40693e-07
1.49643e-05
1.39658e-07
1.49392e-05
1.38563e-07
1.49144e-05
1.37424e-07
1.489e-05
1.36257e-07
1.4866e-05
1.35082e-07
1.48424e-05
1.33924e-07
1.48192e-05
1.32813e-07
1.47964e-05
1.31786e-07
1.47741e-05
1.30892e-07
1.47523e-05
1.30194e-07
1.47309e-05
1.29772e-07
1.471e-05
1.29726e-07
1.46895e-05
1.30177e-07
1.46696e-05
1.31279e-07
1.46501e-05
1.33225e-07
1.46311e-05
1.36252e-07
1.46127e-05
1.40663e-07
1.45949e-05
1.46838e-07
1.45779e-05
1.55244e-07
1.45619e-05
1.66449e-07
1.45475e-05
1.81134e-07
1.45356e-05
2.00106e-07
1.45274e-05
2.24284e-07
1.4525e-05
2.54656e-07
1.45319e-05
2.92188e-07
1.45528e-05
3.37625e-07
1.45949e-05
3.91169e-07
1.46678e-05
4.51949e-07
1.47837e-05
5.17235e-07
1.49552e-05
5.81391e-07
1.51901e-05
6.34614e-07
6.62374e-07
1.54805e-05
1.74351e-05
4.3028e-07
1.73801e-05
4.13973e-07
1.7334e-05
2.18047e-07
1.73001e-05
1.2679e-07
1.72725e-05
1.17175e-07
1.72469e-05
1.30137e-07
1.72216e-05
1.4258e-07
1.71961e-05
1.50518e-07
1.71704e-05
1.55135e-07
1.71445e-05
1.57653e-07
1.71186e-05
1.59053e-07
1.70926e-05
1.59749e-07
1.70666e-05
1.60086e-07
1.70406e-05
1.6019e-07
1.70145e-05
1.60174e-07
1.69885e-05
1.60105e-07
1.69624e-05
1.60073e-07
1.69363e-05
1.60061e-07
1.69101e-05
1.60145e-07
1.68838e-05
1.60316e-07
1.68574e-05
1.60626e-07
1.68309e-05
1.61065e-07
1.68042e-05
1.61638e-07
1.67774e-05
1.62364e-07
1.67505e-05
1.63208e-07
1.67233e-05
1.64159e-07
1.6696e-05
1.65172e-07
1.66686e-05
1.66239e-07
1.66409e-05
1.67327e-07
1.66132e-05
1.6839e-07
1.65852e-05
1.69414e-07
1.65572e-05
1.70374e-07
1.6529e-05
1.71247e-07
1.65008e-05
1.72022e-07
1.64725e-05
1.72679e-07
1.64441e-05
1.73207e-07
1.64157e-05
1.73602e-07
1.63874e-05
1.73859e-07
1.63591e-05
1.73969e-07
1.63308e-05
1.73933e-07
1.63026e-05
1.7375e-07
1.62746e-05
1.73416e-07
1.62467e-05
1.72929e-07
1.6219e-05
1.72292e-07
1.61915e-05
1.71509e-07
1.61642e-05
1.70589e-07
1.61373e-05
1.69536e-07
1.61106e-05
1.68355e-07
1.60843e-05
1.67054e-07
1.60583e-05
1.65643e-07
1.60328e-05
1.64137e-07
1.60077e-05
1.62552e-07
1.59831e-05
1.60904e-07
1.5959e-05
1.59213e-07
1.59354e-05
1.57502e-07
1.59125e-05
1.558e-07
1.58902e-05
1.54143e-07
1.58685e-05
1.52581e-07
1.58476e-05
1.51173e-07
1.58274e-05
1.49997e-07
1.5808e-05
1.49143e-07
1.57895e-05
1.48724e-07
1.57719e-05
1.48879e-07
1.57554e-05
1.49773e-07
1.574e-05
1.51614e-07
1.57261e-05
1.54645e-07
1.57138e-05
1.59163e-07
1.57035e-05
1.65508e-07
1.56959e-05
1.74068e-07
1.56918e-05
1.85265e-07
1.56924e-05
1.99539e-07
1.56994e-05
2.17303e-07
1.57152e-05
2.38865e-07
1.57431e-05
2.64316e-07
1.57874e-05
2.93347e-07
1.58536e-05
3.2502e-07
1.59481e-05
3.57491e-07
1.60776e-05
3.87777e-07
1.62473e-05
4.11685e-07
1.64579e-05
4.24045e-07
4.19425e-07
1.67008e-05
1.86689e-05
4.50189e-07
1.86174e-05
4.65604e-07
1.85683e-05
2.6728e-07
1.85296e-05
1.65544e-07
1.84982e-05
1.48708e-07
1.84699e-05
1.58533e-07
1.84426e-05
1.69927e-07
1.84156e-05
1.77609e-07
1.83887e-05
1.82191e-07
1.83617e-05
1.84725e-07
1.83347e-05
1.86129e-07
1.83077e-05
1.86829e-07
1.82807e-05
1.87161e-07
1.82537e-05
1.87268e-07
1.82267e-05
1.87266e-07
1.81997e-05
1.8723e-07
1.81726e-05
1.8725e-07
1.81454e-05
1.87309e-07
1.81181e-05
1.87481e-07
1.80907e-05
1.87767e-07
1.80632e-05
1.88204e-07
1.80356e-05
1.88789e-07
1.80078e-05
1.8952e-07
1.79798e-05
1.90413e-07
1.79516e-05
1.91431e-07
1.79233e-05
1.92556e-07
1.78948e-05
1.93746e-07
1.78661e-05
1.9498e-07
1.78373e-05
1.96225e-07
1.78083e-05
1.97434e-07
1.77792e-05
1.98587e-07
1.77499e-05
1.99659e-07
1.77206e-05
2.00622e-07
1.76912e-05
2.0146e-07
1.76618e-05
2.02159e-07
1.76323e-05
2.02705e-07
1.76029e-05
2.03089e-07
1.75735e-05
2.03302e-07
1.75442e-05
2.03339e-07
1.7515e-05
2.03198e-07
1.74859e-05
2.02879e-07
1.7457e-05
2.02378e-07
1.74283e-05
2.0169e-07
1.73998e-05
2.00817e-07
1.73716e-05
1.99762e-07
1.73437e-05
1.98531e-07
1.73161e-05
1.97128e-07
1.7289e-05
1.95556e-07
1.72622e-05
1.93823e-07
1.7236e-05
1.91936e-07
1.72102e-05
1.89908e-07
1.71851e-05
1.87752e-07
1.71605e-05
1.85483e-07
1.71367e-05
1.83118e-07
1.71135e-05
1.80678e-07
1.70912e-05
1.78186e-07
1.70697e-05
1.75675e-07
1.70491e-05
1.73189e-07
1.70295e-05
1.70779e-07
1.7011e-05
1.68511e-07
1.69938e-05
1.6646e-07
1.69778e-05
1.64717e-07
1.69633e-05
1.63391e-07
1.69505e-05
1.6261e-07
1.69396e-05
1.62522e-07
1.6931e-05
1.63296e-07
1.69251e-05
1.65119e-07
1.69224e-05
1.68187e-07
1.69238e-05
1.72698e-07
1.69303e-05
1.78823e-07
1.69432e-05
1.86678e-07
1.69642e-05
1.96277e-07
1.69957e-05
2.07457e-07
1.70402e-05
2.1979e-07
1.71011e-05
2.32466e-07
1.7182e-05
2.44189e-07
1.72864e-05
2.53112e-07
1.74172e-05
2.5693e-07
1.75757e-05
2.53215e-07
1.77596e-05
2.40174e-07
2.16957e-07
1.79621e-05
1.99866e-05
4.6149e-07
1.99388e-05
5.1348e-07
1.98879e-05
3.18309e-07
1.98455e-05
2.0802e-07
1.98106e-05
1.83721e-07
1.97797e-05
1.89574e-07
1.97505e-05
1.99237e-07
1.9722e-05
2.06234e-07
1.96937e-05
2.10523e-07
1.96656e-05
2.12926e-07
1.96376e-05
2.1425e-07
1.96096e-05
2.14909e-07
1.95816e-05
2.15213e-07
1.95537e-05
2.15314e-07
1.95257e-05
2.15334e-07
1.94977e-05
2.15344e-07
1.94696e-05
2.15431e-07
1.94414e-05
2.15588e-07
1.94131e-05
2.15874e-07
1.93846e-05
2.163e-07
1.9356e-05
2.16891e-07
1.93272e-05
2.17646e-07
1.92982e-05
2.18557e-07
1.92691e-05
2.19633e-07
1.92398e-05
2.20834e-07
1.92102e-05
2.22141e-07
1.91805e-05
2.2351e-07
1.91507e-05
2.24908e-07
1.91207e-05
2.263e-07
1.90905e-05
2.27644e-07
1.90603e-05
2.28911e-07
1.90299e-05
2.30075e-07
1.89995e-05
2.31103e-07
1.8969e-05
2.31978e-07
1.89386e-05
2.32689e-07
1.89081e-05
2.3322e-07
1.88777e-05
2.33556e-07
1.88473e-05
2.33688e-07
1.88171e-05
2.3361e-07
1.87871e-05
2.33321e-07
1.87572e-05
2.32818e-07
1.87275e-05
2.32096e-07
1.86981e-05
2.31148e-07
1.8669e-05
2.29974e-07
1.86402e-05
2.28575e-07
1.86118e-05
2.26953e-07
1.85839e-05
2.25112e-07
1.85564e-05
2.23053e-07
1.85295e-05
2.2078e-07
1.85032e-05
2.18299e-07
1.84775e-05
2.15616e-07
1.84526e-05
2.12742e-07
1.84284e-05
2.09688e-07
1.84051e-05
2.06467e-07
1.83827e-05
2.03091e-07
1.83614e-05
1.9958e-07
1.83411e-05
1.95959e-07
1.83221e-05
1.92259e-07
1.83044e-05
1.88518e-07
1.82882e-05
1.84783e-07
1.82735e-05
1.81106e-07
1.82607e-05
1.77548e-07
1.825e-05
1.7418e-07
1.82415e-05
1.71078e-07
1.82358e-05
1.68324e-07
1.82331e-05
1.66004e-07
1.82341e-05
1.64193e-07
1.82393e-05
1.62946e-07
1.82497e-05
1.62304e-07
1.82664e-05
1.62226e-07
1.82905e-05
1.62596e-07
1.83236e-05
1.63182e-07
1.83675e-05
1.63562e-07
1.84242e-05
1.63099e-07
1.84959e-05
1.60877e-07
1.85844e-05
1.55692e-07
1.86914e-05
1.46108e-07
1.88177e-05
1.307e-07
1.89624e-05
1.08459e-07
1.9123e-05
7.96033e-08
4.58112e-08
1.92942e-05
2.13941e-05
4.66046e-07
2.13502e-05
5.57474e-07
2.12986e-05
3.70042e-07
2.12535e-05
2.53259e-07
2.12156e-05
2.2172e-07
2.11822e-05
2.23083e-07
2.11511e-05
2.3048e-07
2.1121e-05
2.364e-07
2.10915e-05
2.40143e-07
2.10623e-05
2.42265e-07
2.10332e-05
2.43421e-07
2.10042e-05
2.43987e-07
2.09753e-05
2.44235e-07
2.09464e-05
2.44324e-07
2.09174e-05
2.44371e-07
2.08884e-05
2.4444e-07
2.08593e-05
2.44611e-07
2.08301e-05
2.44888e-07
2.08007e-05
2.45316e-07
2.07712e-05
2.45904e-07
2.07415e-05
2.46671e-07
2.07116e-05
2.47618e-07
2.06815e-05
2.48728e-07
2.06513e-05
2.49996e-07
2.06208e-05
2.5139e-07
2.05901e-05
2.5288e-07
2.05593e-05
2.54425e-07
2.05283e-05
2.55977e-07
2.04971e-05
2.57503e-07
2.04659e-05
2.58962e-07
2.04345e-05
2.60321e-07
2.04031e-05
2.6155e-07
2.03717e-05
2.62615e-07
2.03402e-05
2.63497e-07
2.03088e-05
2.64183e-07
2.02774e-05
2.64659e-07
2.02461e-05
2.64906e-07
2.02149e-05
2.64912e-07
2.01839e-05
2.64671e-07
2.01531e-05
2.6418e-07
2.01226e-05
2.63434e-07
2.00923e-05
2.62425e-07
2.00623e-05
2.61145e-07
2.00328e-05
2.59591e-07
2.00036e-05
2.57762e-07
1.9975e-05
2.55656e-07
1.99469e-05
2.53273e-07
1.99194e-05
2.50613e-07
1.98925e-05
2.47674e-07
1.98664e-05
2.44458e-07
1.98411e-05
2.40967e-07
1.98167e-05
2.37207e-07
1.97932e-05
2.33182e-07
1.97708e-05
2.28896e-07
1.97496e-05
2.24356e-07
1.97297e-05
2.19572e-07
1.97111e-05
2.14555e-07
1.96941e-05
2.09323e-07
1.96787e-05
2.03894e-07
1.96653e-05
1.98292e-07
1.96539e-05
1.92541e-07
1.96448e-05
1.86667e-07
1.96383e-05
1.80701e-07
1.96347e-05
1.74662e-07
1.96345e-05
1.6857e-07
1.96381e-05
1.6243e-07
1.96461e-05
1.56221e-07
1.96592e-05
1.49901e-07
1.96782e-05
1.4336e-07
1.9704e-05
1.36454e-07
1.97377e-05
1.28919e-07
1.97805e-05
1.20404e-07
1.98337e-05
1.10417e-07
1.98985e-05
9.83089e-08
1.99761e-05
8.32778e-08
2.00674e-05
6.4401e-08
2.01728e-05
4.0743e-08
2.02919e-05
1.16201e-08
2.04233e-05
-2.29379e-08
2.05646e-05
-6.16188e-08
-1.01556e-07
2.0712e-05
2.28979e-05
4.65639e-07
2.28579e-05
5.97597e-07
2.28065e-05
4.21582e-07
2.27595e-05
3.00371e-07
2.27192e-05
2.62146e-07
2.26836e-05
2.58825e-07
2.26506e-05
2.63574e-07
2.26191e-05
2.68084e-07
2.25883e-05
2.71053e-07
2.25579e-05
2.72747e-07
2.25278e-05
2.73647e-07
2.24978e-05
2.74061e-07
2.24679e-05
2.74229e-07
2.2438e-05
2.743e-07
2.24081e-05
2.74377e-07
2.23782e-05
2.74514e-07
2.23481e-05
2.74785e-07
2.23179e-05
2.75205e-07
2.22875e-05
2.75795e-07
2.22569e-05
2.76565e-07
2.22261e-05
2.77527e-07
2.21951e-05
2.78683e-07
2.21639e-05
2.80003e-07
2.21326e-05
2.81471e-07
2.2101e-05
2.83056e-07
2.20692e-05
2.84727e-07
2.20373e-05
2.86436e-07
2.20052e-05
2.88129e-07
2.1973e-05
2.89767e-07
2.19407e-05
2.91317e-07
2.19084e-05
2.9274e-07
2.1876e-05
2.94e-07
2.18436e-05
2.95067e-07
2.18112e-05
2.95918e-07
2.1779e-05
2.96541e-07
2.17468e-05
2.96915e-07
2.17147e-05
2.97023e-07
2.16828e-05
2.96849e-07
2.16512e-05
2.96386e-07
2.16198e-05
2.95628e-07
2.15887e-05
2.94567e-07
2.1558e-05
2.93193e-07
2.15277e-05
2.91496e-07
2.14979e-05
2.89469e-07
2.14686e-05
2.87107e-07
2.14399e-05
2.84406e-07
2.14119e-05
2.8136e-07
2.13845e-05
2.77965e-07
2.13581e-05
2.74216e-07
2.13325e-05
2.70107e-07
2.13078e-05
2.65635e-07
2.12843e-05
2.60798e-07
2.12619e-05
2.55592e-07
2.12408e-05
2.50014e-07
2.12212e-05
2.44059e-07
2.12031e-05
2.37724e-07
2.11867e-05
2.31009e-07
2.11721e-05
2.23911e-07
2.11596e-05
2.1643e-07
2.11494e-05
2.08563e-07
2.11417e-05
2.00305e-07
2.11367e-05
1.91646e-07
2.11349e-05
1.82585e-07
2.11365e-05
1.73073e-07
2.1142e-05
1.63099e-07
2.11519e-05
1.5258e-07
2.11667e-05
1.4145e-07
2.11871e-05
1.29567e-07
2.12137e-05
1.16775e-07
2.12473e-05
1.02845e-07
2.12888e-05
8.7484e-08
2.13389e-05
7.03197e-08
2.13985e-05
5.0899e-08
2.14681e-05
2.86891e-08
2.15483e-05
3.09417e-09
2.16392e-05
-2.65014e-08
2.17406e-05
-6.06049e-08
2.18516e-05
-9.93661e-08
2.19709e-05
-1.42149e-07
2.20963e-05
-1.87025e-07
-2.30612e-07
2.22254e-05
2.45052e-05
4.61854e-07
2.44689e-05
6.34011e-07
2.44184e-05
4.72246e-07
2.43703e-05
3.48549e-07
2.43282e-05
3.04445e-07
2.42906e-05
2.96515e-07
2.42559e-05
2.98384e-07
2.42229e-05
3.01231e-07
2.41908e-05
3.03237e-07
2.41593e-05
3.0437e-07
2.41282e-05
3.04923e-07
2.40972e-05
3.05134e-07
2.40663e-05
3.05198e-07
2.40355e-05
3.05242e-07
2.40046e-05
3.05348e-07
2.39737e-05
3.05564e-07
2.39426e-05
3.05951e-07
2.39114e-05
3.06528e-07
2.388e-05
3.07297e-07
2.38484e-05
3.08264e-07
2.38166e-05
3.09437e-07
2.37845e-05
3.10808e-07
2.37523e-05
3.12342e-07
2.37198e-05
3.14009e-07
2.36872e-05
3.15781e-07
2.36544e-05
3.17621e-07
2.36214e-05
3.19474e-07
2.35884e-05
3.21285e-07
2.35552e-05
3.23013e-07
2.3522e-05
3.24623e-07
2.34887e-05
3.26074e-07
2.34554e-05
3.27327e-07
2.34222e-05
3.28354e-07
2.33891e-05
3.29131e-07
2.33561e-05
3.2964e-07
2.33232e-05
3.29859e-07
2.32905e-05
3.29766e-07
2.32581e-05
3.29346e-07
2.32259e-05
3.2859e-07
2.31941e-05
3.27487e-07
2.31627e-05
3.26026e-07
2.31318e-05
3.24194e-07
2.31014e-05
3.21979e-07
2.30715e-05
3.19369e-07
2.30423e-05
3.16357e-07
2.30139e-05
3.12931e-07
2.29862e-05
3.09084e-07
2.29594e-05
3.04805e-07
2.29336e-05
3.00083e-07
2.29089e-05
2.94907e-07
2.28853e-05
2.89267e-07
2.2863e-05
2.83151e-07
2.28421e-05
2.76545e-07
2.28227e-05
2.69435e-07
2.2805e-05
2.61806e-07
2.27891e-05
2.5364e-07
2.27753e-05
2.44921e-07
2.27636e-05
2.35627e-07
2.27543e-05
2.25736e-07
2.27477e-05
2.15221e-07
2.2744e-05
2.04048e-07
2.27435e-05
1.92192e-07
2.27465e-05
1.79594e-07
2.27534e-05
1.662e-07
2.27647e-05
1.51911e-07
2.27806e-05
1.36679e-07
2.28018e-05
1.2033e-07
2.28286e-05
1.02722e-07
2.28618e-05
8.36689e-08
2.29017e-05
6.2925e-08
2.2949e-05
4.02169e-08
2.30042e-05
1.523e-08
2.30675e-05
-1.23931e-08
2.31392e-05
-4.30421e-08
2.32195e-05
-7.71174e-08
2.3308e-05
-1.14973e-07
2.34042e-05
-1.56798e-07
2.35073e-05
-2.02388e-07
2.36159e-05
-2.50746e-07
2.37285e-05
-2.99623e-07
-3.45409e-07
2.38433e-05
2.62234e-05
4.56002e-07
2.61906e-05
6.67035e-07
2.61414e-05
5.21531e-07
2.6093e-05
3.97107e-07
2.60495e-05
3.48093e-07
2.60103e-05
3.35821e-07
2.59741e-05
3.34734e-07
2.59397e-05
3.35765e-07
2.59064e-05
3.36663e-07
2.58738e-05
3.37113e-07
2.58416e-05
3.37241e-07
2.58097e-05
3.37203e-07
2.57778e-05
3.37141e-07
2.57461e-05
3.37144e-07
2.57142e-05
3.37278e-07
2.56823e-05
3.37583e-07
2.56503e-05
3.38098e-07
2.56181e-05
3.3884e-07
2.55857e-05
3.398e-07
2.55531e-05
3.40975e-07
2.55202e-05
3.42365e-07
2.54872e-05
3.43951e-07
2.54539e-05
3.45693e-07
2.54205e-05
3.47553e-07
2.53869e-05
3.49498e-07
2.53531e-05
3.51484e-07
2.53192e-05
3.53455e-07
2.52852e-05
3.55356e-07
2.52512e-05
3.57142e-07
2.52171e-05
3.58776e-07
2.5183e-05
3.60213e-07
2.5149e-05
3.61414e-07
2.51151e-05
3.62351e-07
2.50813e-05
3.62997e-07
2.50477e-05
3.63331e-07
2.50143e-05
3.63326e-07
2.49812e-05
3.6296e-07
2.49484e-05
3.62217e-07
2.4916e-05
3.61084e-07
2.4884e-05
3.59546e-07
2.48525e-05
3.57588e-07
2.48215e-05
3.55194e-07
2.47912e-05
3.52348e-07
2.47616e-05
3.49035e-07
2.47328e-05
3.45241e-07
2.47049e-05
3.40953e-07
2.46778e-05
3.36154e-07
2.46519e-05
3.3083e-07
2.46271e-05
3.24962e-07
2.46035e-05
3.18532e-07
2.45813e-05
3.11519e-07
2.45606e-05
3.03902e-07
2.45415e-05
2.95657e-07
2.45243e-05
2.8676e-07
2.45089e-05
2.77182e-07
2.44957e-05
2.66894e-07
2.44848e-05
2.55866e-07
2.44764e-05
2.44061e-07
2.44708e-05
2.3144e-07
2.44681e-05
2.17956e-07
2.44686e-05
2.03555e-07
2.44727e-05
1.8819e-07
2.44805e-05
1.71764e-07
2.44926e-05
1.5422e-07
2.45091e-05
1.35438e-07
2.45305e-05
1.15309e-07
2.45572e-05
9.36862e-08
2.45895e-05
7.04197e-08
2.46279e-05
4.53238e-08
2.46726e-05
1.8201e-08
2.47241e-05
-1.11635e-08
2.47823e-05
-4.30058e-08
2.48476e-05
-7.75809e-08
2.49197e-05
-1.1514e-07
2.49985e-05
-1.55908e-07
2.50836e-05
-2.00041e-07
2.51744e-05
-2.47516e-07
2.52699e-05
-2.97914e-07
2.53692e-05
-3.50046e-07
2.54712e-05
-4.01511e-07
-4.48603e-07
2.55744e-05
2.80609e-05
4.49133e-07
2.80309e-05
6.97109e-07
2.79836e-05
5.69081e-07
2.79353e-05
4.45506e-07
2.7891e-05
3.92601e-07
2.78505e-05
3.76384e-07
2.7813e-05
3.72423e-07
2.77773e-05
3.71574e-07
2.77429e-05
3.71261e-07
2.77092e-05
3.70936e-07
2.7676e-05
3.7058e-07
2.76431e-05
3.70255e-07
2.76103e-05
3.7004e-07
2.75776e-05
3.69994e-07
2.75448e-05
3.70156e-07
2.7512e-05
3.70555e-07
2.7479e-05
3.71205e-07
2.74458e-05
3.72114e-07
2.74124e-05
3.73269e-07
2.73789e-05
3.74657e-07
2.73451e-05
3.76261e-07
2.73111e-05
3.78052e-07
2.72769e-05
3.79987e-07
2.72425e-05
3.82025e-07
2.7208e-05
3.84121e-07
2.71734e-05
3.86223e-07
2.71386e-05
3.88277e-07
2.71038e-05
3.9023e-07
2.7069e-05
3.92034e-07
2.70343e-05
3.93645e-07
2.69995e-05
3.95017e-07
2.69649e-05
3.96112e-07
2.69305e-05
3.96898e-07
2.68962e-05
3.97349e-07
2.68622e-05
3.97436e-07
2.68284e-05
3.97132e-07
2.67951e-05
3.96414e-07
2.67621e-05
3.95261e-07
2.67296e-05
3.93658e-07
2.66976e-05
3.91584e-07
2.66663e-05
3.89019e-07
2.66356e-05
3.85945e-07
2.66057e-05
3.8234e-07
2.65766e-05
3.78186e-07
2.65484e-05
3.73464e-07
2.65213e-05
3.68153e-07
2.64953e-05
3.62235e-07
2.64705e-05
3.55685e-07
2.6447e-05
3.48481e-07
2.6425e-05
3.40596e-07
2.64046e-05
3.32002e-07
2.63859e-05
3.22669e-07
2.6369e-05
3.12562e-07
2.63542e-05
3.01645e-07
2.63416e-05
2.89879e-07
2.63313e-05
2.7722e-07
2.63236e-05
2.63623e-07
2.63187e-05
2.49036e-07
2.63167e-05
2.33406e-07
2.63181e-05
2.1667e-07
2.63229e-05
1.98779e-07
2.63315e-05
1.79647e-07
2.63441e-05
1.59203e-07
2.6361e-05
1.37355e-07
2.63825e-05
1.14e-07
2.64088e-05
8.90206e-08
2.64403e-05
6.22889e-08
2.6477e-05
3.36693e-08
2.65194e-05
3.01845e-09
2.65674e-05
-2.98161e-08
2.66213e-05
-6.49956e-08
2.6681e-05
-1.02683e-07
2.67465e-05
-1.4303e-07
2.68176e-05
-1.86169e-07
2.68939e-05
-2.32194e-07
2.6975e-05
-2.8112e-07
2.70603e-05
-3.32782e-07
2.71491e-05
-3.86635e-07
2.72404e-05
-4.41386e-07
2.73335e-05
-4.94561e-07
-5.42422e-07
2.74274e-05
3.00261e-05
4.42104e-07
2.99986e-05
7.24705e-07
2.99532e-05
6.14679e-07
2.99056e-05
4.93328e-07
2.98608e-05
4.375e-07
2.98195e-05
4.17855e-07
2.97809e-05
4.11225e-07
2.97441e-05
4.08509e-07
2.97086e-05
4.06932e-07
2.96739e-05
4.0578e-07
2.96397e-05
4.04901e-07
2.96058e-05
4.04256e-07
2.95721e-05
4.03868e-07
2.95385e-05
4.03764e-07
2.95048e-05
4.03953e-07
2.94711e-05
4.04445e-07
2.94372e-05
4.05232e-07
2.94031e-05
4.06307e-07
2.93688e-05
4.07654e-07
2.93344e-05
4.09248e-07
2.92997e-05
4.11051e-07
2.92648e-05
4.13028e-07
2.92298e-05
4.15135e-07
2.91946e-05
4.17324e-07
2.91593e-05
4.19539e-07
2.91239e-05
4.21723e-07
2.90884e-05
4.2382e-07
2.9053e-05
4.2578e-07
2.90176e-05
4.27551e-07
2.89822e-05
4.29083e-07
2.8947e-05
4.3033e-07
2.8912e-05
4.31253e-07
2.88771e-05
4.31821e-07
2.88426e-05
4.32e-07
2.88083e-05
4.3176e-07
2.87745e-05
4.31069e-07
2.87411e-05
4.29904e-07
2.87082e-05
4.2824e-07
2.86758e-05
4.26055e-07
2.86442e-05
4.23327e-07
2.86132e-05
4.20031e-07
2.85831e-05
4.16146e-07
2.85539e-05
4.11649e-07
2.85256e-05
4.06514e-07
2.84984e-05
4.00719e-07
2.84724e-05
3.94238e-07
2.84477e-05
3.87041e-07
2.84243e-05
3.79098e-07
2.84025e-05
3.70374e-07
2.83823e-05
3.60834e-07
2.8364e-05
3.50441e-07
2.83475e-05
3.39154e-07
2.83332e-05
3.26934e-07
2.83212e-05
3.13738e-07
2.83116e-05
2.99521e-07
2.83046e-05
2.84236e-07
2.83005e-05
2.67831e-07
2.82993e-05
2.50251e-07
2.83014e-05
2.31434e-07
2.83068e-05
2.11312e-07
2.83158e-05
1.89819e-07
2.83286e-05
1.6687e-07
2.83455e-05
1.42385e-07
2.83666e-05
1.16272e-07
2.83922e-05
8.84383e-08
2.84225e-05
5.87841e-08
2.84576e-05
2.72069e-08
2.84977e-05
-6.38537e-09
2.85429e-05
-4.20875e-08
2.85931e-05
-8.00014e-08
2.86484e-05
-1.20221e-07
2.87085e-05
-1.62829e-07
2.87734e-05
-2.07893e-07
2.88428e-05
-2.55458e-07
2.89161e-05
-3.05528e-07
2.89931e-05
-3.58032e-07
2.90731e-05
-4.1273e-07
2.91555e-05
-4.69013e-07
2.92397e-05
-5.25541e-07
2.9325e-05
-5.79816e-07
-6.28097e-07
2.94107e-05
3.21283e-05
4.35566e-07
3.21029e-05
7.50278e-07
3.20595e-05
6.58275e-07
3.20127e-05
5.40225e-07
3.1968e-05
4.82378e-07
3.19262e-05
4.59907e-07
3.18867e-05
4.50882e-07
3.1849e-05
4.4638e-07
3.18125e-05
4.43553e-07
3.17769e-05
4.41563e-07
3.17418e-05
4.40133e-07
3.17071e-05
4.39147e-07
3.16725e-05
4.38576e-07
3.1638e-05
4.38406e-07
3.16035e-05
4.38618e-07
3.15689e-05