/*--------------------------------*- C++ -*----------------------------------*\
  =========                 |
  \\      /  F ield         | OpenFOAM: The Open Source CFD Toolbox
   \\    /   O peration     | Website:  https://openfoam.org
    \\  /    A nd           | Version:  7
     \\/     M anipulation  |
\*---------------------------------------------------------------------------*/
FoamFile
{
    version     2.0;
    format      ascii;
    class       volVectorField;
    location    "0.39";
    object      U;
}
// * * * * * * * * * * * * * * * * * * * * * * * * * * * * * * * * * * * * * //

dimensions      [0 1 -1 0 0 0 0];

internalField   nonuniform List<vector> 
12013
(
(0.100036 -5.93485e-06 0)
(0.100095 -3.2959e-06 0)
(0.100102 2.59603e-06 0)
(0.100047 6.62435e-06 0)
(0.099972 7.06343e-06 0)
(0.0999113 5.0432e-06 0)
(0.0998785 2.28244e-06 0)
(0.0998727 -2.13279e-07 0)
(0.0998885 -2.25317e-06 0)
(0.0999218 -4.07078e-06 0)
(0.0999715 -5.98199e-06 0)
(0.10004 -8.21993e-06 0)
(0.100129 -1.0921e-05 0)
(0.100244 -1.41511e-05 0)
(0.100388 -1.79465e-05 0)
(0.100566 -2.23332e-05 0)
(0.100781 -2.73404e-05 0)
(0.101037 -3.30026e-05 0)
(0.101339 -3.93613e-05 0)
(0.101691 -4.64662e-05 0)
(0.102098 -5.43745e-05 0)
(0.102564 -6.31468e-05 0)
(0.103094 -7.28484e-05 0)
(0.103693 -8.35479e-05 0)
(0.104367 -9.53155e-05 0)
(0.105121 -0.000108225 0)
(0.105961 -0.000122346 0)
(0.106892 -0.000137748 0)
(0.10792 -0.000154494 0)
(0.109051 -0.000172645 0)
(0.11029 -0.000192248 0)
(0.111643 -0.000213345 0)
(0.113116 -0.000235966 0)
(0.114714 -0.000260126 0)
(0.11644 -0.00028583 0)
(0.1183 -0.000313066 0)
(0.120298 -0.000341807 0)
(0.122437 -0.000372012 0)
(0.12472 -0.00040362 0)
(0.127149 -0.000436556 0)
(0.129726 -0.000470728 0)
(0.132452 -0.00050602 0)
(0.135328 -0.000542304 0)
(0.138353 -0.000579428 0)
(0.141526 -0.000617222 0)
(0.144845 -0.000655494 0)
(0.148307 -0.000694024 0)
(0.15191 -0.000732574 0)
(0.15565 -0.00077088 0)
(0.15952 -0.000808648 0)
(0.163516 -0.000845555 0)
(0.167631 -0.00088125 0)
(0.171858 -0.000915349 0)
(0.176188 -0.000947428 0)
(0.180611 -0.000977018 0)
(0.185119 -0.00100361 0)
(0.1897 -0.00102663 0)
(0.194341 -0.00104544 0)
(0.19903 -0.00105934 0)
(0.203751 -0.00106751 0)
(0.20849 -0.00106903 0)
(0.213228 -0.00106282 0)
(0.217946 -0.00104761 0)
(0.222622 -0.00102192 0)
(0.227232 -0.000983932 0)
(0.231748 -0.000931424 0)
(0.236138 -0.000861645 0)
(0.240365 -0.000771096 0)
(0.244383 -0.00065522 0)
(0.248139 -0.000508024 0)
(0.251565 -0.000321439 0)
(0.254579 -8.426e-05 0)
(0.257067 0.000220653 0)
(0.258879 0.000620886 0)
(0.259801 0.00115961 0)
(0.259518 0.00190823 0)
(0.257549 0.002992 0)
(0.2531 0.00464797 0)
(0.244827 0.0074051 0)
(0.230769 0.0128954 0)
(0.214086 0.0293154 0)
(0.100036 -1.8379e-05 0)
(0.100098 -1.03735e-05 0)
(0.100107 7.70314e-06 0)
(0.100055 2.01402e-05 0)
(0.0999812 2.15753e-05 0)
(0.0999208 1.54412e-05 0)
(0.0998877 7.00116e-06 0)
(0.0998814 -6.50301e-07 0)
(0.0998965 -6.91426e-06 0)
(0.0999292 -1.25033e-05 0)
(0.0999785 -1.83801e-05 0)
(0.100046 -2.52605e-05 0)
(0.100135 -3.35531e-05 0)
(0.10025 -4.34612e-05 0)
(0.100393 -5.50962e-05 0)
(0.10057 -6.85417e-05 0)
(0.100784 -8.38859e-05 0)
(0.101039 -0.000101231 0)
(0.101339 -0.000120704 0)
(0.101689 -0.000142459 0)
(0.102092 -0.000166668 0)
(0.102555 -0.000193517 0)
(0.103081 -0.000223203 0)
(0.103676 -0.000255935 0)
(0.104344 -0.000291928 0)
(0.105092 -0.0003314 0)
(0.105924 -0.000374565 0)
(0.106847 -0.000421634 0)
(0.107865 -0.000472803 0)
(0.108985 -0.000528245 0)
(0.110211 -0.000588103 0)
(0.11155 -0.000652498 0)
(0.113007 -0.000721525 0)
(0.114587 -0.000795237 0)
(0.116293 -0.000873632 0)
(0.118131 -0.000956662 0)
(0.120105 -0.00104424 0)
(0.122217 -0.00113625 0)
(0.12447 -0.00123251 0)
(0.126867 -0.00133277 0)
(0.129409 -0.00143673 0)
(0.132096 -0.00154405 0)
(0.134931 -0.00165433 0)
(0.137911 -0.00176712 0)
(0.141035 -0.00188188 0)
(0.144303 -0.00199801 0)
(0.14771 -0.00211487 0)
(0.151254 -0.00223171 0)
(0.15493 -0.00234771 0)
(0.158734 -0.002462 0)
(0.162659 -0.00257359 0)
(0.166699 -0.00268141 0)
(0.170847 -0.00278429 0)
(0.175093 -0.00288092 0)
(0.179429 -0.00296992 0)
(0.183846 -0.00304972 0)
(0.18833 -0.00311858 0)
(0.192872 -0.00317459 0)
(0.197457 -0.0032156 0)
(0.202071 -0.00323915 0)
(0.206698 -0.00324242 0)
(0.211321 -0.00322218 0)
(0.215921 -0.00317462 0)
(0.220477 -0.00309523 0)
(0.224965 -0.00297857 0)
(0.229358 -0.00281797 0)
(0.233626 -0.00260517 0)
(0.237733 -0.00232969 0)
(0.241636 -0.00197799 0)
(0.245287 -0.00153232 0)
(0.248623 -0.000968775 0)
(0.251571 -0.000254402 0)
(0.254031 0.00065948 0)
(0.255879 0.00184729 0)
(0.256952 0.00342246 0)
(0.257033 0.00556467 0)
(0.255834 0.00856882 0)
(0.25296 0.0129327 0)
(0.247927 0.019522 0)
(0.240677 0.0297467 0)
(0.235301 0.0449161 0)
(0.100036 -3.21299e-05 0)
(0.100102 -1.88022e-05 0)
(0.100118 1.22321e-05 0)
(0.100071 3.38791e-05 0)
(0.100001 3.67352e-05 0)
(0.099942 2.6519e-05 0)
(0.0999083 1.21949e-05 0)
(0.0999006 -9.07991e-07 0)
(0.0999144 -1.1706e-05 0)
(0.099946 -2.13809e-05 0)
(0.0999946 -3.154e-05 0)
(0.100062 -4.33999e-05 0)
(0.10015 -5.76618e-05 0)
(0.100264 -7.46756e-05 0)
(0.100407 -9.46336e-05 0)
(0.100582 -0.000117679 0)
(0.100794 -0.000143962 0)
(0.101047 -0.000173659 0)
(0.101344 -0.000206987 0)
(0.10169 -0.000244206 0)
(0.102089 -0.000285608 0)
(0.102546 -0.000331507 0)
(0.103065 -0.000382237 0)
(0.103652 -0.000438152 0)
(0.104311 -0.000499615 0)
(0.105048 -0.000566993 0)
(0.105867 -0.000640649 0)
(0.106774 -0.000720935 0)
(0.107775 -0.000808178 0)
(0.108876 -0.000902668 0)
(0.11008 -0.00100465 0)
(0.111394 -0.00111432 0)
(0.112823 -0.00123182 0)
(0.11437 -0.00135724 0)
(0.116041 -0.00149056 0)
(0.11784 -0.00163171 0)
(0.11977 -0.00178053 0)
(0.121833 -0.0019368 0)
(0.124034 -0.00210019 0)
(0.126373 -0.00227028 0)
(0.128851 -0.00244655 0)
(0.13147 -0.00262842 0)
(0.134229 -0.00281519 0)
(0.137129 -0.00300605 0)
(0.140166 -0.00320009 0)
(0.14334 -0.00339631 0)
(0.146646 -0.00359355 0)
(0.150083 -0.00379056 0)
(0.153645 -0.00398593 0)
(0.157326 -0.00417814 0)
(0.161122 -0.00436552 0)
(0.165025 -0.00454624 0)
(0.169028 -0.00471826 0)
(0.173123 -0.00487942 0)
(0.177299 -0.00502729 0)
(0.181548 -0.00515922 0)
(0.185857 -0.00527227 0)
(0.190215 -0.00536318 0)
(0.19461 -0.00542831 0)
(0.199026 -0.00546349 0)
(0.203448 -0.005464 0)
(0.207861 -0.00542441 0)
(0.212244 -0.00533834 0)
(0.216579 -0.00519828 0)
(0.220842 -0.00499522 0)
(0.225008 -0.00471823 0)
(0.22905 -0.00435378 0)
(0.232934 -0.00388491 0)
(0.236624 -0.00329001 0)
(0.240076 -0.00254097 0)
(0.24324 -0.00160056 0)
(0.246055 -0.000418299 0)
(0.248447 0.00107678 0)
(0.25033 0.00298643 0)
(0.251612 0.00545705 0)
(0.252194 0.00870334 0)
(0.251991 0.0130428 0)
(0.250981 0.018939 0)
(0.249309 0.0270411 0)
(0.247628 0.0380526 0)
(0.248139 0.051537 0)
(0.100037 -4.74864e-05 0)
(0.100109 -2.92821e-05 0)
(0.100134 1.53535e-05 0)
(0.100097 4.71778e-05 0)
(0.100033 5.22437e-05 0)
(0.0999755 3.83154e-05 0)
(0.099941 1.80976e-05 0)
(0.0999314 -6.99578e-07 0)
(0.0999432 -1.63755e-05 0)
(0.0999731 -3.05153e-05 0)
(0.100021 -4.53378e-05 0)
(0.100087 -6.25619e-05 0)
(0.100175 -8.31932e-05 0)
(0.100288 -0.000107741 0)
(0.100429 -0.000136487 0)
(0.100603 -0.000169642 0)
(0.100813 -0.000207421 0)
(0.101063 -0.000250081 0)
(0.101356 -0.000297928 0)
(0.101697 -0.000351333 0)
(0.10209 -0.00041071 0)
(0.10254 -0.000476504 0)
(0.10305 -0.000549188 0)
(0.103626 -0.000629259 0)
(0.104272 -0.000717229 0)
(0.104993 -0.000813616 0)
(0.105795 -0.00091893 0)
(0.106683 -0.00103366 0)
(0.107661 -0.00115826 0)
(0.108735 -0.00129314 0)
(0.109909 -0.00143862 0)
(0.11119 -0.00159499 0)
(0.11258 -0.00176242 0)
(0.114085 -0.00194102 0)
(0.115708 -0.00213075 0)
(0.117453 -0.00233149 0)
(0.119324 -0.002543 0)
(0.121322 -0.00276494 0)
(0.123451 -0.00299682 0)
(0.125711 -0.00323801 0)
(0.128104 -0.00348777 0)
(0.130629 -0.00374524 0)
(0.133287 -0.00400939 0)
(0.136076 -0.00427904 0)
(0.138995 -0.00455289 0)
(0.142041 -0.00482946 0)
(0.145211 -0.0051071 0)
(0.148502 -0.00538396 0)
(0.151907 -0.00565805 0)
(0.155423 -0.00592717 0)
(0.159043 -0.0061889 0)
(0.162761 -0.00644061 0)
(0.166567 -0.0066794 0)
(0.170454 -0.00690214 0)
(0.174413 -0.00710539 0)
(0.178434 -0.00728536 0)
(0.182505 -0.00743787 0)
(0.186615 -0.00755831 0)
(0.190751 -0.00764149 0)
(0.194899 -0.00768158 0)
(0.199045 -0.00767195 0)
(0.203173 -0.00760503 0)
(0.207264 -0.00747197 0)
(0.2113 -0.00726244 0)
(0.215261 -0.00696415 0)
(0.219124 -0.00656229 0)
(0.222864 -0.00603881 0)
(0.226452 -0.00537135 0)
(0.229859 -0.00453187 0)
(0.23305 -0.00348462 0)
(0.235987 -0.00218336 0)
(0.23863 -0.000567316 0)
(0.240931 0.00144412 0)
(0.242849 0.00395806 0)
(0.244353 0.0071171 0)
(0.245437 0.0111106 0)
(0.246148 0.0161836 0)
(0.246632 0.0226312 0)
(0.247207 0.0307451 0)
(0.248458 0.0405975 0)
(0.251327 0.051325 0)
(0.100038 -6.4867e-05 0)
(0.100117 -4.27054e-05 0)
(0.100155 1.59444e-05 0)
(0.10013 5.90923e-05 0)
(0.100075 6.758e-05 0)
(0.100021 5.07204e-05 0)
(0.0999856 2.48446e-05 0)
(0.0999735 1.79353e-07 0)
(0.0999826 -2.07714e-05 0)
(0.10001 -3.98304e-05 0)
(0.100056 -5.97821e-05 0)
(0.100122 -8.28232e-05 0)
(0.100209 -0.000110267 0)
(0.100321 -0.000142798 0)
(0.100461 -0.0001808 0)
(0.100633 -0.00022456 0)
(0.10084 -0.000274366 0)
(0.101086 -0.000330556 0)
(0.101375 -0.000393536 0)
(0.10171 -0.000463784 0)
(0.102096 -0.000541838 0)
(0.102536 -0.000628273 0)
(0.103035 -0.000723702 0)
(0.103598 -0.000828762 0)
(0.104228 -0.000944112 0)
(0.104931 -0.00107042 0)
(0.105712 -0.00120832 0)
(0.106575 -0.00135845 0)
(0.107525 -0.00152138 0)
(0.108567 -0.00169761 0)
(0.109705 -0.00188755 0)
(0.110944 -0.00209155 0)
(0.112288 -0.00230981 0)
(0.113741 -0.00254242 0)
(0.115306 -0.00278932 0)
(0.116987 -0.00305032 0)
(0.118786 -0.00332509 0)
(0.120706 -0.00361312 0)
(0.122747 -0.00391374 0)
(0.124912 -0.00422612 0)
(0.127201 -0.00454924 0)
(0.129613 -0.00488194 0)
(0.132147 -0.00522283 0)
(0.134804 -0.00557035 0)
(0.137579 -0.00592275 0)
(0.140471 -0.00627805 0)
(0.143476 -0.00663406 0)
(0.14659 -0.00698834 0)
(0.149808 -0.00733825 0)
(0.153124 -0.00768086 0)
(0.156532 -0.00801301 0)
(0.160025 -0.00833121 0)
(0.163594 -0.00863168 0)
(0.167233 -0.00891031 0)
(0.17093 -0.0091626 0)
(0.174677 -0.00938361 0)
(0.178462 -0.00956793 0)
(0.182274 -0.00970959 0)
(0.186101 -0.00980192 0)
(0.18993 -0.00983745 0)
(0.193745 -0.00980777 0)
(0.197533 -0.00970326 0)
(0.201278 -0.00951288 0)
(0.204961 -0.00922379 0)
(0.208565 -0.00882091 0)
(0.21207 -0.00828631 0)
(0.215456 -0.00759848 0)
(0.218699 -0.00673129 0)
(0.221777 -0.00565262 0)
(0.224665 -0.00432266 0)
(0.22734 -0.00269157 0)
(0.22978 -0.000696526 0)
(0.231964 0.00174076 0)
(0.233884 0.00471571 0)
(0.235555 0.00834396 0)
(0.237022 0.0127621 0)
(0.238381 0.0181206 0)
(0.239806 0.0245582 0)
(0.24157 0.0321371 0)
(0.24404 0.0406934 0)
(0.247588 0.0495399 0)
(0.100039 -8.46815e-05 0)
(0.100126 -5.99973e-05 0)
(0.100179 1.28007e-05 0)
(0.10017 6.85762e-05 0)
(0.100126 8.213e-05 0)
(0.100076 6.35629e-05 0)
(0.10004 3.25503e-05 0)
(0.100026 1.94682e-06 0)
(0.100032 -2.46944e-05 0)
(0.100057 -4.92097e-05 0)
(0.100101 -7.48396e-05 0)
(0.100166 -0.000104213 0)
(0.100252 -0.000138951 0)
(0.100363 -0.000179927 0)
(0.100502 -0.000227646 0)
(0.100671 -0.000282483 0)
(0.100875 -0.000344806 0)
(0.101117 -0.000415041 0)
(0.1014 -0.000493696 0)
(0.101728 -0.000581361 0)
(0.102104 -0.000678696 0)
(0.102533 -0.000786403 0)
(0.103019 -0.000905228 0)
(0.103566 -0.00103595 0)
(0.104179 -0.00117936 0)
(0.104861 -0.00133627 0)
(0.105617 -0.00150745 0)
(0.106451 -0.00169364 0)
(0.107369 -0.00189552 0)
(0.108374 -0.00211368 0)
(0.10947 -0.0023486 0)
(0.110661 -0.00260065 0)
(0.111952 -0.00287005 0)
(0.113345 -0.00315686 0)
(0.114843 -0.00346097 0)
(0.11645 -0.00378209 0)
(0.118167 -0.00411977 0)
(0.119995 -0.00447332 0)
(0.121937 -0.00484187 0)
(0.123993 -0.00522433 0)
(0.126163 -0.00561941 0)
(0.128445 -0.00602557 0)
(0.13084 -0.00644107 0)
(0.133345 -0.00686392 0)
(0.135957 -0.00729189 0)
(0.138674 -0.00772247 0)
(0.141492 -0.00815289 0)
(0.144405 -0.00858009 0)
(0.147409 -0.00900075 0)
(0.150499 -0.00941121 0)
(0.153667 -0.00980749 0)
(0.156906 -0.0101853 0)
(0.160208 -0.0105398 0)
(0.163566 -0.0108661 0)
(0.166969 -0.0111585 0)
(0.170408 -0.0114109 0)
(0.173872 -0.0116168 0)
(0.177351 -0.0117689 0)
(0.180832 -0.011859 0)
(0.184303 -0.0118783 0)
(0.187751 -0.0118166 0)
(0.191162 -0.0116626 0)
(0.194521 -0.0114033 0)
(0.197814 -0.011024 0)
(0.201025 -0.0105074 0)
(0.204138 -0.00983357 0)
(0.207136 -0.00897877 0)
(0.210002 -0.00791503 0)
(0.212722 -0.00660891 0)
(0.215281 -0.00502026 0)
(0.217666 -0.00310081 0)
(0.219874 -0.000792693 0)
(0.221902 0.00197185 0)
(0.223766 0.00526763 0)
(0.225501 0.00917551 0)
(0.22717 0.0137786 0)
(0.228872 0.0191502 0)
(0.230748 0.0253304 0)
(0.232981 0.0322812 0)
(0.235768 0.0398124 0)
(0.239231 0.0474783 0)
(0.10004 -0.000107286 0)
(0.100136 -8.20273e-05 0)
(0.100205 4.75164e-06 0)
(0.100214 7.45539e-05 0)
(0.100182 9.51981e-05 0)
(0.100138 7.65734e-05 0)
(0.100103 4.12469e-05 0)
(0.100086 4.77089e-06 0)
(0.100089 -2.7956e-05 0)
(0.100111 -5.85257e-05 0)
(0.100154 -9.04477e-05 0)
(0.100217 -0.00012672 0)
(0.100302 -0.000169261 0)
(0.100411 -0.000219149 0)
(0.100548 -0.000277027 0)
(0.100715 -0.000343372 0)
(0.100915 -0.000418645 0)
(0.101151 -0.000503369 0)
(0.101428 -0.000598156 0)
(0.101747 -0.000703708 0)
(0.102113 -0.000820803 0)
(0.102529 -0.000950269 0)
(0.103 -0.00109298 0)
(0.103529 -0.00124985 0)
(0.104121 -0.00142179 0)
(0.104778 -0.00160974 0)
(0.105506 -0.00181459 0)
(0.106308 -0.00203718 0)
(0.107189 -0.00227826 0)
(0.108151 -0.0025385 0)
(0.1092 -0.00281842 0)
(0.110338 -0.0031184 0)
(0.111568 -0.00343864 0)
(0.112894 -0.00377916 0)
(0.114318 -0.00413976 0)
(0.115842 -0.00452003 0)
(0.117467 -0.00491935 0)
(0.119195 -0.00533685 0)
(0.121027 -0.0057714 0)
(0.122962 -0.00622165 0)
(0.125 -0.00668595 0)
(0.127139 -0.00716243 0)
(0.129379 -0.00764891 0)
(0.131717 -0.00814296 0)
(0.13415 -0.00864181 0)
(0.136675 -0.00914242 0)
(0.139286 -0.00964141 0)
(0.141981 -0.0101351 0)
(0.144752 -0.0106193 0)
(0.147594 -0.0110898 0)
(0.1505 -0.0115417 0)
(0.153463 -0.0119699 0)
(0.156476 -0.0123686 0)
(0.159528 -0.0127319 0)
(0.162613 -0.0130531 0)
(0.165719 -0.0133251 0)
(0.168838 -0.01354 0)
(0.171957 -0.0136895 0)
(0.175067 -0.0137641 0)
(0.178156 -0.0137535 0)
(0.181211 -0.0136464 0)
(0.18422 -0.0134298 0)
(0.187172 -0.0130896 0)
(0.190052 -0.0126094 0)
(0.192848 -0.0119709 0)
(0.195548 -0.0111529 0)
(0.19814 -0.0101312 0)
(0.200612 -0.00887784 0)
(0.202957 -0.00736061 0)
(0.205168 -0.00554219 0)
(0.207243 -0.00337979 0)
(0.209188 -0.000824791 0)
(0.211013 0.00217628 0)
(0.212744 0.00567575 0)
(0.214424 0.00972238 0)
(0.216111 0.0143574 0)
(0.217886 0.0196043 0)
(0.219848 0.0254533 0)
(0.222103 0.0318373 0)
(0.224745 0.0386024 0)
(0.227797 0.04548 0)
(0.100041 -0.000132943 0)
(0.100145 -0.000109494 0)
(0.10023 -9.20919e-06 0)
(0.100258 7.6015e-05 0)
(0.10024 0.000106032 0)
(0.100204 8.93507e-05 0)
(0.10017 5.08222e-05 0)
(0.10015 8.70324e-06 0)
(0.10015 -3.04536e-05 0)
(0.100171 -6.76777e-05 0)
(0.100211 -0.000106536 0)
(0.100272 -0.000150299 0)
(0.100356 -0.00020116 0)
(0.100464 -0.000260415 0)
(0.100598 -0.00032886 0)
(0.100761 -0.000407092 0)
(0.100956 -0.000495677 0)
(0.101187 -0.000595243 0)
(0.101455 -0.000706508 0)
(0.101764 -0.000830288 0)
(0.102118 -0.000967474 0)
(0.10252 -0.00111902 0)
(0.102973 -0.00128591 0)
(0.103482 -0.00146918 0)
(0.104049 -0.00166987 0)
(0.104679 -0.00188901 0)
(0.105375 -0.00212759 0)
(0.10614 -0.00238653 0)
(0.106979 -0.00266665 0)
(0.107895 -0.00296865 0)
(0.108891 -0.00329306 0)
(0.109969 -0.00364026 0)
(0.111133 -0.00401038 0)
(0.112385 -0.00440338 0)
(0.113727 -0.00481893 0)
(0.115159 -0.00525648 0)
(0.116685 -0.0057152 0)
(0.118302 -0.006194 0)
(0.120013 -0.00669148 0)
(0.121817 -0.00720595 0)
(0.123712 -0.00773544 0)
(0.125697 -0.00827765 0)
(0.12777 -0.00882997 0)
(0.129927 -0.00938946 0)
(0.132167 -0.00995283 0)
(0.134485 -0.0105164 0)
(0.136876 -0.0110763 0)
(0.139335 -0.011628 0)
(0.141857 -0.0121667 0)
(0.144435 -0.0126873 0)
(0.147063 -0.0131843 0)
(0.149733 -0.0136514 0)
(0.152438 -0.0140822 0)
(0.155168 -0.0144698 0)
(0.157917 -0.0148064 0)
(0.160673 -0.0150839 0)
(0.163428 -0.0152935 0)
(0.166172 -0.0154256 0)
(0.168895 -0.0154698 0)
(0.171585 -0.0154146 0)
(0.174233 -0.0152476 0)
(0.176827 -0.014955 0)
(0.179358 -0.0145215 0)
(0.181814 -0.0139304 0)
(0.184186 -0.0131627 0)
(0.186465 -0.0121976 0)
(0.188643 -0.0110114 0)
(0.190714 -0.00957799 0)
(0.192675 -0.00786831 0)
(0.194527 -0.00585014 0)
(0.196273 -0.00348817 0)
(0.197927 -0.000744311 0)
(0.1995 0.00242033 0)
(0.201025 0.00603759 0)
(0.202539 0.0101314 0)
(0.204091 0.0147153 0)
(0.205738 0.0197857 0)
(0.207544 0.0253134 0)
(0.209567 0.0312333 0)
(0.211844 0.0374354 0)
(0.214367 0.0437635 0)
(0.100042 -0.000161786 0)
(0.100153 -0.000142828 0)
(0.100254 -2.98014e-05 0)
(0.100299 7.21202e-05 0)
(0.100296 0.000113882 0)
(0.100267 0.000101366 0)
(0.100236 6.09878e-05 0)
(0.100216 1.36412e-05 0)
(0.100214 -3.21816e-05 0)
(0.100232 -7.66089e-05 0)
(0.10027 -0.000123027 0)
(0.100329 -0.000174862 0)
(0.100411 -0.000234545 0)
(0.100516 -0.000303586 0)
(0.100647 -0.000382952 0)
(0.100806 -0.000473376 0)
(0.100996 -0.000575542 0)
(0.101218 -0.000690188 0)
(0.101477 -0.000818145 0)
(0.101775 -0.000960337 0)
(0.102114 -0.00111777 0)
(0.102499 -0.00129149 0)
(0.102933 -0.00148262 0)
(0.103418 -0.00169229 0)
(0.103958 -0.00192163 0)
(0.104556 -0.00217177 0)
(0.105217 -0.00244376 0)
(0.105942 -0.00273857 0)
(0.106735 -0.00305707 0)
(0.107599 -0.00339996 0)
(0.108536 -0.00376776 0)
(0.109549 -0.00416078 0)
(0.11064 -0.00457909 0)
(0.111811 -0.00502251 0)
(0.113063 -0.00549059 0)
(0.114397 -0.00598257 0)
(0.115813 -0.0064974 0)
(0.117312 -0.00703371 0)
(0.118893 -0.0075898 0)
(0.120555 -0.00816365 0)
(0.122296 -0.00875288 0)
(0.124115 -0.00935475 0)
(0.12601 -0.00996619 0)
(0.127976 -0.0105837 0)
(0.13001 -0.0112035 0)
(0.132108 -0.0118213 0)
(0.134266 -0.0124324 0)
(0.136477 -0.0130318 0)
(0.138736 -0.0136139 0)
(0.141038 -0.0141728 0)
(0.143374 -0.0147021 0)
(0.145738 -0.0151949 0)
(0.148122 -0.0156438 0)
(0.150518 -0.0160409 0)
(0.152918 -0.0163777 0)
(0.155313 -0.0166451 0)
(0.157694 -0.0168333 0)
(0.160053 -0.016932 0)
(0.162378 -0.0169297 0)
(0.164663 -0.0168143 0)
(0.166897 -0.0165727 0)
(0.169071 -0.0161905 0)
(0.171178 -0.0156522 0)
(0.173208 -0.0149409 0)
(0.175155 -0.0140383 0)
(0.177014 -0.0129245 0)
(0.17878 -0.0115779 0)
(0.18045 -0.00997535 0)
(0.182027 -0.00809208 0)
(0.183513 -0.00590208 0)
(0.184918 -0.00337805 0)
(0.186257 -0.000490669 0)
(0.187537 0.00278579 0)
(0.188796 0.0064651 0)
(0.190061 0.0105544 0)
(0.19137 0.0150514 0)
(0.192762 0.0199405 0)
(0.194274 0.0251888 0)
(0.195939 0.0307431 0)
(0.197768 0.0365287 0)
(0.199747 0.0424559 0)
(0.100042 -0.000193805 0)
(0.100159 -0.000182156 0)
(0.100272 -5.7384e-05 0)
(0.100335 6.22867e-05 0)
(0.100345 0.000118065 0)
(0.100326 0.000112001 0)
(0.100299 7.12947e-05 0)
(0.100279 1.93246e-05 0)
(0.100275 -3.32416e-05 0)
(0.100291 -8.53087e-05 0)
(0.100327 -0.000139837 0)
(0.100385 -0.000200267 0)
(0.100464 -0.000269216 0)
(0.100566 -0.000348399 0)
(0.100693 -0.000438962 0)
(0.100846 -0.000541787 0)
(0.101028 -0.000657685 0)
(0.101242 -0.000787511 0)
(0.10149 -0.000932209 0)
(0.101774 -0.00109281 0)
(0.102097 -0.00127041 0)
(0.102463 -0.00146618 0)
(0.102873 -0.00168133 0)
(0.103332 -0.00191706 0)
(0.103842 -0.00217461 0)
(0.104406 -0.00245514 0)
(0.105026 -0.00275976 0)
(0.105706 -0.00308947 0)
(0.106448 -0.00344513 0)
(0.107255 -0.00382741 0)
(0.108128 -0.00423679 0)
(0.10907 -0.00467347 0)
(0.110081 -0.00513743 0)
(0.111164 -0.00562832 0)
(0.112319 -0.0061455 0)
(0.113546 -0.00668799 0)
(0.114845 -0.00725447 0)
(0.116216 -0.00784328 0)
(0.117658 -0.00845238 0)
(0.119169 -0.00907934 0)
(0.120748 -0.00972138 0)
(0.122391 -0.0103753 0)
(0.124096 -0.0110375 0)
(0.12586 -0.011704 0)
(0.127678 -0.0123704 0)
(0.129547 -0.0130317 0)
(0.13146 -0.0136827 0)
(0.133413 -0.0143175 0)
(0.135399 -0.01493 0)
(0.137413 -0.0155134 0)
(0.139448 -0.0160606 0)
(0.141496 -0.0165639 0)
(0.143551 -0.0170151 0)
(0.145605 -0.0174054 0)
(0.147649 -0.0177256 0)
(0.149676 -0.0179659 0)
(0.151678 -0.0181157 0)
(0.153647 -0.018164 0)
(0.155574 -0.0180987 0)
(0.157452 -0.0179074 0)
(0.159273 -0.0175765 0)
(0.16103 -0.0170917 0)
(0.162717 -0.0164378 0)
(0.164328 -0.0155985 0)
(0.165858 -0.0145566 0)
(0.167304 -0.0132942 0)
(0.168666 -0.0117922 0)
(0.169943 -0.0100312 0)
(0.17114 -0.00799132 0)
(0.172262 -0.00565254 0)
(0.173322 -0.00299478 0)
(0.174322 3.82553e-06 0)
(0.17529 0.00335657 0)
(0.176246 0.00706427 0)
(0.177214 0.0111239 0)
(0.178221 0.0155252 0)
(0.179294 0.0202488 0)
(0.180455 0.0252644 0)
(0.18172 0.0305308 0)
(0.183095 0.0359982 0)
(0.184568 0.0416145 0)
(0.100042 -0.000228866 0)
(0.100162 -0.000227308 0)
(0.100286 -9.19495e-05 0)
(0.100362 4.62282e-05 0)
(0.100386 0.00011804 0)
(0.100376 0.000120626 0)
(0.100354 8.119e-05 0)
(0.100336 2.53748e-05 0)
(0.100332 -3.38203e-05 0)
(0.100346 -9.37968e-05 0)
(0.10038 -0.000156852 0)
(0.100435 -0.000226299 0)
(0.100511 -0.000304862 0)
(0.100609 -0.000394446 0)
(0.10073 -0.000496374 0)
(0.100877 -0.000611682 0)
(0.101051 -0.000741319 0)
(0.101254 -0.000886258 0)
(0.101488 -0.00104755 0)
(0.101757 -0.00122632 0)
(0.102061 -0.00142378 0)
(0.102405 -0.00164116 0)
(0.10279 -0.00187976 0)
(0.10322 -0.00214086 0)
(0.103696 -0.00242573 0)
(0.104221 -0.00273557 0)
(0.104797 -0.00307152 0)
(0.105428 -0.00343455 0)
(0.106114 -0.00382549 0)
(0.106858 -0.00424496 0)
(0.107661 -0.00469331 0)
(0.108525 -0.00517065 0)
(0.109451 -0.00567678 0)
(0.110439 -0.00621117 0)
(0.111489 -0.00677294 0)
(0.112602 -0.00736085 0)
(0.113776 -0.00797329 0)
(0.115011 -0.00860826 0)
(0.116305 -0.00926334 0)
(0.117657 -0.0099357 0)
(0.119063 -0.0106221 0)
(0.120522 -0.0113189 0)
(0.122029 -0.0120219 0)
(0.123581 -0.0127265 0)
(0.125175 -0.0134278 0)
(0.126804 -0.0141202 0)
(0.128464 -0.0147978 0)
(0.13015 -0.0154541 0)
(0.131856 -0.0160822 0)
(0.133576 -0.0166747 0)
(0.135302 -0.0172236 0)
(0.137029 -0.0177206 0)
(0.13875 -0.0181568 0)
(0.140457 -0.0185228 0)
(0.142143 -0.0188087 0)
(0.143801 -0.0190039 0)
(0.145425 -0.0190977 0)
(0.147006 -0.0190783 0)
(0.148539 -0.0189336 0)
(0.150016 -0.0186509 0)
(0.151432 -0.0182169 0)
(0.152782 -0.0176176 0)
(0.154061 -0.0168386 0)
(0.155265 -0.0158649 0)
(0.156393 -0.014681 0)
(0.157443 -0.0132712 0)
(0.158417 -0.0116196 0)
(0.159317 -0.00971061 0)
(0.160148 -0.00752884 0)
(0.160917 -0.00505944 0)
(0.161637 -0.00228781 0)
(0.162302 0.000799876 0)
(0.162951 0.00420481 0)
(0.163593 0.0079213 0)
(0.164248 0.0119406 0)
(0.164937 0.016249 0)
(0.165677 0.0208269 0)
(0.166483 0.025648 0)
(0.167365 0.0306812 0)
(0.168326 0.0358919 0)
(0.169358 0.0412493 0)
(0.100041 -0.000266755 0)
(0.100164 -0.000277895 0)
(0.100294 -0.000133185 0)
(0.100382 2.39491e-05 0)
(0.100418 0.000113457 0)
(0.100417 0.000126679 0)
(0.1004 9.01064e-05 0)
(0.100385 3.13662e-05 0)
(0.100381 -3.41379e-05 0)
(0.100394 -0.000102089 0)
(0.100426 -0.00017391 0)
(0.100478 -0.00025264 0)
(0.100549 -0.000341033 0)
(0.100642 -0.000441145 0)
(0.100757 -0.000554467 0)
(0.100895 -0.000682188 0)
(0.101059 -0.000825393 0)
(0.10125 -0.000985171 0)
(0.101469 -0.00116268 0)
(0.101719 -0.00135913 0)
(0.102003 -0.0015758 0)
(0.102322 -0.00181402 0)
(0.102679 -0.00207512 0)
(0.103075 -0.00236044 0)
(0.103514 -0.00267126 0)
(0.103996 -0.0030088 0)
(0.104525 -0.00337415 0)
(0.105101 -0.00376826 0)
(0.105726 -0.00419187 0)
(0.106402 -0.00464548 0)
(0.10713 -0.00512934 0)
(0.107911 -0.00564336 0)
(0.108744 -0.00618716 0)
(0.10963 -0.00675996 0)
(0.110569 -0.00736063 0)
(0.11156 -0.00798763 0)
(0.112602 -0.00863901 0)
(0.113693 -0.00931239 0)
(0.114832 -0.010005 0)
(0.116016 -0.0107135 0)
(0.117243 -0.0114342 0)
(0.118509 -0.0121629 0)
(0.11981 -0.012895 0)
(0.121144 -0.0136253 0)
(0.122505 -0.0143482 0)
(0.123889 -0.0150577 0)
(0.12529 -0.015747 0)
(0.126704 -0.0164091 0)
(0.128124 -0.0170364 0)
(0.129545 -0.0176209 0)
(0.130961 -0.018154 0)
(0.132365 -0.0186268 0)
(0.133751 -0.0190298 0)
(0.135112 -0.019353 0)
(0.136443 -0.0195861 0)
(0.137737 -0.0197182 0)
(0.138989 -0.0197382 0)
(0.140191 -0.0196342 0)
(0.14134 -0.0193943 0)
(0.142429 -0.019006 0)
(0.143455 -0.0184564 0)
(0.144415 -0.0177324 0)
(0.145305 -0.0168208 0)
(0.146124 -0.0157082 0)
(0.146872 -0.0143812 0)
(0.147549 -0.0128268 0)
(0.148159 -0.0110322 0)
(0.148705 -0.00898557 0)
(0.149193 -0.00667562 0)
(0.149632 -0.00409138 0)
(0.150029 -0.0012208 0)
(0.150378 0.00194122 0)
(0.150722 0.00538237 0)
(0.151066 0.00909441 0)
(0.151425 0.0130669 0)
(0.151815 0.0172854 0)
(0.152249 0.0217316 0)
(0.152738 0.0263834 0)
(0.153288 0.031216 0)
(0.153902 0.0362045 0)
(0.154578 0.041329 0)
(0.100041 -0.000307212 0)
(0.100163 -0.00033339 0)
(0.100298 -0.000180554 0)
(0.100393 -4.29283e-06 0)
(0.100439 0.000104184 0)
(0.100447 0.00012975 0)
(0.100436 9.75576e-05 0)
(0.100424 3.69129e-05 0)
(0.100421 -3.43834e-05 0)
(0.100433 -0.00011015 0)
(0.100462 -0.000190766 0)
(0.10051 -0.000278856 0)
(0.100577 -0.000377122 0)
(0.100663 -0.000487721 0)
(0.10077 -0.000612291 0)
(0.100899 -0.000752166 0)
(0.10105 -0.000908555 0)
(0.101226 -0.00108266 0)
(0.101429 -0.00127572 0)
(0.101659 -0.00148904 0)
(0.101919 -0.00172395 0)
(0.10221 -0.00198183 0)
(0.102535 -0.00226404 0)
(0.102896 -0.00257193 0)
(0.103293 -0.00290677 0)
(0.103729 -0.00326975 0)
(0.104205 -0.00366191 0)
(0.104722 -0.00408409 0)
(0.105282 -0.00453693 0)
(0.105885 -0.00502077 0)
(0.106531 -0.00553568 0)
(0.107222 -0.00608137 0)
(0.107957 -0.00665722 0)
(0.108735 -0.00726217 0)
(0.109557 -0.00789479 0)
(0.110419 -0.00855321 0)
(0.111322 -0.00923512 0)
(0.112263 -0.00993774 0)
(0.11324 -0.0106578 0)
(0.11425 -0.0113917 0)
(0.115291 -0.0121351 0)
(0.116358 -0.0128833 0)
(0.117449 -0.0136312 0)
(0.118558 -0.0143731 0)
(0.119682 -0.0151027 0)
(0.120817 -0.0158135 0)
(0.121956 -0.0164981 0)
(0.123095 -0.017149 0)
(0.124229 -0.0177579 0)
(0.125351 -0.0183164 0)
(0.126458 -0.0188152 0)
(0.127541 -0.0192451 0)
(0.128598 -0.019596 0)
(0.129621 -0.0198578 0)
(0.130605 -0.0200198 0)
(0.131545 -0.020071 0)
(0.132437 -0.0200002 0)
(0.133276 -0.019796 0)
(0.134058 -0.0194465 0)
(0.13478 -0.01894 0)
(0.135438 -0.0182644 0)
(0.136032 -0.0174079 0)
(0.136561 -0.0163586 0)
(0.137023 -0.0151052 0)
(0.137422 -0.0136365 0)
(0.137758 -0.011942 0)
(0.138037 -0.0100122 0)
(0.138261 -0.00783834 0)
(0.138439 -0.00541214 0)
(0.138578 -0.00272467 0)
(0.138669 0.000232692 0)
(0.13875 0.00344751 0)
(0.138828 0.00690586 0)
(0.138914 0.0105988 0)
(0.139021 0.0145157 0)
(0.139161 0.0186425 0)
(0.139343 0.0229623 0)
(0.139577 0.0274558 0)
(0.139868 0.0321026 0)
(0.140219 0.0368829 0)
(0.140631 0.0417827 0)
(0.10004 -0.000349965 0)
(0.100161 -0.000393196 0)
(0.100297 -0.000233382 0)
(0.100398 -3.80357e-05 0)
(0.10045 9.03205e-05 0)
(0.100466 0.000129635 0)
(0.100461 0.000103219 0)
(0.100452 4.175e-05 0)
(0.10045 -3.46469e-05 0)
(0.100461 -0.000117847 0)
(0.100487 -0.000207058 0)
(0.100531 -0.00030437 0)
(0.100592 -0.000412343 0)
(0.10067 -0.000533182 0)
(0.100768 -0.00066864 0)
(0.100885 -0.000820184 0)
(0.101022 -0.000989124 0)
(0.101182 -0.00117676 0)
(0.101365 -0.00138441 0)
(0.101572 -0.00161343 0)
(0.101806 -0.0018652 0)
(0.102067 -0.00214111 0)
(0.102357 -0.00244253 0)
(0.102678 -0.00277078 0)
(0.10303 -0.00312709 0)
(0.103416 -0.00351258 0)
(0.103835 -0.00392817 0)
(0.104289 -0.0043746 0)
(0.104778 -0.00485233 0)
(0.105303 -0.0053615 0)
(0.105864 -0.00590198 0)
(0.10646 -0.00647323 0)
(0.107091 -0.00707433 0)
(0.107756 -0.00770393 0)
(0.108454 -0.00836027 0)
(0.109182 -0.00904111 0)
(0.109941 -0.00974374 0)
(0.110726 -0.010465 0)
(0.111536 -0.0112011 0)
(0.112368 -0.011948 0)
(0.113218 -0.012701 0)
(0.114083 -0.0134548 0)
(0.114959 -0.0142038 0)
(0.115842 -0.0149417 0)
(0.116727 -0.0156618 0)
(0.117612 -0.0163569 0)
(0.118489 -0.0170194 0)
(0.119356 -0.017641 0)
(0.120206 -0.0182131 0)
(0.121035 -0.0187267 0)
(0.121838 -0.0191725 0)
(0.12261 -0.0195405 0)
(0.123347 -0.0198209 0)
(0.124044 -0.020003 0)
(0.124696 -0.0200764 0)
(0.1253 -0.0200302 0)
(0.125853 -0.0198534 0)
(0.12635 -0.0195351 0)
(0.126791 -0.0190641 0)
(0.127172 -0.0184295 0)
(0.127493 -0.0176205 0)
(0.127755 -0.0166268 0)
(0.127956 -0.0154381 0)
(0.128099 -0.0140452 0)
(0.128187 -0.0124392 0)
(0.128224 -0.0106122 0)
(0.128212 -0.00855721 0)
(0.128159 -0.00626794 0)
(0.128071 -0.00373781 0)
(0.127949 -0.000959795 0)
(0.1278 0.00206017 0)
(0.127658 0.00530096 0)
(0.127523 0.00875338 0)
(0.127408 0.0124089 0)
(0.127322 0.0162564 0)
(0.127275 0.0202822 0)
(0.127275 0.0244706 0)
(0.127329 0.028804 0)
(0.127443 0.0332644 0)
(0.127619 0.0378352 0)
(0.127862 0.0425047 0)
(0.100039 -0.000394737 0)
(0.100157 -0.000456695 0)
(0.100292 -0.000290911 0)
(0.100395 -7.66584e-05 0)
(0.100453 7.21867e-05 0)
(0.100474 0.00012637 0)
(0.100475 0.000106984 0)
(0.100469 4.57944e-05 0)
(0.100467 -3.48639e-05 0)
(0.100477 -0.000124901 0)
(0.1005 -0.000222277 0)
(0.100538 -0.000328428 0)
(0.100592 -0.000445703 0)
(0.100662 -0.000576299 0)
(0.100748 -0.000722043 0)
(0.100852 -0.0008845 0)
(0.100974 -0.00106507 0)
(0.101114 -0.00126512 0)
(0.101275 -0.00148604 0)
(0.101457 -0.00172919 0)
(0.101662 -0.00199598 0)
(0.10189 -0.00228779 0)
(0.102142 -0.00260595 0)
(0.10242 -0.00295173 0)
(0.102724 -0.00332628 0)
(0.103055 -0.00373059 0)
(0.103414 -0.00416546 0)
(0.103801 -0.00463142 0)
(0.104216 -0.00512874 0)
(0.104658 -0.00565736 0)
(0.105128 -0.00621685 0)
(0.105625 -0.00680639 0)
(0.106148 -0.00742476 0)
(0.106695 -0.00807027 0)
(0.107265 -0.00874079 0)
(0.107856 -0.00943371 0)
(0.108466 -0.0101459 0)
(0.109092 -0.0108738 0)
(0.109731 -0.0116132 0)
(0.110382 -0.0123595 0)
(0.111039 -0.0131076 0)
(0.111701 -0.0138518 0)
(0.112362 -0.0145859 0)
(0.113019 -0.0153033 0)
(0.113669 -0.0159966 0)
(0.114306 -0.0166584 0)
(0.114927 -0.0172804 0)
(0.115527 -0.0178542 0)
(0.116102 -0.0183708 0)
(0.116647 -0.018821 0)
(0.11716 -0.0191951 0)
(0.117635 -0.0194832 0)
(0.118069 -0.0196753 0)
(0.118458 -0.0197611 0)