/*--------------------------------*- C++ -*----------------------------------*\
  =========                 |
  \\      /  F ield         | OpenFOAM: The Open Source CFD Toolbox
   \\    /   O peration     | Website:  https://openfoam.org
    \\  /    A nd           | Version:  7
     \\/     M anipulation  |
\*---------------------------------------------------------------------------*/
FoamFile
{
    version     2.0;
    format      ascii;
    class       volVectorField;
    location    "6.29";
    object      U;
}
// * * * * * * * * * * * * * * * * * * * * * * * * * * * * * * * * * * * * * //

dimensions      [0 1 -1 0 0 0 0];

internalField   nonuniform List<vector> 
12013
(
(0.100794 -0.00021453 0)
(0.103916 -0.00037805 0)
(0.108724 -0.000521938 0)
(0.114761 -0.000650316 0)
(0.121891 -0.000768183 0)
(0.129989 -0.000879064 0)
(0.13896 -0.000985637 0)
(0.148735 -0.00108996 0)
(0.159267 -0.00119339 0)
(0.170517 -0.00129655 0)
(0.18245 -0.00139935 0)
(0.195031 -0.00150099 0)
(0.208213 -0.00160011 0)
(0.22194 -0.00169497 0)
(0.236142 -0.00178363 0)
(0.250739 -0.00186421 0)
(0.265639 -0.00193501 0)
(0.280745 -0.00199467 0)
(0.295955 -0.00204222 0)
(0.311169 -0.00207713 0)
(0.32629 -0.00209926 0)
(0.341225 -0.00210883 0)
(0.355892 -0.00210636 0)
(0.370217 -0.00209258 0)
(0.384136 -0.0020684 0)
(0.397595 -0.0020348 0)
(0.410552 -0.00199282 0)
(0.422971 -0.0019435 0)
(0.434829 -0.00188786 0)
(0.446107 -0.00182688 0)
(0.456797 -0.00176144 0)
(0.466894 -0.00169238 0)
(0.476401 -0.00162048 0)
(0.485323 -0.00154641 0)
(0.493671 -0.00147077 0)
(0.501459 -0.00139414 0)
(0.508703 -0.00131697 0)
(0.515421 -0.00123967 0)
(0.521634 -0.00116262 0)
(0.527363 -0.00108615 0)
(0.53263 -0.0010105 0)
(0.537458 -0.000935896 0)
(0.541872 -0.000862535 0)
(0.545895 -0.000790579 0)
(0.549552 -0.000720135 0)
(0.552867 -0.000651281 0)
(0.555863 -0.000584075 0)
(0.558565 -0.000518541 0)
(0.560995 -0.000454663 0)
(0.563177 -0.000392387 0)
(0.565134 -0.000331627 0)
(0.566886 -0.000272258 0)
(0.568456 -0.000214108 0)
(0.569864 -0.000156953 0)
(0.571129 -0.000100511 0)
(0.572271 -4.44455e-05 0)
(0.573306 1.1628e-05 0)
(0.574252 6.81681e-05 0)
(0.575125 0.000125728 0)
(0.575938 0.000185002 0)
(0.576706 0.000246837 0)
(0.577438 0.000312263 0)
(0.578145 0.000382533 0)
(0.578833 0.000459184 0)
(0.579506 0.000544126 0)
(0.580164 0.000639752 0)
(0.580802 0.000749108 0)
(0.581411 0.000876137 0)
(0.581972 0.00102606 0)
(0.582458 0.00120592 0)
(0.582825 0.00142558 0)
(0.583013 0.00169921 0)
(0.582927 0.00204802 0)
(0.582429 0.00250513 0)
(0.581305 0.00312482 0)
(0.579219 0.004001 0)
(0.575612 0.00530593 0)
(0.569506 0.00738204 0)
(0.559136 0.0110391 0)
(0.541417 0.019157 0)
(0.523465 0.051361 0)
(0.100725 -0.00065384 0)
(0.103832 -0.00115743 0)
(0.108616 -0.00159829 0)
(0.114633 -0.00199099 0)
(0.121746 -0.00235133 0)
(0.129829 -0.00269007 0)
(0.138786 -0.00301544 0)
(0.14855 -0.00333377 0)
(0.159072 -0.00364922 0)
(0.170314 -0.00396375 0)
(0.182244 -0.00427703 0)
(0.194823 -0.00458668 0)
(0.208007 -0.00488856 0)
(0.22174 -0.00517735 0)
(0.235952 -0.00544723 0)
(0.250564 -0.00569242 0)
(0.265482 -0.00590782 0)
(0.280609 -0.00608929 0)
(0.295844 -0.00623395 0)
(0.311084 -0.00634016 0)
(0.326233 -0.00640754 0)
(0.341197 -0.00643676 0)
(0.355893 -0.0064294 0)
(0.370246 -0.00638769 0)
(0.384193 -0.00631436 0)
(0.39768 -0.00621239 0)
(0.410662 -0.00608493 0)
(0.423106 -0.00593513 0)
(0.434986 -0.00576606 0)
(0.446286 -0.00558065 0)
(0.456995 -0.00538165 0)
(0.467109 -0.00517156 0)
(0.476631 -0.0049527 0)
(0.485567 -0.00472715 0)
(0.493927 -0.00449675 0)
(0.501725 -0.00426315 0)
(0.508977 -0.00402781 0)
(0.515702 -0.00379201 0)
(0.52192 -0.00355685 0)
(0.527651 -0.00332328 0)
(0.53292 -0.00309212 0)
(0.537748 -0.00286407 0)
(0.54216 -0.00263971 0)
(0.54618 -0.00241949 0)
(0.549832 -0.00220377 0)
(0.553139 -0.00199282 0)
(0.556126 -0.00178681 0)
(0.558817 -0.00158579 0)
(0.561234 -0.00138971 0)
(0.563402 -0.00119844 0)
(0.565341 -0.0010117 0)
(0.567074 -0.000829101 0)
(0.568622 -0.000650116 0)
(0.570005 -0.000474055 0)
(0.571243 -0.000300065 0)
(0.572354 -0.00012711 0)
(0.573356 4.59853e-05 0)
(0.574266 0.000220587 0)
(0.575099 0.000398366 0)
(0.57587 0.000581427 0)
(0.576591 0.000772345 0)
(0.577274 0.000974238 0)
(0.577928 0.0011909 0)
(0.57856 0.00142698 0)
(0.579174 0.00168821 0)
(0.579771 0.00198177 0)
(0.580347 0.00231675 0)
(0.580894 0.00270484 0)
(0.581397 0.00316138 0)
(0.581831 0.00370699 0)
(0.582161 0.00437004 0)
(0.582335 0.00519082 0)
(0.582278 0.00622837 0)
(0.581886 0.00757252 0)
(0.581007 0.00936541 0)
(0.579427 0.0118415 0)
(0.576841 0.0154039 0)
(0.572823 0.0207757 0)
(0.566828 0.0293297 0)
(0.558765 0.0437387 0)
(0.556407 0.0689524 0)
(0.100648 -0.00110836 0)
(0.103711 -0.00198341 0)
(0.108444 -0.00274334 0)
(0.114419 -0.00341991 0)
(0.121496 -0.00404061 0)
(0.129547 -0.00462399 0)
(0.138476 -0.00518432 0)
(0.148216 -0.00573259 0)
(0.158718 -0.00627603 0)
(0.169947 -0.00681806 0)
(0.181868 -0.00735817 0)
(0.194445 -0.00789225 0)
(0.207636 -0.00841316 0)
(0.221383 -0.00891173 0)
(0.235619 -0.00937784 0)
(0.250261 -0.00980151 0)
(0.265218 -0.0101739 0)
(0.280391 -0.0104877 0)
(0.295676 -0.0107381 0)
(0.310971 -0.010922 0)
(0.326178 -0.011039 0)
(0.341201 -0.01109 0)
(0.355957 -0.0110779 0)
(0.37037 -0.0110064 0)
(0.384375 -0.0108803 0)
(0.397917 -0.0107048 0)
(0.410952 -0.0104852 0)
(0.423446 -0.0102271 0)
(0.435373 -0.00993566 0)
(0.446715 -0.009616 0)
(0.457463 -0.00927285 0)
(0.467613 -0.00891057 0)
(0.477166 -0.00853311 0)
(0.48613 -0.00814407 0)
(0.494514 -0.00774664 0)
(0.502333 -0.00734367 0)
(0.509602 -0.00693766 0)
(0.51634 -0.00653078 0)
(0.522568 -0.00612496 0)
(0.528307 -0.00572182 0)
(0.53358 -0.00532279 0)
(0.538409 -0.00492904 0)
(0.542819 -0.00454155 0)
(0.546834 -0.0041611 0)
(0.550477 -0.00378833 0)
(0.553773 -0.00342366 0)
(0.556745 -0.00306737 0)
(0.559417 -0.00271953 0)
(0.561813 -0.00238008 0)
(0.563955 -0.00204874 0)
(0.565865 -0.00172504 0)
(0.567565 -0.00140829 0)
(0.569075 -0.00109756 0)
(0.570417 -0.00079167 0)
(0.571609 -0.000489146 0)
(0.57267 -0.000188196 0)
(0.573617 0.000113189 0)
(0.574466 0.000417325 0)
(0.575234 0.000727082 0)
(0.575934 0.00104605 0)
(0.57658 0.00137858 0)
(0.577183 0.00172993 0)
(0.577752 0.00210647 0)
(0.578295 0.00251595 0)
(0.578816 0.0029679 0)
(0.579318 0.00347412 0)
(0.579799 0.00404943 0)
(0.580255 0.00471271 0)
(0.580673 0.00548841 0)
(0.581039 0.0064088 0)
(0.581326 0.00751738 0)
(0.581503 0.00887415 0)
(0.581524 0.0105639 0)
(0.581334 0.0127097 0)
(0.580868 0.015494 0)
(0.580063 0.0191945 0)
(0.578887 0.0242396 0)
(0.577417 0.0312975 0)
(0.576019 0.0414152 0)
(0.575796 0.0561464 0)
(0.580577 0.0768194 0)
(0.100568 -0.0015727 0)
(0.103571 -0.00285244 0)
(0.108229 -0.00395517 0)
(0.114141 -0.00493747 0)
(0.121162 -0.00583839 0)
(0.129165 -0.00668496 0)
(0.138051 -0.00749813 0)
(0.147755 -0.00829398 0)
(0.158229 -0.00908318 0)
(0.169438 -0.00987078 0)
(0.181349 -0.0106561 0)
(0.193928 -0.0114333 0)
(0.207132 -0.0121919 0)
(0.220907 -0.0129185 0)
(0.235184 -0.0135982 0)
(0.249882 -0.0142164 0)
(0.264906 -0.01476 0)
(0.280156 -0.0152185 0)
(0.295527 -0.0155844 0)
(0.310915 -0.0158536 0)
(0.326218 -0.016025 0)
(0.34134 -0.0161002 0)
(0.356194 -0.0160833 0)
(0.370703 -0.0159799 0)
(0.384802 -0.0157969 0)
(0.398433 -0.0155417 0)
(0.411552 -0.0152224 0)
(0.424125 -0.014847 0)
(0.436124 -0.014423 0)
(0.447533 -0.0139581 0)
(0.458342 -0.0134589 0)
(0.468546 -0.0129319 0)
(0.478148 -0.0123829 0)
(0.487154 -0.011817 0)
(0.495575 -0.0112389 0)
(0.503425 -0.0106528 0)
(0.51072 -0.0100622 0)
(0.51748 -0.00947037 0)
(0.523724 -0.00888001 0)
(0.529474 -0.0082935 0)
(0.534753 -0.00771285 0)
(0.539584 -0.00713977 0)
(0.543992 -0.00657567 0)
(0.547999 -0.00602168 0)
(0.551631 -0.00547865 0)
(0.554911 -0.00494719 0)
(0.557863 -0.00442768 0)
(0.56051 -0.00392022 0)
(0.562877 -0.00342469 0)
(0.564984 -0.00294064 0)
(0.566856 -0.00246737 0)
(0.568512 -0.00200388 0)
(0.569974 -0.00154882 0)
(0.571261 -0.00110045 0)
(0.572393 -0.000656633 0)
(0.573389 -0.000214793 0)
(0.574265 0.000227927 0)
(0.575038 0.000674798 0)
(0.575724 0.00112995 0)
(0.576336 0.00159846 0)
(0.576889 0.00208648 0)
(0.577393 0.00260134 0)
(0.57786 0.00315188 0)
(0.578296 0.00374875 0)
(0.57871 0.00440494 0)
(0.579104 0.00513635 0)
(0.579481 0.00596269 0)
(0.57984 0.00690867 0)
(0.580178 0.00800562 0)
(0.580486 0.00929391 0)
(0.580757 0.0108262 0)
(0.580979 0.0126725 0)
(0.581142 0.0149265 0)
(0.58124 0.0177159 0)
(0.581287 0.021215 0)
(0.581334 0.0256616 0)
(0.581508 0.0313745 0)
(0.582089 0.0387624 0)
(0.583612 0.0482994 0)
(0.587009 0.0603794 0)
(0.593889 0.0747287 0)
(0.100485 -0.00204619 0)
(0.103422 -0.00376189 0)
(0.107988 -0.00523237 0)
(0.113818 -0.00654386 0)
(0.120767 -0.00774655 0)
(0.128706 -0.00887652 0)
(0.137538 -0.00996207 0)
(0.147196 -0.0110249 0)
(0.157635 -0.0120796 0)
(0.168821 -0.013133 0)
(0.180724 -0.0141846 0)
(0.193312 -0.0152263 0)
(0.206545 -0.0162441 0)
(0.220369 -0.01722 0)
(0.234716 -0.0181337 0)
(0.249502 -0.0189654 0)
(0.264633 -0.0196972 0)
(0.280005 -0.0203148 0)
(0.29551 -0.0208079 0)
(0.311039 -0.021171 0)
(0.326487 -0.0214025 0)
(0.341756 -0.0215048 0)
(0.356756 -0.021483 0)
(0.371407 -0.021345 0)
(0.385641 -0.0211 0)
(0.399401 -0.0207582 0)
(0.41264 -0.0203303 0)
(0.425324 -0.0198272 0)
(0.437425 -0.0192591 0)
(0.448927 -0.0186361 0)
(0.459818 -0.0179674 0)
(0.470097 -0.0172614 0)
(0.479764 -0.0165261 0)
(0.488827 -0.0157683 0)
(0.497296 -0.0149942 0)
(0.505187 -0.0142094 0)
(0.512516 -0.0134187 0)
(0.519302 -0.0126262 0)
(0.525565 -0.0118357 0)
(0.531329 -0.0110503 0)
(0.536615 -0.0102726 0)
(0.541448 -0.00950497 0)
(0.545851 -0.00874912 0)
(0.549848 -0.00800656 0)
(0.553464 -0.0072784 0)
(0.556723 -0.00656545 0)
(0.559649 -0.00586815 0)
(0.562265 -0.0051866 0)
(0.564594 -0.00452058 0)
(0.566659 -0.00386951 0)
(0.568481 -0.00323242 0)
(0.570084 -0.00260796 0)
(0.571486 -0.00199431 0)
(0.572708 -0.00138916 0)
(0.573769 -0.000789657 0)
(0.574686 -0.000192488 0)
(0.575479 0.000406032 0)
(0.576163 0.00101015 0)
(0.576754 0.00162527 0)
(0.577267 0.00225793 0)
(0.577716 0.00291594 0)
(0.578111 0.00360855 0)
(0.578466 0.00434679 0)
(0.578789 0.00514381 0)
(0.579089 0.00601542 0)
(0.579374 0.00698071 0)
(0.579649 0.00806289 0)
(0.579919 0.00929041 0)
(0.580189 0.0106984 0)
(0.580463 0.0123307 0)
(0.580746 0.0142421 0)
(0.58105 0.0165019 0)
(0.581393 0.0191973 0)
(0.581809 0.0224379 0)
(0.58236 0.0263589 0)
(0.583151 0.0311225 0)
(0.584359 0.0369098 0)
(0.586263 0.0438969 0)
(0.589276 0.0521949 0)
(0.593952 0.0617262 0)
(0.600943 0.0719928 0)
(0.100402 -0.00252895 0)
(0.103273 -0.00471005 0)
(0.107738 -0.00657425 0)
(0.113471 -0.00823975 0)
(0.120334 -0.00976759 0)
(0.128198 -0.0112031 0)
(0.136965 -0.0125827 0)
(0.146571 -0.0139343 0)
(0.156971 -0.0152768 0)
(0.168136 -0.0166194 0)
(0.180039 -0.0179617 0)
(0.192653 -0.0192933 0)
(0.205938 -0.0205964 0)
(0.219844 -0.0218473 0)
(0.234301 -0.0230199 0)
(0.249226 -0.0240882 0)
(0.264519 -0.0250288 0)
(0.280072 -0.025823 0)
(0.295773 -0.0264574 0)
(0.311506 -0.0269246 0)
(0.327163 -0.0272228 0)
(0.342639 -0.0273548 0)
(0.357841 -0.0273276 0)
(0.372687 -0.0271513 0)
(0.387106 -0.0268378 0)
(0.401038 -0.0264005 0)
(0.414437 -0.0258532 0)
(0.427267 -0.0252097 0)
(0.4395 -0.0244835 0)
(0.45112 -0.0236873 0)
(0.462117 -0.022833 0)
(0.472488 -0.0219314 0)
(0.482236 -0.0209926 0)
(0.491368 -0.0200253 0)
(0.499895 -0.0190375 0)
(0.507834 -0.0180361 0)
(0.515201 -0.0170273 0)
(0.522017 -0.0160164 0)
(0.528301 -0.015008 0)
(0.534078 -0.0140061 0)
(0.539369 -0.0130139 0)
(0.5442 -0.0120343 0)
(0.548594 -0.0110695 0)
(0.552576 -0.0101214 0)
(0.55617 -0.00919138 0)
(0.559401 -0.00828034 0)
(0.562292 -0.00738879 0)
(0.564867 -0.00651684 0)
(0.567149 -0.00566417 0)
(0.569161 -0.00483002 0)
(0.570925 -0.00401314 0)
(0.572463 -0.00321179 0)
(0.573794 -0.00242366 0)
(0.574939 -0.00164584 0)
(0.575916 -0.000874792 0)
(0.576745 -0.000106581 0)
(0.577444 0.000663283 0)
(0.578028 0.00144008 0)
(0.578515 0.00223042 0)
(0.578919 0.00304216 0)
(0.579254 0.00388457 0)
(0.579534 0.00476849 0)
(0.579771 0.0057067 0)
(0.579978 0.00671424 0)
(0.580165 0.00780884 0)
(0.580342 0.0090115 0)
(0.580521 0.0103472 0)
(0.580712 0.0118456 0)
(0.580928 0.0135423 0)
(0.581183 0.0154797 0)
(0.581497 0.0177084 0)
(0.581895 0.0202885 0)
(0.582417 0.0232902 0)
(0.583118 0.0267935 0)
(0.584078 0.0308859 0)
(0.585412 0.0356549 0)
(0.587279 0.0411745 0)
(0.589889 0.047479 0)
(0.5935 0.0545225 0)
(0.598391 0.0621202 0)
(0.604788 0.0698816 0)
(0.100317 -0.00302179 0)
(0.103129 -0.0056963 0)
(0.107489 -0.00798106 0)
(0.113118 -0.0100266 0)
(0.119886 -0.0119048 0)
(0.127667 -0.0136701 0)
(0.136363 -0.0153677 0)
(0.145913 -0.0170326 0)
(0.156277 -0.0186888 0)
(0.167428 -0.0203481 0)
(0.179348 -0.0220103 0)
(0.192013 -0.0236629 0)
(0.205389 -0.0252831 0)
(0.219425 -0.026841 0)
(0.234052 -0.0283033 0)
(0.249183 -0.0296366 0)
(0.264712 -0.0308112 0)
(0.280526 -0.031803 0)
(0.296502 -0.032595 0)
(0.312519 -0.0331779 0)
(0.32846 -0.0335494 0)
(0.344215 -0.0337133 0)
(0.359686 -0.0336787 0)
(0.374787 -0.0334583 0)
(0.389443 -0.0330674 0)
(0.403595 -0.0325229 0)
(0.417194 -0.0318421 0)
(0.430205 -0.0310424 0)
(0.4426 -0.0301407 0)
(0.454363 -0.0291529 0)
(0.465484 -0.0280937 0)
(0.475963 -0.0269767 0)
(0.485803 -0.025814 0)
(0.495013 -0.0246167 0)
(0.503604 -0.0233945 0)
(0.511594 -0.0221559 0)
(0.519001 -0.0209085 0)
(0.525845 -0.0196587 0)
(0.532147 -0.0184121 0)
(0.537933 -0.0171735 0)
(0.543224 -0.0159469 0)
(0.548047 -0.0147358 0)
(0.552424 -0.0135428 0)
(0.556383 -0.0123701 0)
(0.559946 -0.0112194 0)
(0.563138 -0.0100916 0)
(0.565984 -0.00898735 0)
(0.568508 -0.00790678 0)
(0.570732 -0.00684943 0)
(0.57268 -0.00581431 0)
(0.574374 -0.00479988 0)
(0.575834 -0.00380402 0)
(0.577082 -0.00282395 0)
(0.578138 -0.00185619 0)
(0.579021 -0.000896478 0)
(0.57975 5.96512e-05 0)
(0.580344 0.00101731 0)
(0.580818 0.00198285 0)
(0.581191 0.00296396 0)
(0.581477 0.00396959 0)
(0.581693 0.00501015 0)
(0.581852 0.00609766 0)
(0.581968 0.00724605 0)
(0.582056 0.00847142 0)
(0.58213 0.00979237 0)
(0.582203 0.0112304 0)
(0.582291 0.0128103 0)
(0.582409 0.0145606 0)
(0.582577 0.0165141 0)
(0.582818 0.0187081 0)
(0.58316 0.0211844 0)
(0.583638 0.023989 0)
(0.5843 0.027171 0)
(0.585206 0.0307798 0)
(0.586435 0.0348603 0)
(0.588084 0.0394447 0)
(0.590272 0.044541 0)
(0.593133 0.0501161 0)
(0.596805 0.056076 0)
(0.601404 0.0622462 0)
(0.606974 0.0683643 0)
(0.10023 -0.00352633 0)
(0.102994 -0.0067213 0)
(0.107252 -0.00945429 0)
(0.112773 -0.0119071 0)
(0.119442 -0.0141625 0)
(0.127136 -0.0162843 0)
(0.135759 -0.0183267 0)
(0.145256 -0.020333 0)
(0.155591 -0.0223329 0)
(0.166747 -0.0243419 0)
(0.178712 -0.0263599 0)
(0.191469 -0.0283717 0)
(0.204991 -0.0303489 0)
(0.219227 -0.0322538 0)
(0.234106 -0.0340441 0)
(0.249533 -0.0356775 0)
(0.265397 -0.0371164 0)
(0.281569 -0.0383304 0)
(0.29792 -0.0392985 0)
(0.314315 -0.0400091 0)
(0.330628 -0.0404597 0)
(0.346742 -0.0406558 0)
(0.362554 -0.0406088 0)
(0.377971 -0.040335 0)
(0.392919 -0.0398538 0)
(0.407336 -0.039186 0)
(0.421173 -0.0383534 0)
(0.434394 -0.0373774 0)
(0.446975 -0.0362787 0)
(0.458899 -0.0350766 0)
(0.470159 -0.0337893 0)
(0.480756 -0.032433 0)
(0.490694 -0.0310226 0)
(0.499983 -0.0295713 0)
(0.508639 -0.0280907 0)
(0.516678 -0.026591 0)
(0.524119 -0.0250813 0)
(0.530986 -0.0235693 0)
(0.5373 -0.0220615 0)
(0.543086 -0.0205636 0)
(0.548369 -0.0190803 0)
(0.553173 -0.0176157 0)
(0.557524 -0.0161728 0)
(0.561447 -0.0147541 0)
(0.564968 -0.0133616 0)
(0.56811 -0.0119963 0)
(0.5709 -0.0106589 0)
(0.573359 -0.00934951 0)
(0.575513 -0.00806748 0)
(0.577384 -0.00681164 0)
(0.578994 -0.00558017 0)
(0.580366 -0.00437057 0)
(0.581519 -0.00317961 0)
(0.582474 -0.00200326 0)
(0.583251 -0.000836706 0)
(0.583869 0.00032509 0)
(0.584347 0.00148773 0)
(0.584703 0.00265847 0)
(0.584953 0.00384588 0)
(0.585115 0.00505977 0)
(0.585205 0.00631125 0)
(0.585238 0.007613 0)
(0.585231 0.00897941 0)
(0.585199 0.0104268 0)
(0.585159 0.0119734 0)
(0.585128 0.0136398 0)
(0.585124 0.0154491 0)
(0.58517 0.0174266 0)
(0.585287 0.0195999 0)
(0.585503 0.0219988 0)
(0.585851 0.0246543 0)
(0.58637 0.0275974 0)
(0.587106 0.0308571 0)
(0.588115 0.0344572 0)
(0.58946 0.0384117 0)
(0.591215 0.042719 0)
(0.593455 0.0473545 0)
(0.596255 0.0522625 0)
(0.599678 0.0573495 0)
(0.603754 0.0624814 0)
(0.608459 0.0674931 0)
(0.10014 -0.00404491 0)
(0.102868 -0.0077869 0)
(0.107031 -0.0109968 0)
(0.112446 -0.0138853 0)
(0.119017 -0.0165468 0)
(0.126625 -0.0190539 0)
(0.13518 -0.0214714 0)
(0.144632 -0.0238514 0)
(0.154955 -0.0262311 0)
(0.166144 -0.0286301 0)
(0.178198 -0.0310488 0)
(0.19111 -0.0334684 0)
(0.204856 -0.0358533 0)
(0.219388 -0.0381556 0)
(0.234628 -0.0403215 0)
(0.250471 -0.0422977 0)
(0.266789 -0.0440365 0)
(0.283441 -0.0455005 0)
(0.300279 -0.0466637 0)
(0.317156 -0.0475127 0)
(0.333935 -0.0480456 0)
(0.350491 -0.0482698 0)
(0.366712 -0.0482006 0)
(0.382504 -0.0478588 0)
(0.397791 -0.0472685 0)
(0.412509 -0.0464558 0)
(0.426612 -0.0454474 0)
(0.440065 -0.0442693 0)
(0.452845 -0.0429466 0)
(0.464938 -0.0415027 0)
(0.476341 -0.0399592 0)
(0.487055 -0.0383355 0)
(0.497088 -0.0366493 0)
(0.506452 -0.034916 0)
(0.515164 -0.0331494 0)
(0.523242 -0.0313616 0)
(0.530709 -0.0295629 0)
(0.537587 -0.0277622 0)
(0.543901 -0.0259674 0)
(0.549675 -0.0241848 0)
(0.554935 -0.02242 0)
(0.559708 -0.0206773 0)
(0.56402 -0.0189605 0)
(0.567895 -0.0172722 0)
(0.57136 -0.0156146 0)
(0.574439 -0.013989 0)
(0.577159 -0.012396 0)
(0.579542 -0.0108355 0)
(0.581613 -0.00930695 0)
(0.583394 -0.00780888 0)
(0.584909 -0.00633919 0)
(0.58618 -0.00489504 0)
(0.587226 -0.00347279 0)
(0.58807 -0.00206799 0)
(0.58873 -0.000675461 0)
(0.58923 0.000710342 0)
(0.589585 0.00209555 0)
(0.589814 0.0034881 0)
(0.589936 0.00489718 0)
(0.589967 0.00633303 0)
(0.589927 0.00780705 0)
(0.589831 0.00933199 0)
(0.589697 0.010922 0)
(0.589542 0.0125926 0)
(0.589387 0.014361 0)
(0.589249 0.0162456 0)
(0.589151 0.0182662 0)
(0.589115 0.0204437 0)
(0.589168 0.0227995 0)
(0.589337 0.0253552 0)
(0.589656 0.0281309 0)
(0.590161 0.0311443 0)
(0.590893 0.0344083 0)
(0.591896 0.0379287 0)
(0.593218 0.0417008 0)
(0.594907 0.0457062 0)
(0.597004 0.049909 0)
(0.599547 0.0542537 0)
(0.602552 0.0586639 0)
(0.606013 0.0630455 0)
(0.609884 0.067298 0)
(0.100045 -0.00458039 0)
(0.102752 -0.00889617 0)
(0.106832 -0.0126127 0)
(0.112146 -0.0159669 0)
(0.118623 -0.0190653 0)
(0.126151 -0.02199 0)
(0.134648 -0.0248167 0)
(0.144071 -0.0276089 0)
(0.154412 -0.0304124 0)
(0.16568 -0.0332522 0)
(0.177887 -0.036129 0)
(0.191042 -0.0390189 0)
(0.205123 -0.0418762 0)
(0.220079 -0.0446392 0)
(0.23582 -0.0472392 0)
(0.252223 -0.0496084 0)
(0.269139 -0.0516872 0)
(0.286404 -0.0534297 0)
(0.303851 -0.0548053 0)
(0.321317 -0.0557994 0)
(0.338652 -0.0564115 0)
(0.355722 -0.0566529 0)
(0.37241 -0.0565442 0)
(0.388621 -0.0561117 0)
(0.404277 -0.055386 0)
(0.419318 -0.0543991 0)
(0.433698 -0.0531837 0)
(0.447386 -0.0517712 0)
(0.460364 -0.0501915 0)
(0.47262 -0.0484726 0)
(0.484155 -0.0466397 0)
(0.494974 -0.0447158 0)
(0.505086 -0.0427212 0)
(0.514509 -0.0406742 0)
(0.52326 -0.0385905 0)
(0.531361 -0.0364838 0)
(0.538835 -0.0343662 0)
(0.545707 -0.0322479 0)
(0.552002 -0.0301375 0)
(0.557748 -0.0280424 0)
(0.56297 -0.0259686 0)
(0.567696 -0.0239213 0)
(0.571952 -0.0219043 0)
(0.575764 -0.0199207 0)
(0.57916 -0.0179729 0)
(0.582163 -0.016062 0)
(0.5848 -0.014189 0)
(0.587094 -0.0123535 0)
(0.589071 -0.0105549 0)
(0.590753 -0.00879143 0)
(0.592163 -0.00706085 0)
(0.593323 -0.00535998 0)
(0.594255 -0.00368484 0)
(0.59498 -0.00203059 0)
(0.595517 -0.000392253 0)
(0.595891 0.0012362 0)
(0.596118 0.00286166 0)
(0.596216 0.00449258 0)
(0.596206 0.00613832 0)
(0.596106 0.00780913 0)
(0.595933 0.00951622 0)
(0.595706 0.0112718 0)
(0.595444 0.0130892 0)
(0.595166 0.0149826 0)
(0.594892 0.0169669 0)
(0.594643 0.0190578 0)
(0.594442 0.0212712 0)
(0.594312 0.023623 0)
(0.594279 0.0261284 0)
(0.594371 0.0288011 0)
(0.594617 0.0316521 0)
(0.595049 0.0346888 0)
(0.595699 0.0379131 0)
(0.596601 0.04132 0)
(0.597785 0.0448955 0)
(0.599279 0.0486156 0)
(0.601104 0.0524449 0)
(0.603271 0.0563366 0)
(0.605776 0.060234 0)
(0.608599 0.064074 0)
(0.611693 0.0677966 0)
(0.0999431 -0.00513607 0)
(0.102645 -0.0100534 0)
(0.106655 -0.014308 0)
(0.111877 -0.0181596 0)
(0.11827 -0.0217283 0)
(0.12573 -0.0251063 0)
(0.134185 -0.0283823 0)
(0.143608 -0.0316333 0)
(0.154011 -0.0349162 0)
(0.165424 -0.0382623 0)
(0.177881 -0.041672 0)
(0.1914 -0.0451131 0)
(0.205963 -0.0485252 0)
(0.221507 -0.0518273 0)
(0.23792 -0.0549306 0)
(0.25505 -0.0577489 0)
(0.272719 -0.0602088 0)
(0.290735 -0.0622554 0)
(0.308908 -0.0638543 0)
(0.327057 -0.0649914 0)
(0.34502 -0.0656699 0)
(0.362656 -0.0659071 0)
(0.379846 -0.0657306 0)
(0.396494 -0.0651746 0)
(0.412526 -0.0642773 0)
(0.427884 -0.0630781 0)
(0.44253 -0.0616164 0)
(0.456436 -0.0599298 0)
(0.469589 -0.0580536 0)
(0.481984 -0.0560204 0)
(0.493624 -0.0538597 0)
(0.504518 -0.051598 0)
(0.514683 -0.0492587 0)
(0.524135 -0.0468624 0)
(0.532898 -0.044427 0)
(0.540994 -0.0419681 0)
(0.54845 -0.0394991 0)
(0.555292 -0.0370314 0)
(0.561546 -0.0345747 0)
(0.567242 -0.0321371 0)
(0.572406 -0.0297252 0)
(0.577067 -0.0273446 0)
(0.581251 -0.0249996 0)
(0.584985 -0.0226934 0)
(0.588297 -0.0204284 0)
(0.591211 -0.0182062 0)
(0.593754 -0.0160273 0)
(0.59595 -0.0138915 0)
(0.597823 -0.0117979 0)
(0.599398 -0.00974481 0)
(0.600696 -0.00772961 0)
(0.601741 -0.00574897 0)
(0.602555 -0.00379867 0)
(0.603158 -0.00187363 0)
(0.603572 3.09486e-05 0)
(0.603819 0.00192116 0)
(0.603917 0.00380477 0)
(0.603885 0.00569044 0)
(0.603744 0.00758737 0)
(0.603512 0.00950542 0)
(0.603209 0.0114552 0)
(0.602853 0.013448 0)
(0.602464 0.0154955 0)
(0.602062 0.0176102 0)
(0.601668 0.0198044 0)
(0.601302 0.0220905 0)
(0.600989 0.0244805 0)
(0.600749 0.0269855 0)
(0.600609 0.0296151 0)
(0.600591 0.0323765 0)
(0.600722 0.035274 0)
(0.601027 0.038308 0)
(0.601529 0.041474 0)
(0.602251 0.0447617 0)
(0.603213 0.0481545 0)
(0.604426 0.0516287 0)
(0.605899 0.0551544 0)
(0.60763 0.0586957 0)
(0.609606 0.0622125 0)
(0.611802 0.0656637 0)
(0.61418 0.0690139 0)
(0.099833 -0.00571561 0)
(0.102545 -0.0112639 0)
(0.106503 -0.0160898 0)
(0.111644 -0.0204732 0)
(0.117965 -0.0245489 0)
(0.125375 -0.0284211 0)
(0.133815 -0.0321945 0)
(0.143281 -0.0359628 0)
(0.153813 -0.0397973 0)
(0.165469 -0.0437361 0)
(0.178308 -0.0477769 0)
(0.192357 -0.0518737 0)
(0.20759 -0.0559433 0)
(0.223918 -0.0598779 0)
(0.241196 -0.0635617 0)
(0.259232 -0.0668866 0)
(0.277808 -0.0697639 0)
(0.2967 -0.0721307 0)
(0.315693 -0.0739514 0)
(0.33459 -0.0752152 0)
(0.35322 -0.0759326 0)
(0.371438 -0.0761298 0)
(0.389129 -0.075844 0)
(0.406199 -0.0751193 0)
(0.422581 -0.0740031 0)
(0.438223 -0.0725436 0)
(0.453095 -0.0707876 0)
(0.467176 -0.0687796 0)
(0.480459 -0.0665608 0)
(0.492945 -0.0641687 0)
(0.504645 -0.0616371 0)
(0.515572 -0.058996 0)
(0.525745 -0.0562718 0)
(0.535187 -0.0534877 0)
(0.543922 -0.0506636 0)
(0.551978 -0.0478167 0)
(0.559382 -0.0449619 0)
(0.566163 -0.0421116 0)
(0.572349 -0.0392763 0)
(0.577969 -0.0364649 0)
(0.583052 -0.0336845 0)
(0.587627 -0.030941 0)
(0.591721 -0.028239 0)
(0.595362 -0.0255819 0)
(0.598576 -0.0229722 0)
(0.601391 -0.0204114 0)
(0.60383 -0.0179 0)
(0.60592 -0.0154379 0)
(0.607685 -0.0130239 0)
(0.609149 -0.0106562 0)
(0.610333 -0.00833225 0)
(0.611262 -0.00604849 0)
(0.611958 -0.00380072 0)
(0.612441 -0.00158393 0)
(0.612736 0.000607184 0)
(0.61286 0.00277864 0)
(0.612835 0.00493841 0)
(0.612679 0.007095 0)
(0.612413 0.00925722 0)
(0.612057 0.0114343 0)
(0.611629 0.0136357 0)
(0.61115 0.0158716 0)
(0.610639 0.018152 0)
(0.610116 0.0204869 0)
(0.609602 0.0228862 0)
(0.609117 0.0253592 0)
(0.608683 0.027914 0)
(0.608321 0.0305577 0)
(0.608053 0.0332954 0)
(0.607899 0.0361298 0)
(0.60788 0.0390606 0)
(0.608014 0.0420843 0)
(0.608319 0.0451934 0)
(0.608808 0.0483762 0)
(0.609492 0.0516168 0)
(0.610376 0.0548952 0)
(0.611458 0.0581879 0)
(0.612731 0.0614689 0)
(0.61418 0.064711 0)
(0.615784 0.0678877 0)
(0.617509 0.0709791 0)
(0.0997123 -0.00632307 0)
(0.102452 -0.0125345 0)
(0.106376 -0.0179675 0)
(0.111451 -0.0229202 0)
(0.117718 -0.0275442 0)
(0.125103 -0.031959 0)
(0.133568 -0.0362895 0)
(0.143141 -0.0406514 0)
(0.153899 -0.0451334 0)
(0.165938 -0.0497803 0)
(0.179338 -0.0545807 0)
(0.194128 -0.0594651 0)
(0.210256 -0.0643158 0)
(0.227593 -0.0689873 0)
(0.245938 -0.0733303 0)
(0.265047 -0.0772118 0)
(0.284659 -0.080529 0)
(0.304516 -0.0832143 0)
(0.32438 -0.0852355 0)
(0.344045 -0.0865901 0)
(0.363335 -0.0873 0)
(0.382109 -0.0874039 0)
(0.400256 -0.0869518 0)
(0.417694 -0.0859996 0)
(0.434362 -0.0846057 0)
(0.450222 -0.0828279 0)
(0.46525 -0.0807214 0)
(0.479436 -0.0783378 0)
(0.492781 -0.0757245 0)
(0.505293 -0.072924 0)
(0.516988 -0.0699744 0)
(0.527887 -0.0669092 0)
(0.538012 -0.0637577 0)
(0.547391 -0.0605453 0)
(0.556051 -0.0572938 0)
(0.564022 -0.0540221 0)
(0.571334 -0.0507461 0)
(0.578017 -0.0474792 0)
(0.584101 -0.0442327 0)
(0.589617 -0.0410158 0)
(0.594594 -0.0378363 0)
(0.599061 -0.0347001 0)
(0.603046 -0.0316122 0)
(0.606578 -0.0285759 0)
(0.609682 -0.0255938 0)
(0.612387 -0.0226673 0)
(0.614716 -0.019797 0)
(0.616695 -0.0169826 0)
(0.618349 -0.0142229 0)
(0.619701 -0.0115161 0)
(0.620774 -0.00885943 0)
(0.621591 -0.00624952 0)
(0.622175 -0.00368228 0)
(0.622544 -0.00115306 0)
(0.622728 0.00134412 0)
(0.622739 0.00381547 0)
(0.622601 0.00626865 0)
(0.622332 0.00871166 0)
(0.621954 0.0111526 0)
(0.621485 0.0135999 0)
(0.620945 0.0160618 0)
(0.620353 0.0185468 0)
(0.619729 0.0210632 0)
(0.619092 0.0236189 0)
(0.618463 0.0262212 0)
(0.61786 0.0288765 0)
(0.617304 0.0315902 0)
(0.616812 0.0343659 0)
(0.616403 0.0372055 0)
(0.616094 0.040109 0)
(0.615901 0.0430736 0)
(0.615838 0.0460939 0)
(0.615916 0.049162 0)
(0.616143 0.0522668 0)
(0.616523 0.055395 0)
(0.617057 0.0585309 0)
(0.617741 0.0616571 0)
(0.618564 0.0647557 0)
(0.619512 0.0678086 0)
(0.620568 0.0707993 0)
(0.621706 0.0737172 0)
(0.0995785 -0.006963 0)
(0.102364 -0.0138734 0)
(0.106275 -0.0199526 0)
(0.111303 -0.0255167 0)
(0.117539 -0.0307369 0)
(0.124936 -0.0357535 0)
(0.133484 -0.0407185 0)
(0.143257 -0.0457764 0)
(0.154381 -0.051036 0)
(0.166993 -0.0565443 0)
(0.181188 -0.0622695 0)
(0.196973 -0.0681018 0)
(0.21425 -0.0738726 0)
(0.232821 -0.0793872 0)
(0.252417 -0.0844572 0)
(0.272732 -0.0889256 0)
(0.29346 -0.0926801 0)
(0.314315 -0.0956555 0)
(0.335045 -0.0978295 0)
(0.355439 -0.0992145 0)
(0.375327 -0.0998486 0)
(0.394578 -0.0997871 0)
(0.413093 -0.0990954 0)
(0.430802 -0.0978436 0)
(0.447659 -0.096102 0)
(0.463637 -0.0939389 0)
(0.478724 -0.0914183 0)
(0.492921 -0.0885993 0)
(0.506238 -0.0855352 0)
(0.518691 -0.0822736 0)
(0.530302 -0.0788565 0)
(0.541098 -0.0753207 0)
(0.551107 -0.0716981 0)
(0.560359 -0.0680162 0)
(0.568886 -0.0642986 0)
(0.57672 -0.0605652 0)
(0.583893 -0.0568329 0)
(0.590437 -0.053116 0)
(0.596382 -0.0494262 0)
(0.601762 -0.0457731 0)
(0.606604 -0.0421647 0)
(0.61094 -0.0386071 0)
(0.614797 -0.0351052 0)
(0.618204 -0.0316624 0)
(0.621187 -0.0282814 0)
(0.623772 -0.0249633 0)
(0.625986 -0.0217088 0)
(0.627852 -0.0185174 0)
(0.629395 -0.015388 0)
(0.630639 -0.0123186 0)
(0.631607 -0.00930663 0)
(0.63232 -0.00634867 0)
(0.6328 -0.00344083 0)
(0.633069 -0.00057928 0)
(0.633153 0.00224229 0)
(0.633066 0.0050306 0)
(0.63283 0.00779301 0)
(0.632465 0.0105367 0)
(0.63199 0.013269 0)
(0.631425 0.015997 0)
(0.630788 0.0187278 0)
(0.630099 0.0214684 0)
(0.629376 0.0242253 0)
(0.628638 0.0270044 0)
(0.627903 0.0298108 0)
(0.627188 0.0326487 0)
(0.626512 0.0355212 0)
(0.62589 0.0384297 0)
(0.625337 0.0413743 0)
(0.624867 0.0443532 0)
(0.624491 0.0473628 0)
(0.624221 0.0503974 0)
(0.624062 0.0534498 0)
(0.624019 0.056511 0)
(0.624094 0.0595703 0)
(0.624284 0.0626164 0)
(0.624584 0.0656371 0)
(0.624984 0.0686203 0)
(0.625473 0.0715546 0)
(0.626036 0.0744301 0)
(0.626654 0.0772418 0)
(0.099429 -0.00764058 0)
(0.10228 -0.0152905 0)
(0.106201 -0.0220596 0)
(0.111205 -0.0282834 0)
(0.117443 -0.0341578 0)
(0.124903 -0.0398522 0)
(0.13362 -0.0455559 0)
(0.143728 -0.05145 0)
(0.155413 -0.0576635 0)
(0.168848 -0.0642338 0)
(0.18412 -0.0710875 0)
(0.201188 -0.0780502 0)
(0.219869 -0.0848832 0)
(0.239875 -0.0913322 0)
(0.260854 -0.0971698 0)
(0.282443 -0.102221 0)
(0.304296 -0.106375 0)
(0.326109 -0.109577 0)
(0.347628 -0.111825 0)
(0.36865 -0.113153 0)
(0.389018 -0.11362 0)
(0.408618 -0.113302 0)
(0.427367 -0.112283 0)
(0.445214 -0.110647 0)
(0.462128 -0.108478 0)
(0.478097 -0.105855 0)
(0.493122 -0.102852 0)
(0.507216 -0.0995336 0)
(0.520397 -0.0959597 0)
(0.53269 -0.0921824 0)
(0.544125 -0.0882475 0)
(0.554733 -0.0841944 0)
(0.564547 -0.0800575 0)
(0.573602 -0.0758659 0)
(0.581931 -0.0716443 0)
(0.58957 -0.0674139 0)
(0.596552 -0.0631921 0)
(0.602911 -0.0589935 0)
(0.608678 -0.0548304 0)
(0.613886 -0.0507124 0)
(0.618564 -0.0466474 0)
(0.622744 -0.0426418 0)
(0.626452 -0.0387002 0)
(0.629718 -0.0348261 0)
(0.632567 -0.0310219 0)
(0.635026 -0.0272887 0)
(0.63712 -0.0236269 0)
(0.638872 -0.0200362 0)
(0.640308 -0.0165153 0)
(0.641449 -0.0130623 0)
(0.642319 -0.00967474 0)
(0.642939 -0.00634943 0)
(0.64333 -0.00308275 0)
(0.643517 0.000129164 0)
(0.643517 0.00329213 0)
(0.643349 0.00641328 0)
(0.643034 0.0094994 0)
(0.642592 0.0125569 0)
(0.64204 0.0155919 0)
(0.641398 0.0186105 0)
(0.640684 0.0216187 0)
(0.639916 0.0246219 0)
(0.639112 0.027625 0)
(0.638288 0.0306323 0)
(0.637461 0.0336473 0)
(0.636647 0.0366726 0)
(0.635861 0.0397095 0)
(0.635116 0.0427583 0)
(0.634426 0.0458181 0)
(0.633799 0.0488865 0)
(0.633246 0.05196 0)
(0.632774 0.0550336 0)
(0.632386 0.0581014 0)
(0.632086 0.0611564 0)
(0.631872 0.0641911 0)
(0.631743 0.0671975 0)
(0.631692 0.0701676 0)
(0.631712 0.0730937 0)
(0.631793 0.0759687 0)
(0.631924 0.0787873 0)
(0.632093 0.0815481 0)
(0.0992607 -0.0083619 0)
(0.102201 -0.0167982 0)
(0.106159 -0.0243071 0)
(0.111168 -0.0312481 0)
(0.117451 -0.0378499 0)
(0.125049 -0.0443239 0)
(0.134059 -0.0509106 0)
(0.144691 -0.0578347 0)
(0.157196 -0.0652374 0)
(0.171763 -0.0731225 0)
(0.188434 -0.0813408 0)
(0.207071 -0.0896223 0)