/*--------------------------------*- C++ -*----------------------------------*\
  =========                 |
  \\      /  F ield         | OpenFOAM: The Open Source CFD Toolbox
   \\    /   O peration     | Website:  https://openfoam.org
    \\  /    A nd           | Version:  7
     \\/     M anipulation  |
\*---------------------------------------------------------------------------*/
FoamFile
{
    version     2.0;
    format      ascii;
    class       volVectorField;
    location    "0.59";
    object      U;
}
// * * * * * * * * * * * * * * * * * * * * * * * * * * * * * * * * * * * * * //

dimensions      [0 1 -1 0 0 0 0];

internalField   nonuniform List<vector> 
12013
(
(0.0999974 1.40756e-06 0)
(0.0999724 4.42135e-06 0)
(0.0999064 8.90832e-06 0)
(0.099791 1.37856e-05 0)
(0.0996311 1.77616e-05 0)
(0.0994429 2.00721e-05 0)
(0.0992452 2.07462e-05 0)
(0.0990517 2.03513e-05 0)
(0.0988688 1.95654e-05 0)
(0.098697 1.8881e-05 0)
(0.0985333 1.85269e-05 0)
(0.0983743 1.85267e-05 0)
(0.0982171 1.88019e-05 0)
(0.0980599 1.92491e-05 0)
(0.0979017 1.97844e-05 0)
(0.0977422 2.03536e-05 0)
(0.0975813 2.09288e-05 0)
(0.0974193 2.15008e-05 0)
(0.0972563 2.20705e-05 0)
(0.0970923 2.2643e-05 0)
(0.0969275 2.32254e-05 0)
(0.0967618 2.38244e-05 0)
(0.0965952 2.44466e-05 0)
(0.0964276 2.50973e-05 0)
(0.0962589 2.57815e-05 0)
(0.096089 2.65036e-05 0)
(0.0959178 2.72675e-05 0)
(0.0957451 2.80761e-05 0)
(0.0955707 2.89327e-05 0)
(0.0953945 2.98397e-05 0)
(0.0952164 3.07993e-05 0)
(0.0950361 3.18134e-05 0)
(0.0948535 3.28837e-05 0)
(0.0946685 3.40121e-05 0)
(0.0944808 3.52006e-05 0)
(0.0942905 3.64512e-05 0)
(0.0940972 3.77658e-05 0)
(0.0939009 3.91486e-05 0)
(0.0937015 4.06025e-05 0)
(0.0934987 4.21322e-05 0)
(0.0932924 4.3743e-05 0)
(0.0930824 4.54417e-05 0)
(0.0928685 4.7236e-05 0)
(0.0926506 4.91357e-05 0)
(0.0924284 5.11511e-05 0)
(0.0922015 5.32956e-05 0)
(0.0919698 5.55842e-05 0)
(0.0917328 5.80348e-05 0)
(0.0914901 6.06678e-05 0)
(0.0912414 6.35085e-05 0)
(0.090986 6.65853e-05 0)
(0.0907233 6.99322e-05 0)
(0.0904528 7.35897e-05 0)
(0.0901735 7.76057e-05 0)
(0.0898845 8.2037e-05 0)
(0.0895848 8.69525e-05 0)
(0.089273 9.24343e-05 0)
(0.0889477 9.8583e-05 0)
(0.0886072 0.000105521 0)
(0.0882494 0.000113397 0)
(0.0878718 0.0001224 0)
(0.0874715 0.000132762 0)
(0.0870451 0.000144778 0)
(0.0865883 0.000158825 0)
(0.0860958 0.000175388 0)
(0.0855612 0.000195105 0)
(0.0849765 0.000218817 0)
(0.0843317 0.000247662 0)
(0.0836136 0.000283193 0)
(0.0828057 0.000327575 0)
(0.0818857 0.000383877 0)
(0.0808239 0.00045654 0)
(0.0795801 0.000552118 0)
(0.0780979 0.000680488 0)
(0.0762978 0.000856852 0)
(0.0740652 0.00110509 0)
(0.071232 0.00146349 0)
(0.0675349 0.00199658 0)
(0.0625695 0.0028329 0)
(0.0558729 0.00433034 0)
(0.0484081 0.00810248 0)
(0.0999978 4.27463e-06 0)
(0.0999734 1.35061e-05 0)
(0.0999084 2.72554e-05 0)
(0.0997942 4.22168e-05 0)
(0.0996355 5.44294e-05 0)
(0.0994484 6.15425e-05 0)
(0.0992513 6.36379e-05 0)
(0.0990582 6.24497e-05 0)
(0.0988756 6.00535e-05 0)
(0.0987037 5.79617e-05 0)
(0.0985401 5.68762e-05 0)
(0.0983811 5.68731e-05 0)
(0.098224 5.77118e-05 0)
(0.0980668 5.90788e-05 0)
(0.0979088 6.07159e-05 0)
(0.0977495 6.24577e-05 0)
(0.0975889 6.42194e-05 0)
(0.0974272 6.59721e-05 0)
(0.0972644 6.77183e-05 0)
(0.0971008 6.9474e-05 0)
(0.0969363 7.12605e-05 0)
(0.0967709 7.30984e-05 0)
(0.0966046 7.50076e-05 0)
(0.0964373 7.70044e-05 0)
(0.096269 7.91045e-05 0)
(0.0960994 8.13206e-05 0)
(0.0959285 8.36645e-05 0)
(0.0957561 8.61461e-05 0)
(0.095582 8.87749e-05 0)
(0.0954062 9.1558e-05 0)
(0.0952283 9.45021e-05 0)
(0.0950483 9.76136e-05 0)
(0.0948661 0.000100897 0)
(0.0946814 0.000104359 0)
(0.0944941 0.000108004 0)
(0.0943041 0.00011184 0)
(0.0941112 0.000115873 0)
(0.0939153 0.000120113 0)
(0.0937162 0.000124572 0)
(0.0935138 0.000129262 0)
(0.0933079 0.000134202 0)
(0.0930984 0.00013941 0)
(0.092885 0.000144911 0)
(0.0926676 0.000150734 0)
(0.0924459 0.000156912 0)
(0.0922196 0.000163484 0)
(0.0919885 0.000170497 0)
(0.0917521 0.000178005 0)
(0.0915102 0.000186072 0)
(0.0912622 0.000194772 0)
(0.0910077 0.000204194 0)
(0.090746 0.000214441 0)
(0.0904764 0.000225636 0)
(0.0901983 0.000237925 0)
(0.0899106 0.000251481 0)
(0.0896123 0.000266512 0)
(0.0893022 0.000283268 0)
(0.0889788 0.000302054 0)
(0.0886405 0.000323239 0)
(0.0882852 0.000347278 0)
(0.0879107 0.000374734 0)
(0.0875141 0.000406309 0)
(0.0870921 0.00044289 0)
(0.0866406 0.000485605 0)
(0.0861548 0.000535905 0)
(0.0856286 0.000595684 0)
(0.0850547 0.000667439 0)
(0.0844237 0.000754517 0)
(0.083724 0.000861463 0)
(0.0829408 0.000994556 0)
(0.0820547 0.00116261 0)
(0.081041 0.00137821 0)
(0.0798665 0.00165962 0)
(0.0784875 0.00203375 0)
(0.0768459 0.00254073 0)
(0.0748649 0.00324088 0)
(0.0724455 0.00422421 0)
(0.0694592 0.00562254 0)
(0.065767 0.00762374 0)
(0.0614281 0.0104317 0)
(0.0575986 0.0138685 0)
(0.099998 7.19361e-06 0)
(0.0999746 2.29856e-05 0)
(0.0999116 4.65209e-05 0)
(0.0998 7.22006e-05 0)
(0.0996443 9.32365e-05 0)
(0.0994598 0.000105571 0)
(0.0992647 0.000109304 0)
(0.0990727 0.000107379 0)
(0.0988904 0.00010334 0)
(0.0987186 9.97842e-05 0)
(0.0985548 9.79243e-05 0)
(0.0983958 9.79042e-05 0)
(0.0982387 9.93208e-05 0)
(0.0980818 0.000101644 0)
(0.0979241 0.000104434 0)
(0.0977652 0.000107408 0)
(0.0976052 0.000110423 0)
(0.0974441 0.000113426 0)
(0.097282 0.000116421 0)
(0.0971191 0.000119436 0)
(0.0969552 0.000122506 0)
(0.0967906 0.000125667 0)
(0.096625 0.00012895 0)
(0.0964584 0.000132386 0)
(0.0962907 0.000135999 0)
(0.0961218 0.000139812 0)
(0.0959516 0.000143845 0)
(0.0957798 0.000148114 0)
(0.0956064 0.000152636 0)
(0.0954312 0.000157423 0)
(0.095254 0.000162485 0)
(0.0950747 0.000167835 0)
(0.0948932 0.00017348 0)
(0.0947092 0.000179431 0)
(0.0945226 0.000185695 0)
(0.0943333 0.000192286 0)
(0.0941411 0.000199216 0)
(0.093946 0.000206499 0)
(0.0937477 0.000214157 0)
(0.0935462 0.000222213 0)
(0.0933412 0.000230694 0)
(0.0931326 0.000239636 0)
(0.0929202 0.000249079 0)
(0.0927038 0.000259071 0)
(0.0924832 0.000269671 0)
(0.0922581 0.000280944 0)
(0.0920282 0.000292971 0)
(0.0917931 0.000305843 0)
(0.0915526 0.000319668 0)
(0.0913062 0.000334574 0)
(0.0910533 0.000350709 0)
(0.0907935 0.00036825 0)
(0.0905259 0.000387403 0)
(0.09025 0.000408415 0)
(0.0899648 0.000431579 0)
(0.0896693 0.000457244 0)
(0.0893624 0.000485832 0)
(0.0890426 0.000517852 0)
(0.0887085 0.000553922 0)
(0.0883581 0.000594801 0)
(0.0879893 0.000641423 0)
(0.0875994 0.000694951 0)
(0.0871855 0.000756843 0)
(0.086744 0.000828947 0)
(0.0862703 0.000913625 0)
(0.0857593 0.00101393 0)
(0.0852045 0.00113385 0)
(0.0845982 0.00127869 0)
(0.0839308 0.00145551 0)
(0.0831906 0.00167394 0)
(0.0823629 0.00194719 0)
(0.08143 0.00229365 0)
(0.08037 0.00273909 0)
(0.0791571 0.00331981 0)
(0.0777618 0.00408685 0)
(0.0761539 0.00511066 0)
(0.0743109 0.00648406 0)
(0.0722322 0.00831725 0)
(0.0699782 0.0107113 0)
(0.0677871 0.0136448 0)
(0.0662797 0.0165413 0)
(0.0999983 1.0119e-05 0)
(0.0999761 3.27219e-05 0)
(0.099916 6.64516e-05 0)
(0.0998088 0.000103415 0)
(0.099658 0.000133878 0)
(0.0994778 0.000151949 0)
(0.0992859 0.000157675 0)
(0.0990958 0.0001552 0)
(0.0989143 0.000149581 0)
(0.0987426 0.00014455 0)
(0.0985786 0.000141881 0)
(0.0984195 0.000141815 0)
(0.0982625 0.000143798 0)
(0.0981059 0.000147086 0)
(0.0979487 0.000151058 0)
(0.0977906 0.000155308 0)
(0.0976315 0.000159629 0)
(0.0974714 0.000163945 0)
(0.0973104 0.000168259 0)
(0.0971485 0.000172609 0)
(0.0969858 0.000177043 0)
(0.0968223 0.000181612 0)
(0.0966578 0.000186362 0)
(0.0964923 0.000191333 0)
(0.0963258 0.000196562 0)
(0.096158 0.000202081 0)
(0.0959888 0.000207917 0)
(0.0958181 0.000214095 0)
(0.0956458 0.000220636 0)
(0.0954716 0.000227559 0)
(0.0952955 0.00023488 0)
(0.0951173 0.000242613 0)
(0.0949368 0.000250772 0)
(0.0947539 0.000259369 0)
(0.0945685 0.000268419 0)
(0.0943803 0.000277936 0)
(0.0941894 0.000287941 0)
(0.0939955 0.000298455 0)
(0.0937986 0.000309506 0)
(0.0935984 0.000321129 0)
(0.0933948 0.000333363 0)
(0.0931877 0.000346257 0)
(0.0929768 0.000359871 0)
(0.0927621 0.000374273 0)
(0.0925432 0.000389544 0)
(0.0923199 0.000405781 0)
(0.092092 0.000423096 0)
(0.0918591 0.000441619 0)
(0.0916208 0.000461505 0)
(0.0913768 0.000482933 0)
(0.0911266 0.000506114 0)
(0.0908697 0.000531297 0)
(0.0906053 0.000558774 0)
(0.0903329 0.000588891 0)
(0.0900516 0.00062206 0)
(0.0897605 0.000658771 0)
(0.0894585 0.000699611 0)
(0.0891444 0.000745289 0)
(0.0888168 0.000796663 0)
(0.0884739 0.000854777 0)
(0.0881139 0.000920916 0)
(0.0877344 0.000996664 0)
(0.0873329 0.001084 0)
(0.0869063 0.0011854 0)
(0.086451 0.00130401 0)
(0.0859627 0.00144383 0)
(0.0854363 0.00161006 0)
(0.0848662 0.00180943 0)
(0.0842454 0.00205078 0)
(0.0835661 0.00234585 0)
(0.0828195 0.00271028 0)
(0.0819961 0.00316503 0)
(0.0810864 0.00373811 0)
(0.0800823 0.00446672 0)
(0.0789806 0.00539906 0)
(0.0777886 0.00659452 0)
(0.076534 0.00811847 0)
(0.0752799 0.0100241 0)
(0.0741448 0.0123075 0)
(0.073325 0.0148039 0)
(0.0730566 0.0169697 0)
(0.0999984 1.30184e-05 0)
(0.099978 4.25386e-05 0)
(0.0999218 8.67144e-05 0)
(0.0998205 0.000135424 0)
(0.0996765 0.000175921 0)
(0.0995027 0.000200357 0)
(0.0993155 0.000208601 0)
(0.0991281 0.000205932 0)
(0.0989478 0.000198914 0)
(0.0987763 0.000192463 0)
(0.0986121 0.000188966 0)
(0.0984528 0.000188806 0)
(0.098296 0.000191313 0)
(0.0981399 0.000195543 0)
(0.0979836 0.000200694 0)
(0.0978266 0.00020624 0)
(0.0976688 0.000211904 0)
(0.0975101 0.000217586 0)
(0.0973506 0.000223283 0)
(0.0971903 0.00022904 0)
(0.0970292 0.00023492 0)
(0.0968672 0.000240986 0)
(0.0967043 0.000247298 0)
(0.0965404 0.000253907 0)
(0.0963754 0.000260861 0)
(0.0962091 0.0002682 0)
(0.0960415 0.000275959 0)
(0.0958723 0.000284172 0)
(0.0957015 0.000292865 0)
(0.0955289 0.000302062 0)
(0.0953543 0.000311785 0)
(0.0951776 0.00032205 0)
(0.0949986 0.000332877 0)
(0.0948173 0.000344281 0)
(0.0946335 0.000356281 0)
(0.094447 0.000368897 0)
(0.0942578 0.000382155 0)
(0.0940657 0.000396083 0)
(0.0938706 0.000410718 0)
(0.0936724 0.000426103 0)
(0.0934708 0.000442293 0)
(0.0932658 0.000459351 0)
(0.0930572 0.000477353 0)
(0.0928448 0.00049639 0)
(0.0926284 0.000516567 0)
(0.0924078 0.000538009 0)
(0.0921827 0.00056086 0)
(0.0919528 0.000585293 0)
(0.0917178 0.000611504 0)
(0.0914773 0.000639726 0)
(0.0912308 0.000670231 0)
(0.090978 0.000703339 0)
(0.0907182 0.000739423 0)
(0.0904508 0.000778927 0)
(0.090175 0.000822375 0)
(0.0898901 0.000870389 0)
(0.0895951 0.000923712 0)
(0.089289 0.000983234 0)
(0.0889704 0.00105003 0)
(0.088638 0.00112539 0)
(0.0882902 0.00121092 0)
(0.0879252 0.00130854 0)
(0.0875408 0.00142064 0)
(0.0871347 0.00155022 0)
(0.0867042 0.00170096 0)
(0.0862462 0.00187756 0)
(0.0857576 0.00208591 0)
(0.0852347 0.00233356 0)
(0.0846737 0.00263012 0)
(0.084071 0.00298797 0)
(0.0834236 0.00342297 0)
(0.0827299 0.00395541 0)
(0.0819908 0.00461086 0)
(0.0812126 0.00542085 0)
(0.0804098 0.00642227 0)
(0.0796107 0.00765426 0)
(0.0788634 0.00914912 0)
(0.0782428 0.0109124 0)
(0.0778517 0.0128856 0)
(0.0778056 0.014886 0)
(0.0781642 0.0165361 0)
(0.0999986 1.58427e-05 0)
(0.0999801 5.22279e-05 0)
(0.0999287 0.000106914 0)
(0.0998349 0.000167697 0)
(0.0996997 0.000218826 0)
(0.099534 0.000250373 0)
(0.0993529 0.000261851 0)
(0.0991693 0.000259537 0)
(0.0989907 0.00025145 0)
(0.0988197 0.000243712 0)
(0.0986555 0.000239389 0)
(0.0984962 0.000239073 0)
(0.0983396 0.000242027 0)
(0.0981842 0.000247135 0)
(0.098029 0.00025343 0)
(0.0978735 0.000260263 0)
(0.0977174 0.000267289 0)
(0.0975606 0.000274375 0)
(0.0974031 0.00028151 0)
(0.0972448 0.000288745 0)
(0.0970858 0.000296152 0)
(0.0969259 0.000303806 0)
(0.0967651 0.000311779 0)
(0.0966033 0.000320133 0)
(0.0964403 0.000328924 0)
(0.0962761 0.000338203 0)
(0.0961105 0.000348013 0)
(0.0959433 0.000358391 0)
(0.0957745 0.000369372 0)
(0.0956038 0.000380985 0)
(0.0954312 0.000393254 0)
(0.0952566 0.000406203 0)
(0.0950797 0.000419852 0)
(0.0949005 0.000434222 0)
(0.0947188 0.000449335 0)
(0.0945346 0.000465218 0)
(0.0943477 0.0004819 0)
(0.0941579 0.000499418 0)
(0.0939653 0.000517816 0)
(0.0937696 0.00053715 0)
(0.0935707 0.000557485 0)
(0.0933686 0.000578901 0)
(0.0931629 0.000601489 0)
(0.0929537 0.000625362 0)
(0.0927406 0.00065065 0)
(0.0925235 0.000677505 0)
(0.0923021 0.000706104 0)
(0.0920762 0.000736656 0)
(0.0918455 0.000769401 0)
(0.0916097 0.000804623 0)
(0.0913683 0.00084265 0)
(0.0911209 0.000883868 0)
(0.0908672 0.000928728 0)
(0.0906064 0.00097776 0)
(0.090338 0.00103159 0)
(0.0900613 0.00109095 0)
(0.0897756 0.00115673 0)
(0.0894799 0.00122997 0)
(0.0891732 0.00131191 0)
(0.0888546 0.00140406 0)
(0.0885227 0.00150822 0)
(0.0881762 0.00162661 0)
(0.0878138 0.00176187 0)
(0.0874338 0.00191729 0)
(0.0870345 0.00209689 0)
(0.0866145 0.00230561 0)
(0.086172 0.00254956 0)
(0.0857059 0.00283634 0)
(0.0852153 0.00317532 0)
(0.0847006 0.00357808 0)
(0.0841634 0.0040588 0)
(0.0836085 0.0046346 0)
(0.0830442 0.00532558 0)
(0.0824853 0.00615431 0)
(0.0819547 0.00714387 0)
(0.0814872 0.00831357 0)
(0.0811312 0.00967026 0)
(0.0809489 0.0111934 0)
(0.0810093 0.012813 0)
(0.0813671 0.0143831 0)
(0.0820166 0.0156706 0)
(0.0999987 1.85352e-05 0)
(0.0999824 6.15705e-05 0)
(0.0999366 0.000126626 0)
(0.0998514 0.000199649 0)
(0.0997265 0.000261978 0)
(0.0995706 0.000301489 0)
(0.0993972 0.00031711 0)
(0.0992184 0.000315903 0)
(0.0990423 0.000307237 0)
(0.0988722 0.000298442 0)
(0.0987082 0.00029333 0)
(0.0985491 0.000292787 0)
(0.098393 0.000296078 0)
(0.0982387 0.000301963 0)
(0.098085 0.000309327 0)
(0.0979313 0.00031741 0)
(0.0977773 0.000325794 0)
(0.0976229 0.000334308 0)
(0.0974678 0.000342928 0)
(0.0973121 0.000351705 0)
(0.0971557 0.000360718 0)
(0.0969984 0.000370052 0)
(0.0968402 0.000379787 0)
(0.0966809 0.000389996 0)
(0.0965205 0.000400743 0)
(0.0963588 0.000412086 0)
(0.0961957 0.000424075 0)
(0.096031 0.000436754 0)
(0.0958647 0.000450163 0)
(0.0956965 0.000464334 0)
(0.0955265 0.000479297 0)
(0.0953544 0.000495077 0)
(0.0951801 0.0005117 0)
(0.0950035 0.00052919 0)
(0.0948246 0.000547574 0)
(0.0946431 0.000566882 0)
(0.0944591 0.000587149 0)
(0.0942724 0.00060842 0)
(0.0940829 0.000630747 0)
(0.0938905 0.000654196 0)
(0.093695 0.000678843 0)
(0.0934964 0.000704784 0)
(0.0932946 0.000732127 0)
(0.0930893 0.000761003 0)
(0.0928804 0.000791566 0)
(0.0926678 0.000823994 0)
(0.0924512 0.000858496 0)
(0.0922304 0.000895312 0)
(0.0920052 0.000934725 0)
(0.0917753 0.000977061 0)
(0.0915403 0.0010227 0)
(0.0912999 0.00107209 0)
(0.0910538 0.00112574 0)
(0.0908014 0.00118425 0)
(0.0905423 0.00124835 0)
(0.090276 0.00131885 0)
(0.0900019 0.00139673 0)
(0.0897193 0.00148316 0)
(0.0894276 0.00157951 0)
(0.089126 0.0016874 0)
(0.0888138 0.00180877 0)
(0.0884902 0.00194596 0)
(0.0881544 0.00210173 0)
(0.0878057 0.00227944 0)
(0.0874437 0.00248309 0)
(0.0870679 0.00271751 0)
(0.0866785 0.0029885 0)
(0.0862763 0.003303 0)
(0.085863 0.00366925 0)
(0.0854419 0.00409697 0)
(0.0850184 0.00459738 0)
(0.0846007 0.00518309 0)
(0.0842013 0.00586763 0)
(0.0838378 0.0066643 0)
(0.0835347 0.00758396 0)
(0.0833239 0.00863118 0)
(0.0832445 0.00979797 0)
(0.0833399 0.0110549 0)
(0.0836499 0.0123407 0)
(0.0841947 0.0135541 0)
(0.0849511 0.0145582 0)
(0.0999989 2.10438e-05 0)
(0.0999848 7.03606e-05 0)
(0.0999449 0.00014544 0)
(0.0998692 0.000230697 0)
(0.0997558 0.000304732 0)
(0.099611 0.000353137 0)
(0.0994465 0.000373983 0)
(0.0992737 0.000374834 0)
(0.0991009 0.000366245 0)
(0.0989323 0.000356729 0)
(0.0987691 0.000350911 0)
(0.0986105 0.000350072 0)
(0.0984554 0.00035357 0)
(0.0983024 0.000360096 0)
(0.0981506 0.000368424 0)
(0.0979992 0.00037769 0)
(0.0978478 0.000387404 0)
(0.0976961 0.000397353 0)
(0.097544 0.000407494 0)
(0.0973913 0.000417871 0)
(0.0972379 0.000428567 0)
(0.0970837 0.000439671 0)
(0.0969286 0.000451272 0)
(0.0967724 0.000463448 0)
(0.096615 0.000476271 0)
(0.0964563 0.000489805 0)
(0.0962962 0.000504106 0)
(0.0961346 0.000519223 0)
(0.0959712 0.000535199 0)
(0.0958061 0.00055207 0)
(0.0956391 0.00056987 0)
(0.0954701 0.000588627 0)
(0.0952989 0.00060837 0)
(0.0951256 0.000629126 0)
(0.0949499 0.000650926 0)
(0.0947719 0.000673803 0)
(0.0945914 0.0006978 0)
(0.0944084 0.000722968 0)
(0.0942227 0.000749365 0)
(0.0940342 0.000777068 0)
(0.093843 0.000806165 0)
(0.0936488 0.000836763 0)
(0.0934515 0.000868988 0)
(0.0932511 0.000902988 0)
(0.0930474 0.000938936 0)
(0.0928403 0.000977035 0)
(0.0926296 0.00101752 0)
(0.092415 0.00106066 0)
(0.0921965 0.00110677 0)
(0.0919739 0.00115622 0)
(0.0917467 0.00120943 0)
(0.0915149 0.00126688 0)
(0.0912781 0.00132914 0)
(0.091036 0.00139688 0)
(0.0907883 0.00147085 0)
(0.0905346 0.00155195 0)
(0.0902746 0.00164122 0)
(0.0900078 0.00173988 0)
(0.089734 0.00184936 0)
(0.0894528 0.00197131 0)
(0.0891638 0.00210772 0)
(0.0888669 0.00226087 0)
(0.0885621 0.00243348 0)
(0.0882493 0.00262873 0)
(0.0879292 0.00285034 0)
(0.0876025 0.00310263 0)
(0.0872708 0.00339064 0)
(0.0869364 0.00372013 0)
(0.086603 0.00409764 0)
(0.0862757 0.0045304 0)
(0.0859618 0.00502617 0)
(0.085671 0.00559286 0)
(0.0854167 0.00623784 0)
(0.0852159 0.00696673 0)
(0.0850898 0.00778159 0)
(0.0850635 0.00867815 0)
(0.0851647 0.00964217 0)
(0.0854202 0.0106451 0)
(0.0858501 0.0116403 0)
(0.0864583 0.0125621 0)
(0.0872219 0.0133321 0)
(0.099999 2.3332e-05 0)
(0.0999872 7.84367e-05 0)
(0.0999531 0.000163013 0)
(0.0998871 0.000260323 0)
(0.0997857 0.000346485 0)
(0.099653 0.000404743 0)
(0.0994984 0.000432016 0)
(0.0993327 0.000436039 0)
(0.0991642 0.000428337 0)
(0.098998 0.000418546 0)
(0.0988362 0.000412169 0)
(0.0986789 0.000410988 0)
(0.0985252 0.000414552 0)
(0.098374 0.000421564 0)
(0.0982244 0.000430723 0)
(0.0980757 0.000441081 0)
(0.0979273 0.000452078 0)
(0.0977788 0.000463455 0)
(0.0976301 0.000475142 0)
(0.0974808 0.000487172 0)
(0.097331 0.000499624 0)
(0.0971803 0.000512588 0)
(0.0970287 0.000526156 0)
(0.096876 0.000540413 0)
(0.0967221 0.000555433 0)
(0.0965669 0.000571286 0)
(0.0964103 0.000588031 0)
(0.0962521 0.000605721 0)
(0.0960923 0.0006244 0)
(0.0959307 0.00064411 0)
(0.0957672 0.000664884 0)
(0.0956018 0.000686755 0)
(0.0954344 0.000709752 0)
(0.0952648 0.000733906 0)
(0.0950931 0.00075925 0)
(0.0949191 0.000785824 0)
(0.0947427 0.000813672 0)
(0.094564 0.000842852 0)
(0.0943829 0.000873432 0)
(0.0941991 0.000905494 0)
(0.0940128 0.000939137 0)
(0.0938238 0.000974478 0)
(0.0936321 0.00101166 0)
(0.0934375 0.00105084 0)
(0.0932399 0.00109221 0)
(0.0930393 0.001136 0)
(0.0928356 0.00118246 0)
(0.0926285 0.00123187 0)
(0.092418 0.00128459 0)
(0.092204 0.00134101 0)
(0.0919862 0.00140157 0)
(0.0917645 0.00146679 0)
(0.0915388 0.00153726 0)
(0.0913088 0.00161369 0)
(0.0910745 0.00169685 0)
(0.0908356 0.00178766 0)
(0.0905921 0.00188718 0)
(0.0903438 0.00199662 0)
(0.0900907 0.00211738 0)
(0.0898328 0.00225109 0)
(0.0895703 0.00239961 0)
(0.0893036 0.00256508 0)
(0.0890331 0.00274996 0)
(0.0887597 0.00295705 0)
(0.0884848 0.00318954 0)
(0.08821 0.00345098 0)
(0.087938 0.00374534 0)
(0.0876721 0.00407692 0)
(0.0874169 0.00445027 0)
(0.0871784 0.00487004 0)
(0.0869642 0.0053407 0)
(0.0867843 0.00586605 0)
(0.0866503 0.0064486 0)
(0.0865767 0.00708863 0)
(0.0865798 0.0077829 0)
(0.0866772 0.00852311 0)
(0.0868865 0.00929409 0)
(0.0872225 0.0100722 0)
(0.0876937 0.0108244 0)
(0.0882977 0.0115098 0)
(0.0890163 0.0120837 0)
(0.0999991 2.53864e-05 0)
(0.0999893 8.57073e-05 0)
(0.0999607 0.000179121 0)
(0.0999042 0.000288148 0)
(0.0998147 0.00038674 0)
(0.0996942 0.000455774 0)
(0.0995503 0.000490726 0)
(0.0993926 0.00049914 0)
(0.0992296 0.000493255 0)
(0.0990668 0.000483745 0)
(0.0989074 0.00047703 0)
(0.098752 0.0004755 0)
(0.0986003 0.000479009 0)
(0.0984515 0.000486347 0)
(0.0983046 0.000496194 0)
(0.0981589 0.000507539 0)
(0.0980139 0.000519758 0)
(0.097869 0.000532543 0)
(0.097724 0.000545793 0)
(0.0975786 0.000559522 0)
(0.0974326 0.000573797 0)
(0.0972859 0.000588708 0)
(0.0971382 0.000604344 0)
(0.0969894 0.000620792 0)
(0.0968394 0.00063813 0)
(0.0966882 0.000656426 0)
(0.0965354 0.000675744 0)
(0.0963812 0.000696136 0)
(0.0962253 0.00071765 0)
(0.0960677 0.000740326 0)
(0.0959083 0.000764201 0)
(0.095747 0.000789308 0)
(0.0955838 0.000815677 0)
(0.0954186 0.000843342 0)
(0.0952513 0.000872338 0)
(0.095082 0.000902707 0)
(0.0949104 0.000934499 0)
(0.0947367 0.000967774 0)
(0.0945608 0.00100261 0)
(0.0943825 0.00103909 0)
(0.094202 0.00107732 0)
(0.094019 0.00111743 0)
(0.0938336 0.00115958 0)
(0.0936458 0.00120392 0)
(0.0934553 0.00125068 0)
(0.0932623 0.00130007 0)
(0.0930666 0.00135237 0)
(0.0928682 0.00140789 0)
(0.092667 0.00146698 0)
(0.092463 0.00153005 0)
(0.092256 0.00159755 0)
(0.0920461 0.00167001 0)
(0.0918331 0.00174805 0)
(0.0916172 0.00183234 0)
(0.0913982 0.00192366 0)
(0.0911762 0.00202291 0)
(0.0909514 0.0021311 0)
(0.0907239 0.00224938 0)
(0.090494 0.00237905 0)
(0.090262 0.00252159 0)
(0.0900286 0.00267866 0)
(0.0897945 0.00285211 0)
(0.0895608 0.00304401 0)
(0.0893289 0.00325663 0)
(0.0891006 0.00349244 0)
(0.0888784 0.00375409 0)
(0.0886653 0.00404432 0)
(0.0884651 0.00436592 0)
(0.0882829 0.00472154 0)
(0.0881243 0.00511352 0)
(0.0879967 0.00554359 0)
(0.0879083 0.00601247 0)
(0.087869 0.0065194 0)
(0.0878894 0.00706151 0)
(0.0879809 0.0076331 0)
(0.0881548 0.00822493 0)
(0.0884211 0.00882354 0)
(0.0887871 0.00941089 0)
(0.089255 0.00996469 0)
(0.0898202 0.0104597 0)
(0.0904695 0.0108704 0)
(0.0999992 2.7221e-05 0)
(0.099991 9.2166e-05 0)
(0.0999674 0.000193686 0)
(0.0999193 0.000313975 0)
(0.0998411 0.000425164 0)
(0.0997326 0.000505794 0)
(0.0995997 0.000549639 0)
(0.0994508 0.000563693 0)
(0.0992942 0.00056063 0)
(0.0991361 0.000552045 0)
(0.09898 0.000545296 0)
(0.0988275 0.000543476 0)
(0.0986785 0.000546845 0)
(0.0985326 0.000554371 0)
(0.0983889 0.00056477 0)
(0.0982468 0.000576994 0)
(0.0981054 0.00059037 0)
(0.0979645 0.000604539 0)
(0.0978236 0.000619361 0)
(0.0976823 0.000634827 0)
(0.0975405 0.00065099 0)
(0.097398 0.000667928 0)
(0.0972545 0.000685729 0)
(0.09711 0.000704474 0)
(0.0969643 0.000724242 0)
(0.0968173 0.000745101 0)
(0.0966688 0.000767111 0)
(0.0965189 0.000790326 0)
(0.0963674 0.000814793 0)
(0.0962142 0.000840551 0)
(0.0960593 0.000867637 0)
(0.0959027 0.000896083 0)
(0.0957442 0.00092592 0)
(0.0955839 0.000957183 0)
(0.0954217 0.000989907 0)
(0.0952575 0.00102414 0)
(0.0950914 0.00105993 0)
(0.0949234 0.00109733 0)
(0.0947534 0.00113644 0)
(0.0945813 0.00117735 0)
(0.0944073 0.00122015 0)
(0.0942312 0.001265 0)
(0.094053 0.00131203 0)
(0.0938728 0.00136143 0)
(0.0936905 0.00141342 0)
(0.0935061 0.00146822 0)
(0.0933196 0.00152611 0)
(0.093131 0.00158741 0)
(0.0929404 0.00165246 0)
(0.0927476 0.00172167 0)
(0.0925529 0.00179549 0)
(0.0923562 0.00187444 0)
(0.0921577 0.0019591 0)
(0.0919574 0.00205011 0)
(0.0917555 0.00214822 0)
(0.0915523 0.00225425 0)
(0.0913482 0.00236912 0)
(0.0911434 0.00249384 0)
(0.0909386 0.00262956 0)
(0.0907345 0.00277751 0)
(0.0905319 0.00293908 0)
(0.0903319 0.00311573 0)
(0.0901361 0.00330903 0)
(0.0899461 0.00352064 0)
(0.0897642 0.00375227 0)
(0.0895929 0.00400558 0)
(0.0894356 0.00428218 0)
(0.089296 0.00458346 0)
(0.0891786 0.00491045 0)
(0.0890888 0.00526369 0)
(0.0890325 0.00564292 0)
(0.0890163 0.00604687 0)
(0.0890475 0.00647293 0)
(0.0891332 0.00691679 0)
(0.089281 0.00737219 0)
(0.0894971 0.00783061 0)
(0.0897866 0.00828119 0)
(0.0901522 0.00871087 0)
(0.0905932 0.00910488 0)
(0.0911048 0.00944778 0)
(0.0916773 0.00972483 0)
(0.0999992 2.88743e-05 0)
(0.0999924 9.78883e-05 0)
(0.0999728 0.000206782 0)
(0.0999321 0.000337802 0)
(0.0998639 0.000461612 0)
(0.0997667 0.000554499 0)
(0.0996447 0.00060833 0)
(0.0995051 0.000629219 0)
(0.0993559 0.000630001 0)
(0.0992035 0.000623049 0)
(0.0990519 0.000616654 0)
(0.0989031 0.000614677 0)
(0.0987577 0.000617886 0)
(0.0986153 0.000625506 0)
(0.0984753 0.000636345 0)
(0.098337 0.000649356 0)
(0.0981997 0.000663827 0)
(0.098063 0.000679352 0)
(0.0979263 0.000695755 0)
(0.0977894 0.000712993 0)
(0.0976521 0.000731101 0)
(0.097514 0.000750142 0)
(0.0973751 0.000770196 0)
(0.0972351 0.000791337 0)
(0.0970939 0.000813639 0)
(0.0969515 0.000837166 0)
(0.0968077 0.000861976 0)
(0.0966625 0.000888119 0)
(0.0965157 0.000915639 0)
(0.0963674 0.000944574 0)
(0.0962174 0.000974957 0)
(0.0960659 0.00100682 0)
(0.0959126 0.00104019 0)
(0.0957577 0.0010751 0)
(0.0956011 0.0011116 0)
(0.0954428 0.00114971 0)
(0.0952827 0.0011895 0)
(0.095121 0.00123103 0)
(0.0949576 0.00127438 0)
(0.0947925 0.00131964 0)
(0.0946257 0.00136693 0)
(0.0944572 0.00141638 0)
(0.0942871 0.00146814 0)
(0.0941154 0.00152239 0)
(0.0939422 0.00157933 0)
(0.0937674 0.00163921 0)
(0.0935912 0.00170229 0)
(0.0934136 0.00176887 0)
(0.0932346 0.00183929 0)
(0.0930545 0.00191393 0)
(0.0928733 0.00199322 0)
(0.0926912 0.00207763 0)
(0.0925085 0.0021677 0)
(0.0923253 0.002264 0)
(0.0921421 0.0023672 0)
(0.0919592 0.002478 0)
(0.0917772 0.00259717 0)
(0.0915966 0.00272557 0)
(0.0914183 0.0028641 0)
(0.091243 0.00301372 0)
(0.0910721 0.00317545 0)
(0.0909067 0.00335033 0)
(0.0907485 0.00353941 0)
(0.0905994 0.00374371 0)
(0.0904617 0.00396418 0)
(0.0903379 0.00420163 0)
(0.0902312 0.00445664 0)
(0.0901449 0.00472948 0)
(0.090083 0.00501999 0)
(0.0900496 0.00532742 0)
(0.0900495 0.00565033 0)
(0.0900873 0.00598635 0)
(0.090168 0.00633211 0)
(0.0902962 0.00668304 0)
(0.090476 0.00703331 0)
(0.0907106 0.00737583 0)
(0.091002 0.00770236 0)
(0.0913504 0.00800374 0)
(0.0917538 0.00827031 0)
(0.0922078 0.00849259 0)
(0.0927055 0.00866194 0)
(0.0999993 3.04013e-05 0)
(0.0999934 0.000103012 0)
(0.0999769 0.000218607 0)
(0.0999422 0.0003598 0)
(0.0998826 0.000496123 0)
(0.0997957 0.000601733 0)
(0.0996841 0.000666454 0)
(0.0995541 0.00069525 0)
(0.0994131 0.000700857 0)
(0.0992673 0.000696278 0)
(0.0991212 0.000690694 0)
(0.0989771 0.000688781 0)
(0.0988359 0.000691884 0)
(0.0986977 0.000699564 0)
(0.0985618 0.000710775 0)
(0.0984277 0.000724506 0)
(0.0982948 0.000740025 0)
(0.0981625 0.000756888 0)
(0.0980303 0.000774878 0)
(0.097898 0.000793921 0)
(0.0977653 0.000814025 0)
(0.0976319 0.000835237 0)
(0.0974977 0.000857621 0)
(0.0973625 0.000881244 0)
(0.0972261 0.000906169 0)
(0.0970886 0.000932455 0)
(0.0969497 0.000960152 0)
(0.0968095 0.000989306 0)
(0.0966678 0.00101996 0)
(0.0965247 0.00105213 0)
(0.0963802 0.00108587 0)
(0.0962341 0.00112119 0)
(0.0960866 0.00115813 0)
(0.0959376 0.0011967 0)
(0.0957871 0.00123696 0)
(0.0956351 0.00127893 0)
(0.0954817 0.00132267 0)
(0.0953269 0.00136825 0)
(0.0951707 0.00141573 0)
(0.0950132 0.00146522 0)
(0.0948544 0.00151681 0)
(0.0946944 0.00157064 0)
(0.0945332 0.00162685 0)
(0.0943709 0.00168561 0)
(0.0942076 0.00174713 0)
(0.0940434 0.00181162 0)
(0.0938784 0.00187932 0)
(0.0937128 0.00195052 0)
(0.0935466 0.00202552 0)
(0.0933802 0.00210466 0)
(0.0932137 0.00218833 0)
(0.0930474 0.00227693 0)
(0.0928817 0.00237093 0)
(0.0927168 0.0024708 0)
(0.0925534 0.00257709 0)
(0.0923919 0.00269035 0)
(0.092233 0.00281119 0)
(0.0920774 0.00294023 0)
(0.091926 0.00307812 0)
(0.09178 0.00322552 0)
(0.0916404 0.00338305 0)
(0.0915088 0.00355134 0)
(0.0913867 0.00373091 0)
(0.0912761 0.00392222 0)
(0.0911791 0.00412554 0)
(0.0910979 0.00434097 0)
(0.0910354 0.00456832 0)
(0.0909942 0.00480705 0)
(0.0909776 0.0050562 0)
(0.0909886 0.00531431 0)
(0.0910305 0.0055793 0)
(0.0911065 0.00584845 0)
(0.0912197 0.0061183 0)
(0.0913726 0.00638468 0)
(0.0915671 0.00664267 0)
(0.0918047 0.00688673 0)
(0.0920853 0.00711086 0)
(0.0924081 0.00730876 0)
(0.0927706 0.00747421 0)
(0.0931692 0.00760131 0)
(0.0935986 0.00768496 0)
(0.0999993 3.18619e-05 0)
(0.0999941 0.000107706 0)
(0.0999798 0.00022943 0)
(0.0999498 0.000380254 0)
(0.0998974 0.000528877 0)
(0.0998196 0.000647474 0)
(0.0997178 0.000723764 0)
(0.0995973 0.000761364 0)
(0.0994648 0.000772689 0)
(0.0993264 0.000771214 0)
(0.0991866 0.000766949 0)
(0.0990481 0.000765397 0)
(0.0989119 0.000768532 0)
(0.0987784 0.000776307 0)
(0.0986471 0.000787875 0)
(0.0985175 0.000802297 0)
(0.0983892 0.000818841 0)
(0.0982615 0.000837034 0)
(0.0981341 0.000856623 0)
(0.0980065 0.0008775 0)
(0.0978786 0.000899646 0)
(0.0977501 0.000923085 0)
(0.0976208 0.000947865 0)
(0.0974905 0.000974037 0)
(0.0973592 0.00100166 0)
(0.0972268 0.00103077 0)
(0.0970931 0.00106141 0)
(0.0969582 0.00109364 0)
(0.096822 0.00112746 0)
(0.0966846 0.00116291 0)
(0.0965458 0.00120002 0)
(0.0964057 0.00123881 0)
(0.0962643 0.00127929 0)
(0.0961216 0.00132149 0)
(0.0959778 0.00136545 0)
(0.0958327 0.00141119 0)
(0.0956865 0.00145877 0)
(0.0955392 0.00150825 0)
(0.0953909 0.00155968 0)
(0.0952417 0.00161316 0)
(0.0950916 0.00166878 0)
(0.0949407 0.00172666 0)
(0.0947892 0.00178694 0)
(0.0946371 0.00184977 0)
(0.0944845 0.00191532 0)
(0.0943318 0.00198378 0)
(0.0941789 0.00205538 0)
(0.0940261 0.00213034 0)
(0.0938737 0.00220894 0)
(0.0937219 0.00229146 0)
(0.0935711 0.0023782 0)
(0.0934215 0.00246951 0)
(0.0932736 0.00256572 0)
(0.0931279 0.00266722 0)
(0.092985 0.00277438 0)
(0.0928455 0.00288761 0)
(0.09271 0.00300731 0)
(0.0925795 0.00313386 0)
(0.092455 0.00326765 0)
(0.0923374 0.003409 0)
(0.0922281 0.00355822 0)
(0.0921284 0.00371549 0)
(0.0920399 0.00388092 0)
(0.0919642 0.00405446 0)
(0.0919032 0.00423589 0)
(0.0918589 0.00442476 0)
(0.0918334 0.00462035 0)
(0.0918289 0.00482164 0)
(0.0918476 0.00502723 0)
(0.0918918 0.00523534 0)
(0.0919635 0.00544373 0)
(0.0920647 0.00564975 0)
(0.092197 0.00585027 0)
(0.0923616 0.00604177 0)
(0.0925592 0.00622038 0)
(0.0927898 0.00638195 0)
(0.0930527 0.00652224 0)
(0.0933465 0.00663701 0)
(0.093669 0.00672226 0)
(0.0940169 0.00677435 0)
(0.0943864 0.00679018 0)
(0.0999993 3.33106e-05 0)
(0.0999945 0.000112144 0)
(0.0999819 0.000239544 0)
(0.0999554 0.000399509 0)
(0.0999089 0.000560141 0)
(0.0998388 0.000691802 0)
(0.099746 0.000780114 0)
(0.0996347 0.000827215 0)
(0.099511 0.000845024 0)
(0.0993805 0.000847342 0)
(0.0992477 0.000844929 0)
(0.0991154 0.000844098 0)
(0.0989848 0.000847476 0)
(0.0988565 0.000855453 0)
(0.0987302 0.000867421 0)
(0.0986055 0.000882546 0)
(0.098482 0.000900118 0)
(0.0983592 0.000919649 0)
(0.0982366 0.000940854 0)
(0.098114 0.000963594 0)
(0.097991 0.000987818 0)