/*--------------------------------*- C++ -*----------------------------------*\
  =========                 |
  \\      /  F ield         | OpenFOAM: The Open Source CFD Toolbox
   \\    /   O peration     | Website:  https://openfoam.org
    \\  /    A nd           | Version:  7
     \\/     M anipulation  |
\*---------------------------------------------------------------------------*/
FoamFile
{
    version     2.0;
    format      ascii;
    class       surfaceScalarField;
    location    "1.84";
    object      phi;
}
// * * * * * * * * * * * * * * * * * * * * * * * * * * * * * * * * * * * * * //

dimensions      [1 0 -1 0 0 0 0];

internalField   nonuniform List<scalar> 
23692
(
1.17321e-05
-9.72586e-08
1.19114e-05
-1.79124e-07
1.21654e-05
-2.5382e-07
1.24862e-05
-3.20613e-07
1.28672e-05
-3.80664e-07
1.3302e-05
-4.34512e-07
1.37848e-05
-4.8244e-07
1.431e-05
-5.24733e-07
1.48721e-05
-5.61701e-07
1.54663e-05
-5.93701e-07
1.60879e-05
-6.21142e-07
1.67328e-05
-6.44473e-07
1.73974e-05
-6.64166e-07
1.80784e-05
-6.80696e-07
1.87733e-05
-6.94524e-07
1.94797e-05
-7.06083e-07
2.01956e-05
-7.15763e-07
2.09196e-05
-7.23909e-07
2.16505e-05
-7.30815e-07
2.23871e-05
-7.36722e-07
2.31287e-05
-7.41825e-07
2.38746e-05
-7.46271e-07
2.46243e-05
-7.50168e-07
2.53773e-05
-7.5359e-07
2.61331e-05
-7.56581e-07
2.68913e-05
-7.59162e-07
2.76515e-05
-7.61336e-07
2.84133e-05
-7.63089e-07
2.91762e-05
-7.64401e-07
2.99397e-05
-7.65243e-07
3.07034e-05
-7.65582e-07
3.14667e-05
-7.65381e-07
3.22289e-05
-7.64606e-07
3.29896e-05
-7.6322e-07
3.37481e-05
-7.61188e-07
3.45036e-05
-7.5848e-07
3.52555e-05
-7.55062e-07
3.60029e-05
-7.50908e-07
3.67453e-05
-7.45991e-07
3.74817e-05
-7.40286e-07
3.82114e-05
-7.3377e-07
3.89335e-05
-7.26421e-07
3.96472e-05
-7.18218e-07
4.03516e-05
-7.0914e-07
4.10458e-05
-6.99167e-07
4.17289e-05
-6.88277e-07
4.24e-05
-6.76448e-07
4.30581e-05
-6.63657e-07
4.37022e-05
-6.49877e-07
4.43313e-05
-6.3508e-07
4.49443e-05
-6.19233e-07
4.55403e-05
-6.023e-07
4.6118e-05
-5.8424e-07
4.66764e-05
-5.65004e-07
4.72141e-05
-5.44538e-07
4.77299e-05
-5.22778e-07
4.82224e-05
-4.99649e-07
4.86902e-05
-4.75065e-07
4.91318e-05
-4.48923e-07
4.95454e-05
-4.21102e-07
4.99293e-05
-3.91456e-07
5.02815e-05
-3.5981e-07
5.05997e-05
-3.25952e-07
5.08816e-05
-2.89621e-07
5.11243e-05
-2.50493e-07
5.13246e-05
-2.0816e-07
5.14789e-05
-1.62105e-07
5.15827e-05
-1.11658e-07
5.16308e-05
-5.59502e-08
5.16168e-05
6.1814e-09
5.15326e-05
7.65289e-08
5.13672e-05
1.57705e-07
5.11061e-05
2.53541e-07
5.07287e-05
3.69933e-07
5.0205e-05
5.16393e-07
4.94888e-05
7.08953e-07
4.85059e-05
9.75908e-07
4.71291e-05
1.37006e-06
4.51222e-05
2.00024e-06
4.1982e-05
3.13392e-06
5.85642e-06
3.61196e-05
1.25512e-05
-1.98863e-07
1.27421e-05
-3.69831e-07
1.30131e-05
-5.24698e-07
1.33557e-05
-6.62942e-07
1.37626e-05
-7.87268e-07
1.42272e-05
-8.98733e-07
1.47431e-05
-9.97926e-07
1.53043e-05
-1.08545e-06
1.5905e-05
-1.16193e-06
1.65399e-05
-1.22813e-06
1.72041e-05
-1.28488e-06
1.78932e-05
-1.33312e-06
1.86033e-05
-1.37383e-06
1.9331e-05
-1.40798e-06
2.00734e-05
-1.43654e-06
2.0828e-05
-1.4604e-06
2.15928e-05
-1.48037e-06
2.23662e-05
-1.49716e-06
2.31468e-05
-1.51139e-06
2.39335e-05
-1.52355e-06
2.47255e-05
-1.53404e-06
2.5522e-05
-1.54317e-06
2.63225e-05
-1.55116e-06
2.71264e-05
-1.55816e-06
2.79332e-05
-1.56428e-06
2.87426e-05
-1.56954e-06
2.9554e-05
-1.57396e-06
3.0367e-05
-1.5775e-06
3.11812e-05
-1.58014e-06
3.19959e-05
-1.58179e-06
3.28107e-05
-1.5824e-06
3.36249e-05
-1.58189e-06
3.4438e-05
-1.58019e-06
3.52493e-05
-1.57722e-06
3.60581e-05
-1.57291e-06
3.68636e-05
-1.5672e-06
3.76652e-05
-1.56001e-06
3.84619e-05
-1.5513e-06
3.9253e-05
-1.541e-06
4.00377e-05
-1.52907e-06
4.0815e-05
-1.51545e-06
4.15841e-05
-1.50011e-06
4.2344e-05
-1.48299e-06
4.30939e-05
-1.46406e-06
4.38326e-05
-1.44327e-06
4.45594e-05
-1.42057e-06
4.52731e-05
-1.39593e-06
4.59728e-05
-1.36929e-06
4.66573e-05
-1.3406e-06
4.73257e-05
-1.30981e-06
4.79767e-05
-1.27683e-06
4.86092e-05
-1.24161e-06
4.9222e-05
-1.20405e-06
4.9814e-05
-1.16407e-06
5.03836e-05
-1.12154e-06
5.09297e-05
-1.07634e-06
5.14508e-05
-1.02831e-06
5.19453e-05
-9.77292e-07
5.24115e-05
-9.23068e-07
5.28478e-05
-8.65394e-07
5.32523e-05
-8.03982e-07
5.36228e-05
-7.38481e-07
5.3957e-05
-6.68467e-07
5.42525e-05
-5.93424e-07
5.45064e-05
-5.1271e-07
5.47154e-05
-4.25523e-07
5.48757e-05
-3.30848e-07
5.4983e-05
-2.27379e-07
5.50321e-05
-1.1342e-07
5.50167e-05
1.32895e-08
5.49289e-05
1.56034e-07
5.47589e-05
3.19485e-07
5.4494e-05
5.1037e-07
5.41173e-05
7.38648e-07
5.36063e-05
1.01954e-06
5.29306e-05
1.37693e-06
5.20498e-05
1.84924e-06
5.09132e-05
2.49939e-06
4.94718e-05
3.43457e-06
4.77606e-05
4.83827e-06
6.92669e-06
4.66839e-05
1.34269e-05
-3.0433e-07
1.36292e-05
-5.72076e-07
1.39174e-05
-8.12674e-07
1.42823e-05
-1.02754e-06
1.4716e-05
-1.2207e-06
1.52115e-05
-1.39381e-06
1.57618e-05
-1.54782e-06
1.63606e-05
-1.68367e-06
1.70015e-05
-1.80237e-06
1.76789e-05
-1.90507e-06
1.83877e-05
-1.99308e-06
1.91229e-05
-2.06786e-06
1.98805e-05
-2.13094e-06
2.06568e-05
-2.18383e-06
2.14486e-05
-2.22802e-06
2.22535e-05
-2.26492e-06
2.30691e-05
-2.29576e-06
2.38937e-05
-2.32167e-06
2.47259e-05
-2.34359e-06
2.55646e-05
-2.36229e-06
2.64087e-05
-2.3784e-06
2.72575e-05
-2.39239e-06
2.81105e-05
-2.40462e-06
2.89669e-05
-2.41531e-06
2.98263e-05
-2.42461e-06
3.06882e-05
-2.43258e-06
3.15522e-05
-2.43924e-06
3.24178e-05
-2.44453e-06
3.32843e-05
-2.4484e-06
3.41513e-05
-2.45075e-06
3.50182e-05
-2.45148e-06
3.58844e-05
-2.45045e-06
3.67491e-05
-2.44757e-06
3.76117e-05
-2.44272e-06
3.84714e-05
-2.43577e-06
3.93275e-05
-2.42664e-06
4.0179e-05
-2.41521e-06
4.10252e-05
-2.4014e-06
4.18652e-05
-2.38513e-06
4.2698e-05
-2.3663e-06
4.35227e-05
-2.34485e-06
4.43384e-05
-2.3207e-06
4.5144e-05
-2.29379e-06
4.59385e-05
-2.26406e-06
4.6721e-05
-2.23142e-06
4.74904e-05
-2.19583e-06
4.82455e-05
-2.1572e-06
4.89853e-05
-2.11547e-06
4.97086e-05
-2.07054e-06
5.04143e-05
-2.02234e-06
5.11011e-05
-1.97076e-06
5.1768e-05
-1.91568e-06
5.24134e-05
-1.85699e-06
5.30362e-05
-1.79453e-06
5.3635e-05
-1.72814e-06
5.42083e-05
-1.65762e-06
5.47546e-05
-1.58275e-06
5.52723e-05
-1.50327e-06
5.57597e-05
-1.41887e-06
5.62149e-05
-1.3292e-06
5.66361e-05
-1.23382e-06
5.70211e-05
-1.13222e-06
5.73676e-05
-1.02379e-06
5.7673e-05
-9.07773e-07
5.79346e-05
-7.83257e-07
5.81492e-05
-6.49096e-07
5.83132e-05
-5.03853e-07
5.84226e-05
-3.45704e-07
5.84725e-05
-1.72294e-07
5.84574e-05
1.94257e-08
5.83709e-05
2.33676e-07
5.82054e-05
4.76201e-07
5.79521e-05
7.54989e-07
5.7601e-05
1.08119e-06
5.71416e-05
1.47052e-06
5.6565e-05
1.9453e-06
5.58693e-05
2.53686e-06
5.50728e-05
3.28811e-06
5.42459e-05
4.2539e-06
5.35901e-05
5.48667e-06
6.95473e-06
5.3555e-05
1.43634e-05
-4.13545e-07
1.4577e-05
-7.8558e-07
1.48824e-05
-1.11787e-06
1.52701e-05
-1.4149e-06
1.57315e-05
-1.68176e-06
1.62589e-05
-1.92082e-06
1.6845e-05
-2.13344e-06
1.74827e-05
-2.32092e-06
1.81656e-05
-2.48466e-06
1.88873e-05
-2.62626e-06
1.96424e-05
-2.74757e-06
2.04256e-05
-2.85059e-06
2.12326e-05
-2.93741e-06
2.20594e-05
-3.01017e-06
2.29027e-05
-3.0709e-06
2.37597e-05
-3.12154e-06
2.4628e-05
-3.16383e-06
2.55057e-05
-3.19928e-06
2.63914e-05
-3.22922e-06
2.72837e-05
-3.25471e-06
2.81817e-05
-3.27662e-06
2.90844e-05
-3.29559e-06
2.99914e-05
-3.31212e-06
3.09018e-05
-3.32652e-06
3.18152e-05
-3.339e-06
3.27311e-05
-3.34964e-06
3.3649e-05
-3.35845e-06
3.45682e-05
-3.36538e-06
3.54883e-05
-3.37033e-06
3.64086e-05
-3.37316e-06
3.73286e-05
-3.37375e-06
3.82475e-05
-3.37191e-06
3.91645e-05
-3.3675e-06
4.00791e-05
-3.36034e-06
4.09902e-05
-3.3503e-06
4.18972e-05
-3.33722e-06
4.2799e-05
-3.32096e-06
4.36948e-05
-3.30139e-06
4.45837e-05
-3.27841e-06
4.54645e-05
-3.25189e-06
4.63364e-05
-3.22173e-06
4.71983e-05
-3.18784e-06
4.8049e-05
-3.15012e-06
4.88877e-05
-3.10848e-06
4.9713e-05
-3.06284e-06
5.05239e-05
-3.01309e-06
5.13193e-05
-2.95915e-06
5.20979e-05
-2.9009e-06
5.28585e-05
-2.83825e-06
5.35999e-05
-2.77108e-06
5.43208e-05
-2.69924e-06
5.502e-05
-2.62259e-06
5.5696e-05
-2.54097e-06
5.63474e-05
-2.45417e-06
5.69729e-05
-2.36199e-06
5.75709e-05
-2.26416e-06
5.81398e-05
-2.1604e-06
5.86781e-05
-2.05037e-06
5.91838e-05
-1.93368e-06
5.96554e-05
-1.80986e-06
6.00906e-05
-1.67837e-06
6.04876e-05
-1.53857e-06
6.08441e-05
-1.38968e-06
6.11576e-05
-1.23078e-06
6.14255e-05
-1.06074e-06
6.16449e-05
-8.78174e-07
6.18128e-05
-6.81367e-07
6.19257e-05
-4.68176e-07
6.19797e-05
-2.35896e-07
6.19707e-05
1.88353e-08
6.18944e-05
3.00474e-07
6.17466e-05
6.1463e-07
6.15234e-05
9.68836e-07
6.12227e-05
1.37279e-06
6.08453e-05
1.83884e-06
6.03994e-05
2.38234e-06
5.99064e-05
3.02128e-06
5.94116e-05
3.77445e-06
5.90014e-05
4.65588e-06
5.88194e-05
5.66077e-06
6.72924e-06
5.90373e-05
1.53652e-05
-5.26533e-07
1.55899e-05
-1.0102e-06
1.59127e-05
-1.44041e-06
1.63235e-05
-1.82542e-06
1.68134e-05
-2.1712e-06
1.73738e-05
-2.4808e-06
1.79969e-05
-2.75603e-06
1.86751e-05
-2.99862e-06
1.94015e-05
-3.21039e-06
2.01692e-05
-3.39344e-06
2.09724e-05
-3.55015e-06
2.18055e-05
-3.68314e-06
2.26638e-05
-3.79514e-06
2.3543e-05
-3.88889e-06
2.44396e-05
-3.96707e-06
2.53506e-05
-4.03215e-06
2.62734e-05
-4.08639e-06
2.72061e-05
-4.13179e-06
2.81469e-05
-4.17003e-06
2.90946e-05
-4.2025e-06
3.0048e-05
-4.23032e-06
3.10063e-05
-4.25433e-06
3.19688e-05
-4.27517e-06
3.29347e-05
-4.29324e-06
3.39035e-05
-4.30881e-06
3.48746e-05
-4.32199e-06
3.58475e-05
-4.3328e-06
3.68215e-05
-4.34115e-06
3.77962e-05
-4.34693e-06
3.87708e-05
-4.34997e-06
3.97446e-05
-4.35007e-06
4.0717e-05
-4.34703e-06
4.16871e-05
-4.34064e-06
4.26541e-05
-4.33068e-06
4.36172e-05
-4.31696e-06
4.45754e-05
-4.2993e-06
4.55277e-05
-4.2775e-06
4.64733e-05
-4.25141e-06
4.7411e-05
-4.22087e-06
4.83398e-05
-4.18574e-06
4.92586e-05
-4.14588e-06
5.01663e-05
-4.10117e-06
5.10617e-05
-4.05149e-06
5.19437e-05
-3.99673e-06
5.28112e-05
-3.93676e-06
5.36628e-05
-3.87147e-06
5.44973e-05
-3.80074e-06
5.53135e-05
-3.72445e-06
5.61101e-05
-3.64245e-06
5.68858e-05
-3.55461e-06
5.76393e-05
-3.46075e-06
5.83691e-05
-3.36069e-06
5.90738e-05
-3.25424e-06
5.9752e-05
-3.14115e-06
6.04022e-05
-3.02118e-06
6.10229e-05
-2.894e-06
6.16125e-05
-2.75929e-06
6.21692e-05
-2.61663e-06
6.26915e-05
-2.46558e-06
6.31774e-05
-2.3056e-06
6.36252e-05
-2.13605e-06
6.40328e-05
-1.95621e-06
6.43982e-05
-1.76522e-06
6.47193e-05
-1.56203e-06
6.49937e-05
-1.34542e-06
6.52191e-05
-1.11389e-06
6.53931e-05
-8.65663e-07
6.55132e-05
-5.98534e-07
6.55768e-05
-3.09819e-07
6.55818e-05
3.61949e-09
6.55262e-05
3.45872e-07
6.54095e-05
7.21242e-07
6.52328e-05
1.13562e-06
6.5e-05
1.59572e-06
6.47202e-05
2.10897e-06
6.44101e-05
2.68293e-06
6.40981e-05
3.32396e-06
6.38289e-05
4.0346e-06
6.36667e-05
4.80925e-06
6.36922e-05
5.62672e-06
6.43767e-06
6.39755e-05
1.64369e-05
-6.4344e-07
1.66728e-05
-1.2459e-06
1.70131e-05
-1.78049e-06
1.74476e-05
-2.25956e-06
1.79665e-05
-2.68974e-06
1.8561e-05
-3.07473e-06
1.92223e-05
-3.41683e-06
1.99425e-05
-3.71819e-06
2.07138e-05
-3.98112e-06
2.15293e-05
-4.20826e-06
2.23823e-05
-4.40257e-06
2.32671e-05
-4.56733e-06
2.41785e-05
-4.70595e-06
2.5112e-05
-4.82184e-06
2.60638e-05
-4.91834e-06
2.70306e-05
-4.99853e-06
2.80097e-05
-5.06523e-06
2.8999e-05
-5.12091e-06
2.99967e-05
-5.16768e-06
3.10013e-05
-5.20726e-06
3.20118e-05
-5.24105e-06
3.30271e-05
-5.27009e-06
3.40464e-05
-5.29517e-06
3.50691e-05
-5.31681e-06
3.60945e-05
-5.33532e-06
3.71221e-05
-5.35084e-06
3.81511e-05
-5.3634e-06
3.9181e-05
-5.3729e-06
4.02112e-05
-5.37919e-06
4.12409e-05
-5.38205e-06
4.22694e-05
-5.38124e-06
4.3296e-05
-5.37651e-06
4.43197e-05
-5.36759e-06
4.53397e-05
-5.35423e-06
4.63551e-05
-5.33618e-06
4.73648e-05
-5.31319e-06
4.83679e-05
-5.28505e-06
4.93633e-05
-5.25155e-06
5.03498e-05
-5.2125e-06
5.13264e-05
-5.16773e-06
5.22918e-05
-5.11706e-06
5.3245e-05
-5.06034e-06
5.41846e-05
-4.99743e-06
5.51094e-05
-4.92819e-06
5.60181e-05
-4.85247e-06
5.69096e-05
-4.77013e-06
5.77823e-05
-4.68104e-06
5.86351e-05
-4.58503e-06
5.94665e-05
-4.48196e-06
6.02751e-05
-4.37166e-06
6.10597e-05
-4.25392e-06
6.18186e-05
-4.12855e-06
6.25506e-05
-3.99531e-06
6.3254e-05
-3.85394e-06
6.39274e-05
-3.70415e-06
6.45692e-05
-3.54561e-06
6.51778e-05
-3.37792e-06
6.57517e-05
-3.20067e-06
6.62891e-05
-3.01334e-06
6.67884e-05
-2.81538e-06
6.72478e-05
-2.60613e-06
6.76657e-05
-2.38481e-06
6.80402e-05
-2.15054e-06
6.83695e-05
-1.90229e-06
6.8652e-05
-1.63884e-06
6.88859e-05
-1.35878e-06
6.90696e-05
-1.06044e-06
6.92019e-05
-7.41856e-07
6.92818e-05
-4.00732e-07
6.93089e-05
-3.44589e-08
6.92841e-05
3.59759e-07
6.92097e-05
7.84784e-07
6.90906e-05
1.24409e-06
6.89347e-05
1.74106e-06
6.87547e-05
2.27853e-06
6.85695e-05
2.85796e-06
6.84053e-05
3.4782e-06
6.82963e-05
4.13377e-06
6.82835e-05
4.81253e-06
6.8408e-05
5.49296e-06
6.14166e-06
6.8695e-05
1.75836e-05
-7.64507e-07
1.78307e-05
-1.49277e-06
1.81888e-05
-2.13839e-06
1.86474e-05
-2.71778e-06
1.91962e-05
-3.2381e-06
1.98256e-05
-3.70357e-06
2.05263e-05
-4.117e-06
2.12898e-05
-4.48099e-06
2.21077e-05
-4.79836e-06
2.29724e-05
-5.07233e-06
2.38771e-05
-5.30652e-06
2.48153e-05
-5.5049e-06
2.57816e-05
-5.67159e-06
2.67711e-05
-5.81077e-06
2.77797e-05
-5.92646e-06
2.8804e-05
-6.0224e-06
2.98411e-05
-6.10201e-06
3.08887e-05
-6.16827e-06
3.19448e-05
-6.22374e-06
3.30079e-05
-6.2705e-06
3.40768e-05
-6.31024e-06
3.51505e-05
-6.34424e-06
3.6228e-05
-6.37343e-06
3.73087e-05
-6.39845e-06
3.83919e-05
-6.41967e-06
3.9477e-05
-6.43726e-06
4.05631e-05
-6.45126e-06
4.16499e-05
-6.46155e-06
4.27364e-05
-6.46793e-06
4.3822e-05
-6.47016e-06
4.49058e-05
-6.46793e-06
4.59871e-05
-6.46094e-06
4.70649e-05
-6.44887e-06
4.81383e-05
-6.43141e-06
4.92063e-05
-6.40825e-06
5.02678e-05
-6.37911e-06
5.13217e-05
-6.34372e-06
5.23669e-05
-6.30183e-06
5.34022e-05
-6.25321e-06
5.44263e-05
-6.19766e-06
5.54381e-05
-6.13496e-06
5.64362e-05
-6.06494e-06
5.74194e-05
-5.98742e-06
5.83864e-05
-5.90224e-06
5.93357e-05
-5.80924e-06
6.02661e-05
-5.70824e-06
6.11761e-05
-5.5991e-06
6.20643e-05
-5.48165e-06
6.29294e-05
-5.35569e-06
6.37698e-05
-5.22106e-06
6.45842e-05
-5.07753e-06
6.5371e-05
-4.92489e-06
6.61288e-05
-4.76289e-06
6.68561e-05
-4.59126e-06
6.75513e-05
-4.40967e-06
6.8213e-05
-4.2178e-06
6.88396e-05
-4.01525e-06
6.94297e-05
-3.80158e-06
6.99816e-05
-3.5763e-06
7.04938e-05
-3.33885e-06
7.09649e-05
-3.0886e-06
7.13934e-05
-2.82482e-06
7.1778e-05
-2.54669e-06
7.21173e-05
-2.25329e-06
7.24102e-05
-1.94357e-06
7.2656e-05
-1.61632e-06
7.28539e-05
-1.27021e-06
7.3004e-05
-9.03753e-07
7.31068e-05
-5.15298e-07
7.31637e-05
-1.03138e-07
7.31776e-05
3.34147e-07
7.31531e-05
7.97709e-07
7.3097e-05
1.2887e-06
7.30191e-05
1.80768e-06
7.29324e-05
2.35404e-06
7.28539e-05
2.92547e-06
7.28042e-05
3.51714e-06
7.28065e-05
4.12091e-06
7.28843e-05
4.72447e-06
7.30562e-05
5.31101e-06
5.86002e-06
7.33281e-05
1.88106e-05
-8.90039e-07
1.9069e-05
-1.75102e-06
1.94454e-05
-2.51447e-06
1.99286e-05
-3.20058e-06
2.05079e-05
-3.81699e-06
2.11732e-05
-4.36826e-06
2.19145e-05
-4.85767e-06
2.27225e-05
-5.28831e-06
2.35884e-05
-5.66354e-06
2.4504e-05
-5.98719e-06
2.54618e-05
-6.26358e-06
2.64551e-05
-6.49745e-06
2.74779e-05
-6.69371e-06
2.8525e-05
-6.85731e-06
2.95922e-05
-6.99303e-06
3.06755e-05
-7.10532e-06
3.17721e-05
-7.19824e-06
3.28794e-05
-7.27533e-06
3.39953e-05
-7.3396e-06
3.51183e-05
-7.39355e-06
3.62469e-05
-7.43917e-06
3.73801e-05
-7.47797e-06
3.8517e-05
-7.51107e-06
3.96568e-05
-7.5392e-06
4.07987e-05
-7.56283e-06
4.19422e-05
-7.58216e-06
4.30863e-05
-7.5972e-06
4.42305e-05
-7.60784e-06
4.53741e-05
-7.61383e-06
4.65161e-05
-7.61488e-06
4.76558e-05
-7.61064e-06
4.87923e-05
-7.60073e-06
4.99245e-05
-7.5848e-06
5.10515e-05
-7.56245e-06
5.21723e-05
-7.53333e-06
5.32855e-05
-7.49711e-06
5.43902e-05
-7.45347e-06
5.5485e-05
-7.40211e-06
5.65688e-05
-7.34277e-06
5.76401e-05
-7.27519e-06
5.86978e-05
-7.19915e-06
5.97404e-05
-7.11443e-06
6.07666e-05
-7.02083e-06
6.17749e-05
-6.91816e-06
6.27639e-05
-6.80625e-06
6.37323e-05
-6.68491e-06
6.46786e-05
-6.55397e-06
6.56012e-05
-6.41324e-06
6.64988e-05
-6.26254e-06
6.73698e-05
-6.10167e-06
6.82128e-05
-5.93042e-06
6.90262e-05
-5.74856e-06
6.98087e-05
-5.55585e-06
7.05587e-05
-5.35201e-06
7.12748e-05
-5.13674e-06
7.19555e-05
-4.90972e-06
7.25994e-05
-4.67058e-06
7.32051e-05
-4.41892e-06
7.37712e-05
-4.15429e-06
7.42965e-05
-3.8762e-06
7.47799e-05
-3.58411e-06
7.52201e-05
-3.2774e-06
7.56165e-05
-2.95543e-06
7.59681e-05
-2.61747e-06
7.62747e-05
-2.26276e-06
7.65362e-05
-1.89046e-06
7.67531e-05
-1.49971e-06
7.69263e-05
-1.08965e-06
7.70578e-05
-6.59448e-07
7.71505e-05
-2.08393e-07
7.72084e-05
2.63716e-07
7.72372e-05
7.56397e-07
7.72447e-05
1.26897e-06
7.72402e-05
1.79994e-06
7.72356e-05
2.34668e-06
7.72442e-05
2.90508e-06
7.72805e-05
3.46918e-06
7.73591e-05
4.03099e-06
7.7492e-05
4.58041e-06
7.76865e-05
5.10567e-06
5.59479e-06
7.79411e-05
2.01234e-05
-1.02038e-06
2.03935e-05
-2.02093e-06
2.07885e-05
-2.90916e-06
2.12968e-05
-3.70855e-06
2.19075e-05
-4.42716e-06
2.26096e-05
-5.06972e-06
2.33925e-05
-5.63993e-06
2.42463e-05
-6.14138e-06
2.51615e-05
-6.57797e-06
2.61293e-05
-6.95422e-06
2.71418e-05
-7.2752e-06
2.81915e-05
-7.54645e-06
2.92723e-05
-7.77375e-06
3.03786e-05
-7.96289e-06
3.15056e-05
-8.11945e-06
3.26495e-05
-8.24865e-06
3.38068e-05
-8.35522e-06
3.4975e-05
-8.4433e-06
3.61519e-05
-8.51643e-06
3.73358e-05
-8.5775e-06
3.85252e-05
-8.62885e-06
3.97189e-05
-8.67223e-06
4.0916e-05
-8.70895e-06
4.21157e-05
-8.73988e-06
4.33171e-05
-8.76553e-06
4.45195e-05
-8.78616e-06
4.57222e-05
-8.80179e-06
4.69244e-05
-8.81225e-06
4.81254e-05
-8.81729e-06
4.93242e-05
-8.81654e-06
5.052e-05
-8.80961e-06
5.17118e-05
-8.79606e-06
5.28985e-05
-8.77545e-06
5.40791e-05
-8.74734e-06
5.52524e-05
-8.71133e-06
5.64173e-05
-8.66701e-06
5.75724e-05
-8.61402e-06
5.87165e-05
-8.55202e-06
5.98483e-05
-8.4807e-06
6.09662e-05
-8.39977e-06
6.20691e-05
-8.30898e-06
6.31554e-05
-8.20807e-06
6.42236e-05
-8.09683e-06
6.52724e-05
-7.97505e-06
6.63002e-05
-7.84253e-06
6.73055e-05
-7.69909e-06
6.82868e-05
-7.54453e-06
6.92427e-05
-7.37868e-06
7.01716e-05
-7.20134e-06
7.10719e-05
-7.01232e-06
7.19424e-05
-6.81143e-06
7.27813e-05
-6.59844e-06
7.35874e-05
-6.37313e-06
7.43592e-05
-6.13526e-06
7.50953e-05
-5.88457e-06
7.57943e-05
-5.62077e-06
7.6455e-05
-5.34356e-06
7.70762e-05
-5.05262e-06
7.76569e-05
-4.7476e-06
7.81959e-05
-4.42812e-06
7.86926e-05
-4.0938e-06
7.91462e-05
-3.74423e-06
7.95565e-05
-3.37899e-06
7.99233e-05
-2.99766e-06
8.02469e-05
-2.59984e-06
8.0528e-05
-2.18516e-06
8.07681e-05
-1.75334e-06
8.0969e-05
-1.30418e-06
8.11337e-05
-8.37688e-07
8.12659e-05
-3.54096e-07
8.13703e-05
1.45923e-07
8.14527e-05
6.60642e-07
8.15204e-05
1.18801e-06
8.1582e-05
1.72535e-06
8.16466e-05
2.26914e-06
8.17242e-05
2.8148e-06
8.18242e-05
3.35665e-06
8.1955e-05
3.88796e-06
8.21221e-05
4.40121e-06
8.23275e-05
4.88861e-06
5.34342e-06
8.25674e-05
2.1528e-05
-1.1559e-06
2.18101e-05
-2.30285e-06
2.22242e-05
-3.32295e-06
2.27584e-05
-4.24229e-06
2.34011e-05
-5.06932e-06
2.41409e-05
-5.8088e-06
2.49664e-05
-6.46476e-06
2.58671e-05
-7.04127e-06
2.68328e-05
-7.54282e-06
2.78541e-05
-7.97463e-06
2.89224e-05
-8.3426e-06
3.00299e-05
-8.65313e-06
3.11699e-05
-8.91292e-06
3.23364e-05
-9.12866e-06
3.35244e-05
-9.30681e-06
3.47297e-05
-9.45341e-06
3.59488e-05
-9.5739e-06
3.71789e-05
-9.67309e-06
3.84176e-05
-9.75503e-06
3.96631e-05
-9.82308e-06
4.09138e-05
-9.87992e-06
4.21687e-05
-9.92759e-06
4.34265e-05
-9.96757e-06
4.46864e-05
-1.00009e-05
4.59476e-05
-1.00281e-05
4.72094e-05
-1.00495e-05
4.84708e-05
-1.00652e-05
4.97311e-05
-1.00749e-05
5.09895e-05
-1.00783e-05
5.22451e-05
-1.00751e-05
5.34968e-05
-1.00647e-05
5.47437e-05
-1.00467e-05
5.59846e-05
-1.00205e-05
5.72184e-05
-9.98571e-06
5.84439e-05
-9.94177e-06
5.96598e-05
-9.88825e-06
6.08647e-05
-9.82473e-06
6.20573e-05
-9.75083e-06
6.32362e-05
-9.6662e-06
6.43999e-05
-9.5705e-06
6.55469e-05
-9.46346e-06
6.66758e-05
-9.34481e-06
6.7785e-05
-9.2143e-06
6.8873e-05
-9.07172e-06
6.99382e-05
-8.91685e-06
7.09792e-05
-8.7495e-06
7.19943e-05
-8.5695e-06
7.2982e-05
-8.37666e-06
7.39409e-05
-8.1708e-06
7.48693e-05
-7.95176e-06
7.5766e-05
-7.71936e-06
7.66293e-05
-7.47343e-06
7.74579e-05
-7.21377e-06
7.82506e-05
-6.9402e-06
7.9006e-05
-6.65253e-06
7.97229e-05
-6.35057e-06
8.04003e-05
-6.0341e-06
8.10373e-05
-5.70292e-06
8.1633e-05
-5.35684e-06
8.21867e-05
-4.99565e-06
8.26981e-05
-4.61919e-06
8.31671e-05
-4.22729e-06
8.35937e-05
-3.81983e-06
8.39785e-05
-3.39677e-06
8.43223e-05
-2.95811e-06
8.46266e-05
-2.504e-06
8.48935e-05
-2.03472e-06
8.51255e-05
-1.55074e-06
8.53261e-05
-1.05281e-06
8.54995e-05
-5.41972e-07
8.56503e-05
-1.92981e-08
8.57838e-05
5.1288e-07
8.59064e-05
1.0512e-06
8.60251e-05
1.59265e-06
8.61468e-05
2.13359e-06
8.62782e-05
2.66972e-06
8.64252e-05
3.19619e-06
8.65921e-05
3.70779e-06
8.67812e-05
4.19917e-06
8.69918e-05
4.66533e-06
5.10266e-06
8.72201e-05
2.30309e-05
-1.29696e-06
2.33254e-05
-2.59718e-06
2.37592e-05
-3.75635e-06
2.43198e-05
-4.80241e-06
2.49952e-05
-5.74418e-06
2.57734e-05
-6.58629e-06
2.66425e-05
-7.33303e-06
2.7591e-05
-7.9889e-06
2.86081e-05
-8.55903e-06
2.96837e-05
-9.04938e-06
3.08088e-05
-9.4667e-06
3.19749e-05
-9.81836e-06
3.31749e-05
-1.0112e-05
3.44025e-05
-1.03554e-05
3.56522e-05
-1.05558e-05
3.69196e-05
-1.07202e-05
3.8201e-05
-1.08548e-05
3.94933e-05
-1.09651e-05
4.07942e-05
-1.10557e-05
4.21015e-05
-1.11305e-05
4.34139e-05
-1.11925e-05
4.47299e-05
-1.12441e-05
4.60484e-05
-1.12869e-05
4.73685e-05
-1.13221e-05
4.86894e-05
-1.13504e-05
5.00102e-05
-1.13721e-05
5.133e-05
-1.13871e-05
5.26481e-05
-1.13954e-05
5.39634e-05
-1.13965e-05
5.52751e-05
-1.139e-05
5.65822e-05
-1.13753e-05
5.78834e-05
-1.13519e-05
5.91777e-05
-1.13192e-05
6.04638e-05
-1.12767e-05
6.17405e-05
-1.12237e-05
6.30063e-05
-1.11598e-05
6.42599e-05
-1.10845e-05
6.54998e-05
-1.09973e-05
6.67245e-05
-1.0898e-05
6.79326e-05
-1.0786e-05
6.91224e-05
-1.06612e-05
7.02924e-05
-1.05232e-05
7.1441e-05
-1.03717e-05
7.25666e-05
-1.02066e-05
7.36677e-05
-1.00276e-05
7.47427e-05
-9.83458e-06
7.579e-05
-9.6273e-06
7.6808e-05
-9.40564e-06
7.77953e-05
-9.16945e-06
7.87504e-05
-8.91859e-06
7.96719e-05
-8.65293e-06
8.05584e-05
-8.37237e-06
8.14086e-05
-8.07678e-06
8.22213e-05
-7.76606e-06
8.29954e-05
-7.44013e-06
8.373e-05
-7.09889e-06
8.44242e-05
-6.74229e-06
8.50773e-05
-6.37029e-06
8.56888e-05
-5.98287e-06
8.62584e-05
-5.58006e-06
8.67863e-05
-5.16194e-06
8.72725e-05
-4.72865e-06
8.77179e-05
-4.2804e-06
8.81233e-05
-3.81753e-06
8.84902e-05
-3.34047e-06
8.88205e-05
-2.84984e-06
8.91167e-05
-2.34643e-06
8.93816e-05
-1.83126e-06
8.96189e-05
-1.30563e-06
8.98325e-05
-7.71105e-07
9.00273e-05
-2.29535e-07
9.0208e-05
3.16838e-07
9.03795e-05
8.64521e-07
9.05468e-05
1.41024e-06
9.0715e-05
1.9505e-06
9.08884e-05
2.48161e-06
9.10704e-05
2.99969e-06
9.12631e-05
3.50085e-06
9.14669e-05
3.9814e-06
9.16803e-05
4.43816e-06
4.86936e-06
9.19002e-05
2.46388e-05
-1.4439e-06
2.49462e-05
-2.90433e-06
2.54001e-05
-4.20985e-06
2.59877e-05
-5.38948e-06
2.66965e-05
-6.45234e-06
2.75138e-05
-7.40284e-06
2.8427e-05
-8.24538e-06
2.94239e-05
-8.98492e-06
3.04931e-05
-9.62722e-06
3.16237e-05
-1.0179e-05
3.28061e-05
-1.0648e-05
3.40313e-05
-1.10426e-05
3.52917e-05
-1.13714e-05
3.65805e-05
-1.16433e-05
3.78921e-05
-1.18665e-05
3.92216e-05
-1.2049e-05
4.05652e-05
-1.21978e-05
4.19196e-05
-1.23192e-05
4.32823e-05
-1.24182e-05
4.46512e-05
-1.24995e-05
4.60246e-05
-1.25662e-05
4.74012e-05
-1.26212e-05
4.87797e-05
-1.26663e-05
5.01593e-05
-1.27029e-05
5.1539e-05
-1.27316e-05
5.29179e-05
-1.27528e-05
5.42952e-05
-1.27666e-05
5.56699e-05
-1.27727e-05
5.70411e-05
-1.27707e-05
5.84078e-05
-1.276e-05
5.97688e-05
-1.27402e-05
6.1123e-05
-1.27104e-05
6.24693e-05
-1.26701e-05
6.38062e-05
-1.26187e-05
6.51324e-05
-1.25555e-05
6.64465e-05
-1.24799e-05
6.7747e-05
-1.23915e-05
6.90324e-05
-1.22897e-05
7.03011e-05
-1.21742e-05
7.15516e-05
-1.20445e-05
7.27821e-05
-1.19002e-05
7.39913e-05
-1.17412e-05
7.51772e-05
-1.15671e-05
7.63385e-05
-1.13777e-05
7.74734e-05
-1.11729e-05
7.85804e-05
-1.09524e-05
7.96579e-05
-1.0716e-05
8.07044e-05
-1.04638e-05
8.17184e-05
-1.01955e-05
8.26985e-05
-9.9112e-06
8.36433e-05
-9.61071e-06
8.45517e-05
-9.29403e-06
8.54224e-05
-8.96116e-06
8.62544e-05
-8.6121e-06
8.70468e-05
-8.2469e-06
8.77988e-05
-7.86561e-06
8.85099e-05
-7.46836e-06
8.91796e-05
-7.05531e-06
8.98079e-05
-6.62665e-06
9.03947e-05
-6.18267e-06
9.09406e-05
-5.72373e-06
9.1446e-05
-5.25028e-06
9.19122e-05
-4.76288e-06
9.23405e-05
-4.26222e-06
9.27327e-05
-3.74915e-06
9.30909e-05
-3.22468e-06
9.34179e-05
-2.69004e-06
9.37166e-05
-2.14667e-06
9.39906e-05
-1.59626e-06
9.42436e-05
-1.04073e-06
9.44798e-05
-4.82236e-07
9.47028e-05
7.73358e-08
9.49163e-05
6.347e-07
9.51242e-05
1.18621e-06
9.53298e-05
1.72888e-06
9.55359e-05
2.2597e-06
9.57444e-05
2.77569e-06
9.59559e-05
3.27398e-06
9.61702e-05
3.75205e-06
9.63856e-05
4.20788e-06
4.64077e-06
9.65997e-05
2.63591e-05
-1.59707e-06
2.66797e-05
-3.22472e-06
2.71542e-05
-4.68392e-06
2.77692e-05
-6.00398e-06
2.85119e-05
-7.19428e-06
2.93687e-05
-8.25886e-06
3.03265e-05
-9.20219e-06
3.13722e-05
-1.00296e-05
3.24936e-05
-1.07476e-05
3.36794e-05
-1.13637e-05
3.4919e-05
-1.18865e-05
3.62032e-05
-1.23256e-05
3.75236e-05
-1.26908e-05
3.88733e-05
-1.29919e-05
4.02461e-05
-1.32385e-05
4.1637e-05
-1.34392e-05
4.30419e-05
-1.36021e-05
4.44575e-05
-1.37343e-05
4.58809e-05
-1.38415e-05
4.73101e-05
-1.39286e-05
4.87433e-05
-1.39997e-05
5.01791e-05
-1.40575e-05
5.16162e-05
-1.41043e-05
5.30537e-05
-1.41415e-05
5.44906e-05
-1.41699e-05
5.59259e-05
-1.419e-05
5.73588e-05
-1.42017e-05
5.87883e-05
-1.42048e-05
6.02133e-05
-1.41988e-05
6.16329e-05
-1.41831e-05
6.30458e-05
-1.41571e-05
6.44509e-05
-1.41199e-05
6.58468e-05
-1.4071e-05
6.72322e-05
-1.40095e-05
6.86056e-05
-1.39348e-05
6.99655e-05
-1.38463e-05
7.13104e-05
-1.37434e-05
7.26388e-05
-1.36255e-05
7.39489e-05
-1.34923e-05
7.52392e-05
-1.33432e-05
7.65079e-05
-1.3178e-05
7.77535e-05
-1.29963e-05
7.89743e-05
-1.27979e-05
8.01686e-05
-1.25826e-05
8.13348e-05
-1.23501e-05
8.24714e-05
-1.21004e-05
8.35768e-05
-1.18334e-05
8.46495e-05
-1.15489e-05
8.56881e-05
-1.12471e-05
8.66913e-05
-1.09278e-05
8.76578e-05
-1.05911e-05
8.85866e-05
-1.0237e-05
8.94767e-05
-9.8658e-06
9.03271e-05
-9.47751e-06
9.11372e-05
-9.07236e-06
9.19065e-05
-8.65059e-06
9.26346e-05
-8.21253e-06
9.33216e-05
-7.75854e-06
9.39674e-05
-7.28908e-06
9.45726e-05
-6.8047e-06
9.51379e-05
-6.30603e-06
9.56642e-05
-5.79383e-06
9.61529e-05
-5.26899e-06
9.66056e-05
-4.73252e-06
9.70244e-05
-4.18561e-06
9.74116e-05
-3.62961e-06
9.77698e-05
-3.06603e-06
9.81019e-05
-2.4966e-06
9.84111e-05
-1.92322e-06
9.87006e-05
-1.34798e-06
9.89737e-05
-7.73076e-07
9.9234e-05
-2.00536e-07
9.94839e-05
3.67246e-07
9.97261e-05
9.26746e-07
9.99625e-05
1.47529e-06
0.000100195
2.01037e-06
0.000100424
2.5297e-06
0.00010065
3.03119e-06
0.000100873
3.51309e-06
0.000101091
3.97412e-06
4.4142e-06
0.000101302
2.81995e-05
-1.75674e-06
2.85338e-05
-3.55873e-06
2.90292e-05
-5.17891e-06
2.96721e-05
-6.64627e-06
3.04488e-05
-7.97023e-06
3.13453e-05
-9.15449e-06
3.23476e-05
-1.02035e-05
3.34419e-05
-1.11229e-05
3.46153e-05
-1.19198e-05
3.58557e-05
-1.26028e-05
3.71519e-05
-1.31815e-05
3.8494e-05
-1.36666e-05
3.98735e-05
-1.40691e-05
4.12827e-05
-1.44e-05
4.27153e-05
-1.46701e-05
4.4166e-05
-1.4889e-05
4.56305e-05
-1.50659e-05
4.71052e-05
-1.52084e-05
4.85873e-05
-1.53233e-05
5.00746e-05
-1.54159e-05
5.15653e-05
-1.54905e-05
5.30578e-05
-1.55506e-05
5.4551e-05
-1.55983e-05
5.60438e-05
-1.56355e-05
5.75351e-05
-1.56628e-05
5.90241e-05
-1.56809e-05
6.05098e-05
-1.56897e-05
6.19911e-05
-1.56889e-05
6.34671e-05
-1.5678e-05
6.49365e-05
-1.56563e-05
6.63983e-05
-1.5623e-05
6.7851e-05
-1.55774e-05
6.92934e-05
-1.55186e-05
7.0724e-05
-1.54458e-05
7.21413e-05
-1.53584e-05
7.35437e-05
-1.52555e-05
7.49297e-05
-1.51367e-05
7.62976e-05
-1.50013e-05
7.76457e-05
-1.48488e-05
7.89724e-05
-1.46789e-05
8.0276e-05
-1.44911e-05
8.15547e-05
-1.42851e-05
8.2807e-05
-1.40608e-05
8.40312e-05
-1.38179e-05
8.52256e-05
-1.35562e-05
8.63888e-05
-1.32758e-05
8.75192e-05
-1.29766e-05
8.86155e-05
-1.26585e-05
8.96763e-05
-1.23216e-05
9.07004e-05
-1.19661e-05
9.16868e-05
-1.15921e-05
9.26344e-05
-1.11998e-05
9.35424e-05
-1.07894e-05
9.44103e-05
-1.03613e-05
9.52375e-05
-9.91591e-06
9.60237e-05
-9.45358e-06
9.6769e-05
-8.97488e-06
9.74735e-05
-8.48041e-06
9.81376e-05
-7.97087e-06
9.8762e-05
-7.44708e-06
9.93477e-05
-6.90995e-06
9.9896e-05
-6.36049e-06
0.000100408
-5.79989e-06
0.000100886
-5.22943e-06
0.000101333
-4.65056e-06
0.000101749
-4.06484e-06
0.000102138
-3.47402e-06
0.000102502
-2.87996e-06
0.000102845
-2.28464e-06
0.000103168
-1.69019e-06
0.000103475
-1.09878e-06
0.000103768
-5.1253e-07
0.000104049
6.71146e-08
0.00010432
6.37319e-07
0.000104582
1.19502e-06
0.000104836
1.73828e-06
0.000105082
2.26537e-06
0.000105321
2.77477e-06
0.000105551
3.26521e-06
0.000105772
3.73588e-06
4.18706e-06
0.000105983
3.01683e-05
-1.92318e-06
3.05166e-05
-3.9067e-06
3.10332e-05
-5.69507e-06
3.17041e-05
-7.31646e-06
3.25149e-05
-8.78018e-06
3.34508e-05
-1.00895e-05
3.44971e-05
-1.12487e-05
3.56393e-05
-1.22639e-05
3.68636e-05
-1.31429e-05
3.81572e-05
-1.38951e-05
3.95084e-05
-1.45314e-05
4.09067e-05
-1.50636e-05
4.23431e-05
-1.55041e-05
4.38095e-05
-1.58652e-05
4.52993e-05
-1.61588e-05
4.6807e-05
-1.63958e-05
4.8328e-05
-1.65861e-05
4.98588e-05
-1.67386e-05
5.13963e-05
-1.68604e-05
5.29383e-05
-1.69577e-05
5.44828e-05
-1.70353e-05
5.60285e-05
-1.70967e-05
5.7574e-05
-1.71446e-05
5.91182e-05
-1.71808e-05
6.06601e-05
-1.72063e-05
6.21988e-05
-1.72216e-05
6.37332e-05
-1.72266e-05
6.52623e-05
-1.72209e-05
6.67851e-05
-1.72041e-05
6.83002e-05
-1.71753e-05
6.98065e-05
-1.71337e-05
7.13027e-05
-1.70784e-05
7.27872e-05
-1.70086e-05
7.42587e-05
-1.69233e-05
7.57155e-05
-1.68217e-05
7.7156e-05
-1.67032e-05
7.85787e-05
-1.65671e-05
7.99818e-05
-1.64127e-05
8.13635e-05
-1.62395e-05
8.27224e-05
-1.60472e-05
8.40565e-05
-1.58353e-05
8.53642e-05
-1.56035e-05
8.66439e-05
-1.53518e-05
8.7894e-05
-1.50798e-05
8.91129e-05
-1.47875e-05
9.02991e-05
-1.4475e-05
9.14512e-05
-1.41422e-05
9.25679e-05
-1.37893e-05
9.36481e-05
-1.34164e-05
9.46906e-05
-1.30237e-05
9.56945e-05
-1.26116e-05
9.6659e-05
-1.21804e-05
9.75835e-05
-1.17305e-05
9.84676e-05
-1.12624e-05
9.9311e-05
-1.07767e-05
0.000100114