0.001             	 6.0536167040e-03 -6.1470739648e-05 1.3890085766e-21 	 5.9117630729e-03 -6.1456035079e-05 1.9037827904e-21 	 1.4185363114e-04 -1.4704568943e-08 -5.1477421384e-22 
0.002             	 2.3028151126e-02 -3.0333045117e-04 8.9434667902e-22 	 2.2426163886e-02 -3.0363199480e-04 1.1064706615e-21 	 6.0198724078e-04 3.0154363512e-07 -2.1212398244e-22 
0.003             	 3.4288534003e-02 -3.4455698220e-02 3.8040552704e-21 	 3.3185649931e-02 -3.4415446412e-02 4.6779547768e-21 	 1.1028840716e-03 -4.0251807927e-05 -8.7389950641e-22 
0.004             	 4.9021390251e-02 6.3395234324e-02 7.4615870103e-21 	 4.7013242478e-02 6.3357739255e-02 8.8984886927e-21 	 2.0081477731e-03 3.7495068617e-05 -1.4369016824e-21 
0.005             	 6.3911146010e-02 -8.6787489791e-02 1.0030720658e-20 	 6.0572829921e-02 -8.6730055978e-02 1.5435144135e-20 	 3.3383160891e-03 -5.7433813018e-05 -5.4044234766e-21 
0.006             	 7.9213982151e-02 1.0083773889e-01 1.6043843825e-20 	 7.4067543720e-02 1.0078165861e-01 2.1873661880e-20 	 5.1464384310e-03 5.6080284343e-05 -5.8298180555e-21 
0.007             	 9.5674434873e-02 -1.0643358018e-01 1.9085221141e-20 	 8.8254831834e-02 -1.0638077006e-01 2.9499682845e-20 	 7.4196030385e-03 -5.2810120329e-05 -1.0414461704e-20 
0.008             	 1.1006097226e-01 1.0278711461e-01 2.9332003479e-20 	 1.0011685245e-01 1.0274066762e-01 3.4865184914e-20 	 9.9441198147e-03 4.6446985041e-05 -5.5331814358e-21 
0.009             	 1.2585807107e-01 -9.3743407492e-02 3.3106641075e-20 	 1.1330509988e-01 -9.3706284436e-02 4.0768676887e-20 	 1.2552971192e-02 -3.7123055692e-05 -7.6620358114e-21 
0.011             	 1.5234212159e-01 -6.9892230179e-02 4.4638190604e-20 	 1.3570629287e-01 -6.9865845499e-02 4.5811008994e-20 	 1.6635828726e-02 -2.6384679817e-05 -1.1728183901e-21 
0.012             	 1.6355565638e-01 5.2990359578e-02 3.6383022400e-20 	 1.4580121416e-01 5.2985168463e-02 4.5912810950e-20 	 1.7754442217e-02 5.1911148759e-06 -9.5297885504e-21 
0.013             	 1.7595658009e-01 -3.4037497552e-02 4.3027837132e-20 	 1.5757611926e-01 -3.4027422232e-02 4.8544365617e-20 	 1.8380460828e-02 -1.0075319982e-05 -5.5165284851e-21 
0.014             	 1.8664393533e-01 1.3874524889e-02 4.7386495122e-20 	 1.6797074605e-01 1.3880247544e-02 4.9329167216e-20 	 1.8673189279e-02 -5.7226546757e-06 -1.9426720937e-21 
0.015             	 2.0019118941e-01 2.8494044986e-03 4.6535505318e-20 	 1.8118400020e-01 2.8399922312e-03 5.3995126890e-20 	 1.9007189216e-02 9.4122673535e-06 -7.4596215729e-21 
0.016             	 2.1307667534e-01 -1.7784649945e-02 4.6662801026e-20 	 1.9340944280e-01 -1.7773009626e-02 5.7262066437e-20 	 1.9667232544e-02 -1.1640318395e-05 -1.0599265411e-20 
0.017             	 2.2982006731e-01 2.5638771411e-02 6.7382355316e-20 	 2.0883165062e-01 2.5623959022e-02 6.4528142352e-20 	 2.0988416693e-02 1.4812389521e-05 2.8542129634e-21 
0.018             	 2.4588916005e-01 -3.1169937370e-02 6.5623599247e-20 	 2.2284682495e-01 -3.1161084356e-02 6.9236557065e-20 	 2.3042335093e-02 -8.8530131883e-06 -3.6129578176e-21 
0.019             	 2.6399334516e-01 2.8250878603e-02 6.5720324988e-20 	 2.3811320720e-01 2.8238955033e-02 7.6689440061e-20 	 2.5880137956e-02 1.1923569689e-05 -1.0969115073e-20 
0.021             	 2.9888953650e-01 1.2235514194e-02 6.4706330623e-20 	 2.6562373803e-01 1.2232508322e-02 8.5978698721e-20 	 3.3265798472e-02 3.0058711753e-06 -2.1272368097e-20 
0.022             	 3.1516100183e-01 -3.3723966381e-04 9.2839942244e-20 	 2.7782326686e-01 -3.4987632175e-04 8.7564206083e-20 	 3.7337734966e-02 1.2636657949e-05 5.2757361613e-21 
0.023             	 3.3186310140e-01 -1.5280403055e-02 8.3462128307e-20 	 2.9055945783e-01 -1.5274421731e-02 9.0905119459e-20 	 4.1303643572e-02 -5.9813241450e-06 -7.4429911516e-21 
0.024             	 3.4709755151e-01 2.9540413413e-02 9.8320467708e-20 	 3.0218282048e-01 2.9513719505e-02 9.1317511386e-20 	 4.4914731027e-02 2.6693908341e-05 7.0029563217e-21 
0.025             	 3.6300647381e-01 -4.7880505004e-02 8.3129504016e-20 	 3.1486657328e-01 -4.7857234492e-02 9.5204718904e-20 	 4.8139900531e-02 -2.3270511800e-05 -1.2075214888e-20 
0.026             	 3.7831843167e-01 6.9541118751e-02 7.8619642938e-20 	 3.2727135950e-01 6.9490272998e-02 9.6574116484e-20 	 5.1047072165e-02 5.0845752903e-05 -1.7954473546e-20 
0.027             	 3.9299258638e-01 -1.0479171527e-01 8.5626694719e-20 	 3.3930228560e-01 -1.0474125999e-01 1.0103550299e-19 	 5.3690300775e-02 -5.0455285525e-05 -1.5408808275e-20 
0.028             	 4.0827134244e-01 1.3124243315e-01 9.5676458211e-20 	 3.5202263046e-01 1.3115593593e-01 1.0391064931e-19 	 5.6248711972e-02 8.6497216521e-05 -8.2341911010e-21 
0.029             	 4.2459032833e-01 -1.4067571344e-01 1.1710726348e-19 	 3.6574257026e-01 -1.4063872976e-01 1.1098616821e-19 	 5.8847758064e-02 -3.6983680206e-05 6.1210952713e-21 
0.031             	 4.5916078559e-01 -2.4883660529e-02 1.2763727911e-19 	 3.9435818851e-01 -2.4950375925e-02 1.2370861164e-19 	 6.4802597083e-02 6.6715396657e-05 3.9286674716e-21 
0.032             	 4.7705706960e-01 -6.2637061922e-02 1.0661322321e-19 	 4.0890232292e-01 -6.2574055453e-02 1.2774392151e-19 	 6.8154746675e-02 -6.3006469092e-05 -2.1130698303e-20 
0.033             	 4.9287350862e-01 1.1958762114e-01 1.2137549291e-19 	 4.2124128551e-01 1.1946695063e-01 1.3330567607e-19 	 7.1632223114e-02 1.2067051247e-04 -1.1930183164e-20 
0.034             	 5.1011984944e-01 -1.8292257973e-01 9.1949249516e-20 	 4.3493440981e-01 -1.8280522732e-01 1.3694370207e-19 	 7.5185439625e-02 -1.1735240921e-04 -4.4994452556e-20 
0.035             	 5.2657298726e-01 2.7061728846e-01 1.2824557122e-19 	 4.4777479550e-01 2.7039548250e-01 1.3946880797e-19 	 7.8798191768e-02 2.2180595652e-04 -1.1223236742e-20 
0.036             	 5.4066979076e-01 -3.6788342453e-01 1.6024752478e-19 	 4.5863957960e-01 -3.6767048115e-01 1.3917666027e-19 	 8.2030211164e-02 -2.1294337359e-04 2.1070864503e-20 
0.037             	 5.5670560903e-01 4.3789689510e-01 1.4028258613e-19 	 4.7166271711e-01 4.3762136285e-01 1.4172567661e-19 	 8.5042891922e-02 2.7553225200e-04 -1.4430904808e-21 
0.038             	 5.7343114062e-01 -4.6697241341e-01 1.4969310082e-19 	 4.8545732485e-01 -4.6676806728e-01 1.4418990614e-19 	 8.7973815762e-02 -2.0434612918e-04 5.5031946765e-21 
0.039             	 5.9079148223e-01 4.5052582104e-01 1.3337556656e-19 	 4.9967863894e-01 4.5030711176e-01 1.4929870413e-19 	 9.1112843289e-02 2.1870928008e-04 -1.5923137568e-20 
0.041             	 6.2415933527e-01 4.2606378539e-01 1.2622713385e-19 	 5.2598854178e-01 4.2584636297e-01 1.5913541784e-19 	 9.8170793495e-02 2.1742242326e-04 -3.2908283984e-20 
0.042             	 6.4678751914e-01 -4.8017688800e-01 1.7003901843e-19 	 5.4409042641e-01 -4.7998492130e-01 1.6358081084e-19 	 1.0269709273e-01 -1.9196669773e-04 6.4582075831e-21 
0.043             	 6.6347672438e-01 5.2356628549e-01 1.4588706889e-19 	 5.5595592667e-01 5.2327702303e-01 1.7078855534e-19 	 1.0752079772e-01 2.8926245870e-04 -2.4901486454e-20 
0.044             	 6.8498805693e-01 -5.2547345236e-01 1.9009782373e-19 	 5.7237835557e-01 -5.2526983175e-01 1.7482562033e-19 	 1.1260970136e-01 -2.0362061755e-04 1.5272203402e-20 
0.045             	 7.0317639544e-01 5.1377636438e-01 1.6269346793e-19 	 5.8546951310e-01 5.1349574043e-01 1.8005141498e-19 	 1.1770688234e-01 2.8062395707e-04 -1.7357947043e-20 
0.046             	 7.2057080373e-01 -4.9737707014e-01 1.7769831254e-19 	 5.9796170390e-01 -4.9718191625e-01 1.8179230556e-19 	 1.2260909984e-01 -1.9515389810e-04 -4.0939930219e-21 
0.047             	 7.3869030213e-01 4.5101730515e-01 2.0353660676e-19 	 6.1140526361e-01 4.5078690606e-01 1.8585652509e-19 	 1.2728503852e-01 2.3039908870e-04 1.7680081666e-20 
0.048             	 7.5389236129e-01 -4.2456418307e-01 1.6437818135e-19 	 6.2246169667e-01 -4.2441607778e-01 1.8615336205e-19 	 1.3143066461e-01 -1.4810528801e-04 -2.1775180696e-20 
0.049             	 7.7154118678e-01 4.1657046353e-01 1.3274826076e-19 	 6.3632165410e-01 4.1635653701e-01 1.9021528418e-19 	 1.3521953268e-01 2.1392652213e-04 -5.7467023418e-20 
0.051             	 8.0530934336e-01 3.2812481076e-01 1.5488072824e-19 	 6.6328275369e-01 3.2798303572e-01 1.9777020743e-19 	 1.4202658967e-01 1.4177504219e-04 -4.2889479192e-20 
0.052             	 8.2230078722e-01 -2.8213583483e-01 1.6541545122e-19 	 6.7678414774e-01 -2.8210438086e-01 2.0027747488e-19 	 1.4551663949e-01 -3.1453969442e-05 -3.4862023655e-20 
0.053             	 8.4059875448e-01 2.3465270118e-01 1.7143015454e-19 	 6.9132889426e-01 2.3451822746e-01 2.0806110207e-19 	 1.4926986022e-01 1.3447371927e-04 -3.6630947534e-20 
0.054             	 8.5870563711e-01 -2.0279824099e-01 1.6880329478e-19 	 7.0527337279e-01 -2.0279832255e-01 2.1111634041e-19 	 1.5343226432e-01 8.1564661520e-08 -4.2313045638e-20 
0.055             	 8.7919945422e-01 2.0159122154e-01 2.3243115052e-19 	 7.2114645672e-01 2.0141779843e-01 2.1913418743e-19 	 1.5805299751e-01 1.7342311079e-04 1.3296963090e-20 
0.056             	 8.9783016947e-01 -2.7498889376e-01 1.7523334201e-19 	 7.3484138455e-01 -2.7489213201e-01 2.2172324392e-19 	 1.6298878492e-01 -9.6761743861e-05 -4.6489901913e-20 
0.057             	 9.1817470603e-01 4.0001917253e-01 2.2621465481e-19 	 7.5001460330e-01 3.9968625681e-01 2.2873040959e-19 	 1.6816010274e-01 3.3291572123e-04 -2.5157547734e-21 
0.058             	 9.3666977716e-01 -5.3628541515e-01 2.0192836527e-19 	 7.6333664947e-01 -5.3604141924e-01 2.2857814347e-19 	 1.7333312769e-01 -2.4399591454e-04 -2.6649778204e-20 
0.059             	 9.5471177858e-01 6.4850613372e-01 2.3395661729e-19 	 7.7631194891e-01 6.4808950057e-01 2.3371807277e-19 	 1.7839982967e-01 4.1663315035e-04 2.3854451746e-22 
0.061             	 9.9082400087e-01 7.9561061573e-01 1.9918274469e-19 	 8.0276976697e-01 7.9514610598e-01 2.3884309436e-19 	 1.8805423389e-01 4.6450974445e-04 -3.9660349675e-20 
0.062             	 1.0097498074e+00 -8.0181334480e-01 2.4109575844e-19 	 8.1703067909e-01 -8.0152617400e-01 2.3890225731e-19 	 1.9271912827e-01 -2.8717080475e-04 2.1935011310e-21 
0.063             	 1.0278134837e+00 7.4107804624e-01 2.5101205456e-19 	 8.3047465437e-01 7.4068088112e-01 2.4574475026e-19 	 1.9733882935e-01 3.9716512403e-04 5.2673042948e-21 
0.064             	 1.0473437680e+00 -6.2094429047e-01 2.1565247859e-19 	 8.4528071558e-01 -6.2080746424e-01 2.4775987750e-19 	 2.0206305243e-01 -1.3682622966e-04 -3.2107398905e-20 
0.065             	 1.0675971211e+00 4.4980490900e-01 2.3141405701e-19 	 8.6053179986e-01 4.4958245866e-01 2.5653509471e-19 	 2.0706532119e-01 2.2245034192e-04 -2.5121037701e-20 
0.066             	 1.0867529268e+00 -2.7268062485e-01 2.3668875461e-19 	 8.7443690306e-01 -2.7273301835e-01 2.5875735692e-19 	 2.1231602374e-01 5.2393499825e-05 -2.2068602304e-20 
0.067             	 1.1071932400e+00 9.7800457555e-02 1.5179011556e-19 	 8.8947471235e-01 9.7740514559e-02 2.6684265613e-19 	 2.1771852767e-01 5.9942996764e-05 -1.1505254057e-19 
0.068             	 1.1267088607e+00 6.1379715503e-02 1.8063387786e-19 	 9.0347160870e-01 6.1160103345e-02 2.6939887788e-19 	 2.2323725198e-01 2.1961215802e-04 -8.8765000017e-20 
0.069             	 1.1476203156e+00 -2.2217623714e-01 2.0756742674e-19 	 9.1877463135e-01 -2.2208075828e-01 2.7548022510e-19 	 2.2884568424e-01 -9.5478856947e-05 -6.7912798363e-20 
0.071             	 1.1850899672e+00 -4.9601591980e-01 3.0812752831e-19 	 9.4576951734e-01 -4.9580931519e-01 2.8105749688e-19 	 2.3932044987e-01 -2.0660461058e-04 2.7070031432e-20 
0.072             	 1.2012912158e+00 5.7051794970e-01 1.3895366511e-19 	 9.5711887906e-01 5.7012217488e-01 2.8159507410e-19 	 2.4417233675e-01 3.9577482239e-04 -1.4264140899e-19 
0.073             	 1.2213506783e+00 -5.6794195324e-01 3.1388367022e-19 	 9.7239043658e-01 -5.6777630812e-01 2.8615716306e-19 	 2.4896024169e-01 -1.6564511930e-04 2.7726507156e-20 
0.074             	 1.2385270321e+00 4.8145685973e-01 2.3134169466e-19 	 9.8490659893e-01 4.8117962852e-01 2.8861058895e-19 	 2.5362043320e-01 2.7723120861e-04 -5.7268894293e-20 
0.075             	 1.2600368003e+00 -3.4830046461e-01 2.5480303866e-19 	 1.0015267358e+00 -3.4831460921e-01 2.9471857800e-19 	 2.5851006455e-01 1.4144600804e-05 -3.9915539335e-20 
0.076             	 1.2780956082e+00 1.8018139843e-01 2.2642094478e-19 	 1.0145441188e+00 1.8007413560e-01 2.9737408722e-19 	 2.6355148932e-01 1.0726283183e-04 -7.0953142440e-20 
0.077             	 1.2991916087e+00 -2.0295979998e-02 2.7292095325e-19 	 1.0302583994e+00 -2.0474463500e-02 3.0477646167e-19 	 2.6893320923e-01 1.7848350165e-04 -3.1855508421e-20 
0.078             	 1.3206635033e+00 -1.5699933200e-01 1.7932050097e-19 	 1.0459718713e+00 -1.5695979450e-01 3.0810090674e-19 	 2.7469163203e-01 -3.9537500276e-05 -1.2878040577e-19 
0.079             	 1.3400943840e+00 3.1944574101e-01 3.4874849450e-19 	 1.0594449960e+00 3.1912184595e-01 3.1425738211e-19 	 2.8064938803e-01 3.2389506198e-04 3.4491112388e-20 
0.081             	 1.3812806073e+00 5.3753429325e-01 1.7800124160e-19 	 1.0883533324e+00 5.3716550236e-01 3.2171445644e-19 	 2.9292727491e-01 3.6879089622e-04 -1.4371321484e-19 
0.082             	 1.4024664161e+00 -5.6728135192e-01 1.9208974971e-19 	 1.1034908429e+00 -5.6715189295e-01 3.2383452192e-19 	 2.9897557324e-01 -1.2945896594e-04 -1.3174477221e-19 
0.083             	 1.4209910042e+00 5.3006531928e-01 2.8930031242e-19 	 1.1161296458e+00 5.2976324897e-01 3.2766880824e-19 	 3.0486135837e-01 3.0207031781e-04 -3.8368495821e-20 
0.084             	 1.4415821236e+00 -4.5120918569e-01 2.9028483189e-19 	 1.1309986018e+00 -4.5117146406e-01 3.3003322974e-19 	 3.1058352187e-01 -3.7721633528e-05 -3.9748397850e-20 
0.085             	 1.4605215466e+00 3.1636633071e-01 2.9210111381e-19 	 1.1443695289e+00 3.1619980601e-01 3.3419418159e-19 	 3.1615201773e-01 1.6652470138e-04 -4.2093067785e-20 
0.086             	 1.4809339324e+00 -1.5608808775e-01 3.4527994366e-19 	 1.1592309455e+00 -1.5620705198e-01 3.3766741428e-19 	 3.2170298688e-01 1.1896422800e-04 7.6125293844e-21 
0.087             	 1.5007997812e+00 -3.9793550559e-02 3.6482404658e-19 	 1.1734984988e+00 -3.9793685982e-02 3.4253294099e-19 	 3.2730128238e-01 1.3542336208e-07 2.2291105595e-20 
0.088             	 1.5213667697e+00 2.2892843252e-01 2.0172668124e-19 	 1.1883875817e+00 2.2862949691e-01 3.4707752705e-19 	 3.3297918796e-01 2.9893561798e-04 -1.4535084581e-19 
0.089             	 1.5425966503e+00 -4.1460281056e-01 2.7688479066e-19 	 1.2037501631e+00 -4.1447768055e-01 3.5250645193e-19 	 3.3884648721e-01 -1.2513000925e-04 -7.5621661271e-20 
0.091             	 1.5844065799e+00 -6.8476718517e-01 2.3352895561e-19 	 1.2334222536e+00 -6.8457468344e-01 3.6150125472e-19 	 3.5098432625e-01 -1.9250172149e-04 -1.2797229911e-19 
0.092             	 1.6040887814e+00 7.9581642414e-01 3.4430784055e-19 	 1.2469405852e+00 7.9530688000e-01 3.6575780064e-19 	 3.5714819617e-01 5.0954414573e-04 -2.1449960097e-20 
0.093             	 1.6263729751e+00 -9.2491242791e-01 2.5317426776e-19 	 1.2629915250e+00 -9.2460936288e-01 3.6960548994e-19 	 3.6338145007e-01 -3.0306502844e-04 -1.1643122219e-19 
0.094             	 1.6444986157e+00 1.0029101239e+00 4.3003281343e-19 	 1.2750064100e+00 1.0023247257e+00 3.7216458761e-19 	 3.6949220562e-01 5.8539816601e-04 5.7868225823e-20 
0.095             	 1.6666327758e+00 -1.0282536290e+00 2.6167310817e-19 	 1.2910984482e+00 -1.0279508018e+00 3.7575811710e-19 	 3.7553432758e-01 -3.0282721464e-04 -1.1408500892e-19 
0.096             	 1.6851677914e+00 9.8254009797e-01 2.7349924843e-19 	 1.3036687582e+00 9.8200512446e-01 3.7832610938e-19 	 3.8149903321e-01 5.3497351258e-04 -1.0482686095e-19 
0.097             	 1.7072902410e+00 -8.9745016079e-01 2.7723084848e-19 	 1.3198250381e+00 -8.9724576415e-01 3.8302407522e-19 	 3.8746520287e-01 -2.0439664575e-04 -1.0579322675e-19 
0.098             	 1.7269293728e+00 7.4726121743e-01 2.4791581850e-19 	 1.3334272317e+00 7.4686972672e-01 3.8624697454e-19 	 3.9350214109e-01 3.9149070013e-04 -1.3833115605e-19 
0.099             	 1.7489644344e+00 -5.8271357092e-01 3.1687444384e-19 	 1.3492939490e+00 -5.8266721989e-01 3.9125676468e-19 	 3.9967048534e-01 -4.6351026790e-05 -7.4382320838e-20 
0.101             	 1.7925176522e+00 -2.2267811685e-01 3.9562128614e-19 	 1.3799296391e+00 -2.2278018883e-01 4.0114626517e-19 	 4.1258801305e-01 1.0207198050e-04 -5.5249790323e-21 
0.102             	 1.8125479195e+00 6.2819186927e-02 3.9550665308e-19 	 1.3932805865e+00 6.2707078257e-02 4.0477979503e-19 	 4.1926733297e-01 1.1210867022e-04 -9.2731419471e-21 
0.103             	 1.8357693930e+00 1.4319975185e-02 3.1320283827e-19 	 1.4096987686e+00 1.4175765531e-02 4.0976459764e-19 	 4.2607062437e-01 1.4420965399e-04 -9.6561759374e-20 
0.104             	 1.8554712365e+00 -3.8873049231e-02 3.4189318022e-19 	 1.4226750939e+00 -3.9003006321e-02 4.1264139102e-19 	 4.3279614261e-01 1.2995708966e-04 -7.0748210808e-20 
0.105             	 1.8783198698e+00 1.7890086476e-02 4.6704657412e-19 	 1.4387903714e+00 1.7791452191e-02 4.1763209598e-19 	 4.3952949838e-01 9.8634285145e-05 4.9414478143e-20 
0.106             	 1.8982645116e+00 2.7835986321e-03 2.4497516703e-19 	 1.4521265133e+00 2.6297413326e-03 4.2006034203e-19 	 4.4613799835e-01 1.5385729954e-04 -1.7508517500e-19 
0.107             	 1.9199143589e+00 -6.3958397494e-02 2.9347557009e-19 	 1.4672600282e+00 -6.4009837710e-02 4.2422234702e-19 	 4.5265433068e-01 5.1440215680e-05 -1.3074677693e-19 
0.108             	 1.9394158777e+00 1.3641209402e-01 4.4237388247e-19 	 1.4804006949e+00 1.3618942913e-01 4.2664363382e-19 	 4.5901518286e-01 2.2266489625e-04 1.5730248648e-20 
0.109             	 1.9618194152e+00 -2.4455390743e-01 3.6509830025e-19 	 1.4964157930e+00 -2.4453016240e-01 4.3155079484e-19 	 4.6540362215e-01 -2.3745029958e-05 -6.6452494591e-20 
0.111             	 2.0050263061e+00 -5.1956840027e-01 3.8455071750e-19 	 1.5267717730e+00 -5.1943029103e-01 4.4081864285e-19 	 4.7825453309e-01 -1.3810923823e-04 -5.6267925345e-20 
0.112             	 2.0255668888e+00 6.7102374443e-01 3.2895729859e-19 	 1.5407069443e+00 6.7054064758e-01 4.4444877940e-19 	 4.8485994456e-01 4.8309684347e-04 -1.1549148081e-19 
0.113             	 2.0485399270e+00 -8.2819337937e-01 4.2215742293e-19 	 1.5568728755e+00 -8.2794016304e-01 4.4972142852e-19 	 4.9166705145e-01 -2.5321632550e-04 -2.7564005592e-20 
0.114             	 2.0686837422e+00 9.0218810418e-01 4.0162426326e-19 	 1.5701229445e+00 9.0164037228e-01 4.5211886244e-19 	 4.9856079774e-01 5.4773189904e-04 -5.0494599178e-20 
0.115             	 2.0918127511e+00 -8.9208674776e-01 4.3451553860e-19 	 1.5862802782e+00 -8.9189807676e-01 4.5848904383e-19 	 5.0553247286e-01 -1.8867100448e-04 -2.3973505226e-20 
0.116             	 2.1142166747e+00 7.9257577769e-01 5.5752451541e-19 	 1.6016131733e+00 7.9214307570e-01 4.6100467753e-19 	 5.1260350138e-01 4.3270198277e-04 9.6519837880e-20 
0.117             	 2.1356896562e+00 -6.8107810541e-01 4.0379509020e-19 	 1.6160639376e+00 -6.8101377115e-01 4.6609284134e-19 	 5.1962571867e-01 -6.4334256516e-05 -6.2297751132e-20 
0.118             	 2.1573772999e+00 5.2366181140e-01 3.4936344457e-19 	 1.6307558327e+00 5.2336800552e-01 4.6822666764e-19 	 5.2662146716e-01 2.9380588364e-04 -1.1886322307e-19 
0.119             	 2.1790242713e+00 -3.5394751215e-01 5.0248648306e-19 	 1.6454216490e+00 -3.5402764370e-01 4.7300551343e-19 	 5.3360262234e-01 8.0131550675e-05 2.9480969625e-20 
0.121             	 2.2221088049e+00 2.7948028028e-02 4.3635245761e-19 	 1.6745750192e+00 2.7713343915e-02 4.7944552384e-19 	 5.4753378572e-01 2.3468411276e-04 -4.3093066232e-20 
0.122             	 2.2435648546e+00 -2.2213393058e-01 2.2370334969e-19 	 1.6891683807e+00 -2.2211734439e-01 4.8275933184e-19 	 5.5439647390e-01 -1.6586193651e-05 -2.5905598216e-19 
0.123             	 2.2677384207e+00 3.3204486555e-01 3.2416351197e-19 	 1.7063211327e+00 3.3171933019e-01 4.8973865389e-19 	 5.6141728797e-01 3.2553535345e-04 -1.6557514192e-19 
0.124             	 2.2897462890e+00 -4.0497514593e-01 4.9173482050e-19 	 1.7211399234e+00 -4.0495947665e-01 4.9273992770e-19 	 5.6860636565e-01 -1.5669276339e-05 -1.0051071984e-21 
0.125             	 2.3113947988e+00 4.4422988693e-01 3.9658388185e-19 	 1.7355160547e+00 4.4388353698e-01 4.9842159599e-19 	 5.7587874412e-01 3.4634995077e-04 -1.0183771414e-19 
0.126             	 2.3341699870e+00 -4.9400374866e-01 3.8988155863e-19 	 1.7509262959e+00 -4.9396132752e-01 5.0108357383e-19 	 5.8324369115e-01 -4.2421137230e-05 -1.1120201520e-19 
0.127             	 2.3559872390e+00 5.3151017704e-01 2.4043294476e-19 	 1.7653212311e+00 5.3112022120e-01 5.0639713954e-19 	 5.9066600791e-01 3.8995583472e-04 -2.6596419478e-19 
0.128             	 2.3788713292e+00 -6.0587553126e-01 5.2646959582e-19 	 1.7808133826e+00 -6.0575821252e-01 5.0897824456e-19 	 5.9805794654e-01 -1.1731873194e-04 1.7491351255e-20 
0.129             	 2.4014173602e+00 6.2394227037e-01 5.3069496682e-19 	 1.7960436464e+00 6.2349863313e-01 5.1420107383e-19 	 6.0537371382e-01 4.4363723975e-04 1.6493892993e-20 
0.131             	 2.4448135863e+00 5.3599022763e-01 3.1575845081e-19 	 1.8251099151e+00 5.3560047666e-01 5.2142879297e-19 	 6.1970367123e-01 3.8975096189e-04 -2.0567034216e-19 
0.132             	 2.4675546305e+00 -4.8283416634e-01 4.9768897813e-19 	 1.8406011001e+00 -4.8280436569e-01 5.2363387015e-19 	 6.2695353032e-01 -2.9800653040e-05 -2.5944892018e-20 
0.133             	 2.4888668721e+00 3.9279329994e-01 3.9748697192e-19 	 1.8546604510e+00 3.9247131428e-01 5.2830622596e-19 	 6.3420642115e-01 3.2198565400e-04 -1.3081925405e-19 
0.134             	 2.5120300083e+00 -3.5116709870e-01 3.6608598923e-19 	 1.8705560229e+00 -3.5117825174e-01 5.3281863450e-19 	 6.4147398539e-01 1.1153037073e-05 -1.6673264527e-19 
0.135             	 2.5362788684e+00 3.3260637456e-01 4.3820251776e-19 	 1.8872674625e+00 3.3225977860e-01 5.3797964516e-19 	 6.4901140583e-01 3.4659595892e-04 -9.9777127404e-20 
0.136             	 2.5579069199e+00 -3.4324882219e-01 5.5165329987e-19 	 1.9013821337e+00 -3.4325392766e-01 5.4120673897e-19 	 6.5652478620e-01 5.1054747074e-06 1.0446560895e-20 
0.137             	 2.5816605581e+00 3.0286000053e-01 3.1354766906e-19 	 1.9174915786e+00 3.0254071192e-01 5.4657698752e-19 	 6.6416897946e-01 3.1928860728e-04 -2.3302931846e-19 
0.138             	 2.6039248660e+00 -2.4598646228e-01 4.6093011062e-19 	 1.9320366203e+00 -2.4607926486e-01 5.4964580165e-19 	 6.7188824575e-01 9.2802577347e-05 -8.8715691034e-20 
0.139             	 2.6267022492e+00 1.4025862117e-01 3.6891610480e-19 	 1.9470435961e+00 1.4005428340e-01 5.5471726411e-19 	 6.7965865309e-01 2.0433777041e-04 -1.8580115930e-19 
0.141             	 2.6728822974e+00 -1.0702310664e-01 5.1575386397e-19 	 1.9776845137e+00 -1.0707986790e-01 5.6206205498e-19 	 6.9519778371e-01 5.6761259435e-05 -4.6308191013e-20 
0.142             	 2.6953073341e+00 2.3726596605e-01 3.3801193685e-19 	 1.9924519504e+00 2.3690125312e-01 5.6482123189e-19 	 7.0285538372e-01 3.6471292927e-04 -2.2680929504e-19 
0.143             	 2.7178589199e+00 -3.7132380530e-01 3.8769131920e-19 	 2.0074112808e+00 -3.7126681834e-01 5.6847936738e-19 	 7.1044763914e-01 -5.6986961096e-05 -1.8078804818e-19 
0.144             	 2.7403984903e+00 4.4719765890e-01 3.0728437481e-19 	 2.0224068956e+00 4.4675352080e-01 5.7303928368e-19 	 7.1799159474e-01 4.4413809539e-04 -2.6575490887e-19 
0.145             	 2.7644328360e+00 -4.9901197044e-01 4.1991439045e-19 	 2.0387391901e+00 -4.9894101208e-01 5.7668097450e-19 	 7.2569364597e-01 -7.0958360080e-05 -1.5676658404e-19 
0.146             	 2.7856606077e+00 4.7223500603e-01 3.5341145470e-19 	 2.0523193491e+00 4.7182384001e-01 5.8152316656e-19 	 7.3334125864e-01 4.1116602313e-04 -2.2811171186e-19 
0.147             	 2.8111628361e+00 -4.0886003317e-01 5.9511751818e-19 	 2.0699042481e+00 -4.0888831239e-01 5.8605437163e-19 	 7.4125858805e-01 2.8279214058e-05 9.0631465492e-21 
0.148             	 2.8332307780e+00 2.8388661292e-01 4.9719574126e-19 	 2.0840509526e+00 2.8359559768e-01 5.9005494688e-19 	 7.4917982545e-01 2.9101523892e-04 -9.2859205620e-20 
0.149             	 2.8571061640e+00 -1.9291204589e-01 2.6644861883e-19 	 2.0999246804e+00 -1.9305046029e-01 5.9499743206e-19 	 7.5718148361e-01 1.3841440639e-04 -3.2854881322e-19 
0.151             	 2.9035168550e+00 2.8800213040e-02 5.4763753149e-19 	 2.1301924219e+00 2.8547715604e-02 6.0323171912e-19 	 7.7332443305e-01 2.5249743645e-04 -5.5594187629e-20 
0.152             	 2.9275987666e+00 -1.3668374999e-01 4.6870452197e-19 	 2.1462105201e+00 -1.3679086075e-01 6.0676421520e-19 	 7.8138824654e-01 1.0711075401e-04 -1.3805969324e-19 
0.153             	 2.9497298051e+00 1.3758641321e-01 5.0211598253e-19 	 2.1603122847e+00 1.3734482014e-01 6.0959756406e-19 	 7.8941752037e-01 2.4159307249e-04 -1.0748158153e-19 
0.154             	 2.9724925428e+00 -9.5710127233e-02 5.1825602590e-19 	 2.1751939822e+00 -9.5901673792e-02 6.1255073631e-19 	 7.9729856054e-01 1.9154655852e-04 -9.4294710412e-20 
0.155             	 2.9955309193e+00 1.1434902147e-02 3.8629137633e-19 	 2.1903882657e+00 1.1271781488e-02 6.1582315458e-19 	 8.0514265369e-01 1.6312065872e-04 -2.2953177825e-19 
0.156             	 3.0191851962e+00 3.5050124390e-02 4.2901716362e-19 	 2.2062241645e+00 3.4794761138e-02 6.2111738535e-19 	 8.1296103176e-01 2.5536325191e-04 -1.9210022172e-19 
0.157             	 3.0441920354e+00 -9.0325594100e-02 6.0730022153e-19 	 2.2232123432e+00 -9.0469869337e-02 6.2573765624e-19 	 8.2097969213e-01 1.4427523649e-04 -1.8437434709e-20 
0.158             	 3.0664747905e+00 9.6565724825e-02 6.4067516716e-19 	 2.2373713317e+00 9.6302785899e-02 6.3023030451e-19 	 8.2910345884e-01 2.6293892603e-04 1.0444862642e-20 
0.159             	 3.0911931961e+00 -8.2781905074e-02 5.2764083618e-19 	 2.2537601351e+00 -8.2975368507e-02 6.3548005972e-19 	 8.3743306104e-01 1.9346343294e-04 -1.0783922354e-19 
0.161             	 3.1395132746e+00 7.1712776208e-02 5.3109564969e-19 	 2.2849617176e+00 7.1430252004e-02 6.4422379502e-19 	 8.5455155708e-01 2.8252420436e-04 -1.1312814533e-19 
0.162             	 3.1624263210e+00 -9.6709934921e-02 6.0641007355e-19 	 2.2993932920e+00 -9.6866913953e-02 6.4622242565e-19 	 8.6303302904e-01 1.5697903214e-04 -3.9812352102e-20 
0.163             	 3.1861764490e+00 -1.1909552613e-02 4.5561040976e-19 	 2.3148645100e+00 -1.2065475061e-02 6.5049451379e-19 	 8.7131193898e-01 1.5592244749e-04 -1.9488410403e-19 
0.164             	 3.2092542008e+00 2.0202520225e-01 3.9195996185e-19 	 2.3297521708e+00 2.0161866414e-01 6.5186984168e-19 	 8.7950202995e-01 4.0653811014e-04 -2.5990987982e-19 
0.165             	 3.2325373108e+00 -4.9729885047e-01 3.2081730699e-19 	 2.3449995627e+00 -4.9714802319e-01 6.5810822134e-19 	 8.8753774812e-01 -1.5082727461e-04 -3.3729091435e-19 
0.166             	 3.2568656817e+00 7.6137027317e-01 4.4092116314e-19 	 2.3611015365e+00 7.6067630361e-01 6.6135583657e-19 	 8.9576414516e-01 6.9396955229e-04 -2.2043467343e-19 
0.167             	 3.2809916433e+00 -1.0045730298e+00 6.0909307803e-19 	 2.3769547016e+00 -1.0042535018e+00 6.6644621185e-19 	 9.0403694170e-01 -3.1952805032e-04 -5.7353133822e-20 
0.168             	 3.3028974417e+00 1.1395482320e+00 6.3041092038e-19 	 2.3904852071e+00 1.1387592222e+00 6.7027075654e-19 	 9.1241223463e-01 7.8900976935e-04 -3.9859836164e-20 
0.169             	 3.3307683316e+00 -1.1862314199e+00 3.1847808208e-19 	 2.4097252242e+00 -1.1859685984e+00 6.7604078241e-19 	 9.2104310742e-01 -2.6282148598e-04 -3.5756270033e-19 
0.171             	 3.3787362170e+00 -9.7916107100e-01 4.9732381324e-19 	 2.4404848435e+00 -9.7908728895e-01 6.8422871978e-19 	 9.3825137351e-01 -7.3782053951e-05 -1.8690490655e-19 
0.172             	 3.4001491864e+00 7.8073167811e-01 5.9795745527e-19 	 2.4533554769e+00 7.8029341972e-01 6.8609555667e-19 	 9.4679370947e-01 4.3825838468e-04 -8.8138101395e-20 
0.173             	 3.4267291924e+00 -5.9104406933e-01 4.9982137522e-19 	 2.4712990263e+00 -5.9115765749e-01 6.9219422954e-19 	 9.5543016610e-01 1.1358816279e-04 -1.9237285432e-19 
0.174             	 3.4483480697e+00 4.0839879254e-01 5.3211311742e-19 	 2.4843115331e+00 4.0809846084e-01 6.9299325106e-19 	 9.6403653654e-01 3.0033170140e-04 -1.6088013364e-19 
0.175             	 3.4736056838e+00 -3.2213770813e-01 4.9789915040e-19 	 2.5009684273e+00 -3.2228121917e-01 6.9933155491e-19 	 9.7263725651e-01 1.4351104418e-04 -2.0143240451e-19 
0.176             	 3.4968892843e+00 2.2218816646e-01 5.1098882757e-19 	 2.5156559850e+00 2.2190243087e-01 7.0082719451e-19 	 9.8123329928e-01 2.8573558674e-04 -1.8983836694e-19 
0.177             	 3.5222904360e+00 -1.6130551364e-01 3.4642312957e-19 	 2.5324219084e+00 -1.6148655750e-01 7.0732823284e-19 	 9.8986852760e-01 1.8104385710e-04 -3.6090510327e-19 
0.178             	 3.5455088789e+00 1.2674096201e-01 3.6181606513e-19 	 2.5470163658e+00 1.2643106008e-01 7.0889250617e-19 	 9.9849251305e-01 3.0990192617e-04 -3.4707644104e-19 
0.179             	 3.5707948843e+00 -1.8273587923e-01 5.1223279555e-19 	 2.5636281729e+00 -1.8285009017e-01 7.1543206217e-19 	 1.0071667114e+00 1.1421094151e-04 -2.0319926662e-19 
0.181             	 3.6194205873e+00 -3.8092571784e-01 6.0978101718e-19 	 2.5946645128e+00 -3.8094448285e-01 7.2398806552e-19 	 1.0247560744e+00 1.8765012069e-05 -1.1420704834e-19 
0.182             	 3.6437149853e+00 4.1903195310e-01 7.1414116354e-19 	 2.6100271638e+00 4.1858290831e-01 7.2629041971e-19 	 1.0336878215e+00 4.4904478888e-04 -1.2149256173e-20 
0.183             	 3.6691999512e+00 -3.8718758277e-01 4.6055393415e-19 	 2.6265351350e+00 -3.8729891895e-01 7.3280622916e-19 	 1.0426648162e+00 1.1133618328e-04 -2.7225229501e-19 
0.184             	 3.6932437767e+00 2.4768916871e-01 7.0477964738e-19 	 2.6415775410e+00 2.4740899267e-01 7.3422106794e-19 	 1.0516662358e+00 2.8017603731e-04 -2.9441420563e-20 