/*--------------------------------*- C++ -*----------------------------------*\
  =========                 |
  \\      /  F ield         | OpenFOAM: The Open Source CFD Toolbox
   \\    /   O peration     | Website:  https://openfoam.org
    \\  /    A nd           | Version:  7
     \\/     M anipulation  |
\*---------------------------------------------------------------------------*/
FoamFile
{
    version     2.0;
    format      ascii;
    class       surfaceScalarField;
    location    "8.87";
    object      phi;
}
// * * * * * * * * * * * * * * * * * * * * * * * * * * * * * * * * * * * * * //

dimensions      [1 0 -1 0 0 0 0];

internalField   nonuniform List<scalar> 
23692
(
1.19497e-05
-3.15286e-07
1.24827e-05
-5.3284e-07
1.31948e-05
-7.11934e-07
1.40566e-05
-8.61536e-07
1.50476e-05
-9.90683e-07
1.61542e-05
-1.10609e-06
1.73676e-05
-1.21292e-06
1.86831e-05
-1.31499e-06
2.00984e-05
-1.41471e-06
2.16121e-05
-1.51298e-06
2.3222e-05
-1.6093e-06
2.49248e-05
-1.70199e-06
2.67141e-05
-1.78859e-06
2.85812e-05
-1.86629e-06
3.05144e-05
-1.93239e-06
3.24999e-05
-1.98462e-06
3.45222e-05
-2.02142e-06
3.6565e-05
-2.04196e-06
3.86121e-05
-2.04618e-06
4.06476e-05
-2.03467e-06
4.2657e-05
-2.00854e-06
4.46272e-05
-1.96925e-06
4.65466e-05
-1.91848e-06
4.84055e-05
-1.858e-06
5.01959e-05
-1.78957e-06
5.19117e-05
-1.71488e-06
5.35481e-05
-1.63549e-06
5.51017e-05
-1.55278e-06
5.65706e-05
-1.46799e-06
5.79537e-05
-1.38219e-06
5.92508e-05
-1.29629e-06
6.04627e-05
-1.21102e-06
6.15905e-05
-1.12703e-06
6.26361e-05
-1.04479e-06
6.36016e-05
-9.64713e-07
6.44895e-05
-8.87098e-07
6.53024e-05
-8.12174e-07
6.60433e-05
-7.40102e-07
6.6715e-05
-6.70992e-07
6.73206e-05
-6.04906e-07
6.78632e-05
-5.41871e-07
6.83457e-05
-4.81881e-07
6.87713e-05
-4.24905e-07
6.91428e-05
-3.70893e-07
6.94632e-05
-3.19773e-07
6.97352e-05
-2.71464e-07
6.99616e-05
-2.25866e-07
7.0145e-05
-1.82871e-07
7.02878e-05
-1.42359e-07
7.03925e-05
-1.04199e-07
7.04612e-05
-6.82484e-08
7.04959e-05
-3.43538e-08
7.04986e-05
-2.34958e-09
7.0471e-05
2.7896e-08
7.04148e-05
5.65171e-08
7.03313e-05
8.36713e-08
7.0222e-05
1.09546e-07
7.00878e-05
1.34349e-07
6.99296e-05
1.58305e-07
6.9748e-05
1.81663e-07
6.95434e-05
2.04699e-07
6.93156e-05
2.27722e-07
6.90645e-05
2.51089e-07
6.87892e-05
2.75206e-07
6.84886e-05
3.00557e-07
6.81607e-05
3.27716e-07
6.78031e-05
3.57388e-07
6.74125e-05
3.9045e-07
6.69842e-05
4.28033e-07
6.65123e-05
4.71623e-07
6.59887e-05
5.2325e-07
6.54026e-05
5.85775e-07
6.47389e-05
6.63398e-07
6.39759e-05
7.62548e-07
6.3082e-05
8.93522e-07
6.2008e-05
1.07364e-06
6.06741e-05
1.33355e-06
5.89429e-05
1.73072e-06
5.65579e-05
2.38461e-06
5.29624e-05
3.59512e-06
6.68537e-06
4.62767e-05
1.2775e-05
-6.4216e-07
1.33411e-05
-1.09878e-06
1.40997e-05
-1.47038e-06
1.50187e-05
-1.78021e-06
1.60763e-05
-2.04787e-06
1.72577e-05
-2.28705e-06
1.85537e-05
-2.50844e-06
1.99594e-05
-2.72007e-06
2.14722e-05
-2.92692e-06
2.30908e-05
-3.13089e-06
2.48133e-05
-3.33097e-06
2.66357e-05
-3.52367e-06
2.85518e-05
-3.70384e-06
3.0552e-05
-3.86563e-06
3.26239e-05
-4.00338e-06
3.47525e-05
-4.11237e-06
3.69213e-05
-4.18926e-06
3.91126e-05
-4.23236e-06
4.13089e-05
-4.24151e-06
4.34931e-05
-4.21794e-06
4.56495e-05
-4.16394e-06
4.77638e-05
-4.08257e-06
4.98236e-05
-3.97733e-06
5.18184e-05
-3.8519e-06
5.37398e-05
-3.70995e-06
5.55808e-05
-3.555e-06
5.73366e-05
-3.39027e-06
5.90034e-05
-3.21867e-06
6.05791e-05
-3.04276e-06
6.20626e-05
-2.86477e-06
6.34538e-05
-2.68655e-06
6.47533e-05
-2.50969e-06
6.59626e-05
-2.33546e-06
6.70836e-05
-2.1649e-06
6.81186e-05
-1.99882e-06
6.90702e-05
-1.83786e-06
6.99413e-05
-1.68249e-06
7.07351e-05
-1.53303e-06
7.14546e-05
-1.38972e-06
7.21031e-05
-1.25269e-06
7.2684e-05
-1.12197e-06
7.32004e-05
-9.9757e-07
7.36556e-05
-8.79415e-07
7.40527e-05
-7.67396e-07
7.4395e-05
-6.61369e-07
7.46853e-05
-5.61157e-07
7.49265e-05
-4.66558e-07
7.51216e-05
-3.77343e-07
7.5273e-05
-2.93263e-07
7.53833e-05
-2.14045e-07
7.54549e-05
-1.39395e-07
7.549e-05
-6.89919e-08
7.54905e-05
-2.49687e-09
7.54584e-05
6.0352e-08
7.53953e-05
1.19857e-07
7.53029e-05
1.76341e-07
7.51825e-05
2.30192e-07
7.50351e-05
2.81836e-07
7.48618e-05
3.31736e-07
7.46632e-05
3.80399e-07
7.44396e-05
4.28389e-07
7.41909e-05
4.76339e-07
7.3917e-05
5.24965e-07
7.36171e-05
5.75093e-07
7.32898e-05
6.27687e-07
7.29335e-05
6.83896e-07
7.25455e-05
7.45111e-07
7.21227e-05
8.13054e-07
7.16606e-05
8.89911e-07
7.11534e-05
9.78522e-07
7.05936e-05
1.08269e-06
6.99714e-05
1.20764e-06
6.92736e-05
1.36083e-06
6.84826e-05
1.55318e-06
6.75744e-05
1.80127e-06
6.65165e-05
2.13108e-06
6.52653e-05
2.58437e-06
6.37657e-05
3.22986e-06
6.19645e-05
4.18542e-06
5.99008e-05
5.65836e-06
7.93598e-06
5.86498e-05
1.36531e-05
-9.76833e-07
1.42496e-05
-1.69509e-06
1.50529e-05
-2.2734e-06
1.60288e-05
-2.75586e-06
1.71539e-05
-3.17256e-06
1.84122e-05
-3.54485e-06
1.97939e-05
-3.88953e-06
2.12936e-05
-4.2192e-06
2.29091e-05
-4.54173e-06
2.46391e-05
-4.86015e-06
2.64818e-05
-5.17289e-06
2.84335e-05
-5.4745e-06
3.04874e-05
-5.75687e-06
3.26335e-05
-6.01077e-06
3.48583e-05
-6.22725e-06
3.71457e-05
-6.3988e-06
3.94775e-05
-6.52016e-06
4.18348e-05
-6.58859e-06
4.41981e-05
-6.60383e-06
4.6549e-05
-6.5678e-06
4.88701e-05
-6.48409e-06
5.11461e-05
-6.35752e-06
5.33634e-05
-6.19357e-06
5.55106e-05
-5.99805e-06
5.75784e-05
-5.77672e-06
5.95595e-05
-5.53507e-06
6.14484e-05
-5.27817e-06
6.32413e-05
-5.01058e-06
6.49358e-05
-4.7363e-06
6.65309e-05
-4.45879e-06
6.80263e-05
-4.18098e-06
6.94228e-05
-3.90531e-06
7.07221e-05
-3.63378e-06
7.19261e-05
-3.368e-06
7.30375e-05
-3.10923e-06
7.4059e-05
-2.85847e-06
7.49938e-05
-2.61642e-06
7.58452e-05
-2.38362e-06
7.66167e-05
-2.16039e-06
7.73118e-05
-1.94694e-06
7.7934e-05
-1.74335e-06
7.84867e-05
-1.54958e-06
7.89736e-05
-1.36554e-06
7.93979e-05
-1.19103e-06
7.97631e-05
-1.02585e-06
8.00723e-05
-8.69702e-07
8.03286e-05
-7.22271e-07
8.05351e-05
-5.83201e-07
8.06945e-05
-4.521e-07
8.08095e-05
-3.28543e-07
8.08826e-05
-2.12068e-07
8.09163e-05
-1.0218e-07
8.09125e-05
1.64735e-09
8.08734e-05
9.97924e-08
8.08008e-05
1.92775e-07
8.06964e-05
2.81087e-07
8.05615e-05
3.65333e-07
8.03973e-05
4.46168e-07
8.02049e-05
5.24298e-07
7.99849e-05
6.00498e-07
7.97377e-05
6.75622e-07
7.94634e-05
7.50623e-07
7.91618e-05
8.26572e-07
7.88321e-05
9.04696e-07
7.84732e-05
9.86415e-07
7.80836e-05
1.0734e-06
7.76608e-05
1.16765e-06
7.7202e-05
1.2716e-06
7.67034e-05
1.38828e-06
7.616e-05
1.52153e-06
7.5566e-05
1.67636e-06
7.49139e-05
1.85939e-06
7.41948e-05
2.07957e-06
7.33982e-05
2.34927e-06
7.25133e-05
2.6858e-06
7.15304e-05
3.11351e-06
7.04478e-05
3.66653e-06
6.92857e-05
4.39148e-06
6.81226e-05
5.34811e-06
6.71842e-05
6.5963e-06
8.12327e-06
6.69965e-05
1.45896e-05
-1.31701e-06
1.52134e-05
-2.31871e-06
1.60594e-05
-3.11923e-06
1.70919e-05
-3.78792e-06
1.82851e-05
-4.36536e-06
1.9622e-05
-4.88123e-06
2.10921e-05
-5.35906e-06
2.26901e-05
-5.81651e-06
2.44138e-05
-6.2647e-06
2.62625e-05
-6.708e-06
2.82347e-05
-7.14425e-06
3.03269e-05
-7.5658e-06
3.25322e-05
-7.96123e-06
3.48398e-05
-8.31744e-06
3.72353e-05
-8.62168e-06
3.97008e-05
-8.8633e-06
4.22165e-05
-9.03477e-06
4.47611e-05
-9.13217e-06
4.73135e-05
-9.15509e-06
4.9853e-05
-9.10623e-06
5.23607e-05
-8.99066e-06
5.48194e-05
-8.81516e-06
5.72144e-05
-8.58747e-06
5.95332e-05
-8.31574e-06
6.17656e-05
-8.00807e-06
6.39038e-05
-7.67214e-06
6.59418e-05
-7.31505e-06
6.78754e-05
-6.94317e-06
6.97023e-05
-6.56209e-06
7.14212e-05
-6.17662e-06
7.30321e-05
-5.79082e-06
7.45359e-05
-5.40809e-06
7.59343e-05
-5.03119e-06
7.72297e-05
-4.66236e-06
7.84248e-05
-4.30333e-06
7.95227e-05
-3.95546e-06
8.0527e-05
-3.61974e-06
8.14412e-05
-3.29688e-06
8.2269e-05
-2.98734e-06
8.30143e-05
-2.69138e-06
8.36809e-05
-2.40909e-06
8.42726e-05
-2.14043e-06
8.47931e-05
-1.88523e-06
8.52461e-05
-1.64326e-06
8.56351e-05
-1.41419e-06
8.59637e-05
-1.19761e-06
8.62352e-05
-9.93081e-07
8.64527e-05
-8.00107e-07
8.66194e-05
-6.18138e-07
8.6738e-05
-4.46584e-07
8.68112e-05
-2.84805e-07
8.68416e-05
-1.32112e-07
8.68315e-05
1.21727e-08
8.67831e-05
1.48639e-07
8.66982e-05
2.77958e-07
8.65788e-05
4.00857e-07
8.64262e-05
5.18158e-07
8.62418e-05
6.30747e-07
8.60267e-05
7.39582e-07
8.57816e-05
8.45699e-07
8.5507e-05
9.50235e-07
8.52032e-05
1.05444e-06
8.487e-05
1.15973e-06
8.45069e-05
1.26767e-06
8.41131e-05
1.38008e-06
8.36873e-05
1.49905e-06
8.32277e-05
1.62703e-06
8.27321e-05
1.76695e-06
8.21977e-05
1.92236e-06
8.16213e-05
2.0976e-06
8.09992e-05
2.29808e-06
8.03276e-05
2.53058e-06
7.9603e-05
2.80374e-06
7.88233e-05
3.12851e-06
7.799e-05
3.51868e-06
7.71118e-05
3.99118e-06
7.62122e-05
4.56568e-06
7.53407e-05
5.26248e-06
7.45916e-05
6.09671e-06
7.4123e-05
7.06447e-06
8.11068e-06
7.41351e-05
1.55897e-05
-1.66154e-06
1.62384e-05
-2.96723e-06
1.71256e-05
-4.00622e-06
1.82138e-05
-4.87572e-06
1.94757e-05
-5.62679e-06
2.08929e-05
-6.29791e-06
2.24546e-05
-6.92006e-06
2.41553e-05
-7.51658e-06
2.59937e-05
-8.10231e-06
2.79698e-05
-8.68319e-06
3.00829e-05
-9.25645e-06
3.233e-05
-9.81192e-06
3.47041e-05
-1.03343e-05
3.71936e-05
-1.08059e-05
3.97825e-05
-1.12095e-05
4.2451e-05
-1.15308e-05
4.51768e-05
-1.17594e-05
4.79361e-05
-1.18903e-05
5.07048e-05
-1.19227e-05
5.34601e-05
-1.18603e-05
5.61806e-05
-1.171e-05
5.88473e-05
-1.14808e-05
6.1444e-05
-1.1183e-05
6.39569e-05
-1.08274e-05
6.63749e-05
-1.04249e-05
6.86894e-05
-9.98551e-06
7.08942e-05
-9.51864e-06
7.29848e-05
-9.03265e-06
7.49587e-05
-8.53486e-06
7.68148e-05
-8.03156e-06
7.85532e-05
-7.52807e-06
8.0175e-05
-7.02878e-06
8.16821e-05
-6.53729e-06
8.30773e-05
-6.05648e-06
8.43637e-05
-5.58862e-06
8.55447e-05
-5.13542e-06
8.66241e-05
-4.69815e-06
8.76059e-05
-4.27773e-06
8.84943e-05
-3.87471e-06
8.92933e-05
-3.48943e-06
9.00071e-05
-3.12198e-06
9.06398e-05
-2.77229e-06
9.11956e-05
-2.44013e-06
9.16783e-05
-2.12517e-06
9.20919e-05
-1.82697e-06
9.244e-05
-1.545e-06
9.27263e-05
-1.27868e-06
9.29542e-05
-1.02733e-06
9.3127e-05
-7.90265e-07
9.32477e-05
-5.66696e-07
9.33192e-05
-3.55798e-07
9.33443e-05
-1.5668e-07
9.33254e-05
3.15028e-08
9.3265e-05
2.0954e-07
9.3165e-05
3.783e-07
9.30274e-05
5.38748e-07
9.28539e-05
6.91935e-07
9.26459e-05
8.38983e-07
9.24045e-05
9.8109e-07
9.21308e-05
1.11954e-06
9.18254e-05
1.25574e-06
9.14886e-05
1.39121e-06
9.11207e-05
1.52762e-06
9.07214e-05
1.66684e-06
9.02904e-05
1.81097e-06
8.98269e-05
1.96237e-06
8.93299e-05
2.12377e-06
8.87983e-05
2.29829e-06
8.82307e-05
2.48959e-06
8.7626e-05
2.70194e-06
8.69833e-05
2.94038e-06
8.63026e-05
3.21085e-06
8.55857e-05
3.52023e-06
8.48374e-05
3.87639e-06
8.40676e-05
4.28793e-06
8.32948e-05
4.76346e-06
8.25499e-05
5.31014e-06
8.1881e-05
5.93086e-06
8.13576e-05
6.61961e-06
8.10672e-05
7.35432e-06
8.08573e-06
8.10916e-05
1.66588e-05
-2.01027e-06
1.73308e-05
-3.63906e-06
1.82582e-05
-4.93324e-06
1.94017e-05
-6.01885e-06
2.07329e-05
-6.95754e-06
2.22325e-05
-7.7969e-06
2.38893e-05
-8.57609e-06
2.56984e-05
-9.32494e-06
2.76596e-05
-1.00626e-05
2.97742e-05
-1.07969e-05
3.20432e-05
-1.15244e-05
3.44641e-05
-1.22318e-05
3.703e-05
-1.2899e-05
3.97281e-05
-1.35029e-05
4.25405e-05
-1.40207e-05
4.54444e-05
-1.44335e-05
4.84141e-05
-1.47279e-05
5.14222e-05
-1.48971e-05
5.44413e-05
-1.49405e-05
5.74453e-05
-1.4863e-05
6.04101e-05
-1.46736e-05
6.33147e-05
-1.4384e-05
6.61407e-05
-1.40077e-05
6.88731e-05
-1.35586e-05
7.15001e-05
-1.30505e-05
7.40122e-05
-1.24964e-05
7.64029e-05
-1.19081e-05
7.86678e-05
-1.12962e-05
8.08042e-05
-1.067e-05
8.28112e-05
-1.00374e-05
8.46893e-05
-9.40491e-06
8.64398e-05
-8.77814e-06
8.80652e-05
-8.16152e-06
8.95685e-05
-7.55863e-06
9.09533e-05
-6.97224e-06
9.22234e-05
-6.40447e-06
9.33832e-05
-5.85687e-06
9.44371e-05
-5.33052e-06
9.53895e-05
-4.8261e-06
9.6245e-05
-4.34397e-06
9.70083e-05
-3.88424e-06
9.76837e-05
-3.44676e-06
9.82757e-05
-3.03125e-06
9.87887e-05
-2.63725e-06
9.92268e-05
-2.2642e-06
9.9594e-05
-1.91142e-06
9.98942e-05
-1.57816e-06
0.000100131
-1.26359e-06
0.000100308
-9.66815e-07
0.000100429
-6.86872e-07
0.000100497
-4.22729e-07
0.000100514
-1.7329e-07
0.000100483
6.24748e-08
0.000100408
2.85551e-07
0.00010029
4.97041e-07
0.000100131
6.98156e-07
9.99326e-05
8.90178e-07
9.96973e-05
1.07446e-06
9.94262e-05
1.25242e-06
9.91203e-05
1.42557e-06
9.87805e-05
1.59555e-06
9.84077e-05
1.76408e-06
9.80022e-05
1.93305e-06
9.75644e-05
2.10453e-06
9.70945e-05
2.28075e-06
9.65925e-05
2.46419e-06
9.60584e-05
2.65761e-06
9.54924e-05
2.86404e-06
9.48947e-05
3.08687e-06
9.42665e-05
3.32983e-06
9.36094e-05
3.59701e-06
9.2927e-05
3.89281e-06
9.2225e-05
4.22177e-06
9.15126e-05
4.58831e-06
9.08039e-05
4.99615e-06
9.01194e-05
5.44742e-06
8.94876e-05
5.94135e-06
8.89456e-05
6.47233e-06
8.85371e-05
7.02757e-06
8.83064e-05
7.58446e-06
8.10864e-06
8.8283e-05
1.78027e-05
-2.36386e-06
1.84973e-05
-4.33353e-06
1.94643e-05
-5.89992e-06
2.06634e-05
-7.21753e-06
2.20653e-05
-8.35888e-06
2.36499e-05
-9.38087e-06
2.54063e-05
-1.03317e-05
2.7331e-05
-1.12488e-05
2.94256e-05
-1.21563e-05
3.1694e-05
-1.30643e-05
3.4139e-05
-1.39684e-05
3.67595e-05
-1.48512e-05
3.95483e-05
-1.56867e-05
4.2491e-05
-1.64443e-05
4.55662e-05
-1.70947e-05
4.87473e-05
-1.76133e-05
5.20037e-05
-1.79829e-05
5.53031e-05
-1.81952e-05
5.86138e-05
-1.82499e-05
6.19057e-05
-1.81536e-05
6.51516e-05
-1.79181e-05
6.83276e-05
-1.75587e-05
7.14137e-05
-1.70924e-05
7.43936e-05
-1.65371e-05
7.72544e-05
-1.59099e-05
7.99864e-05
-1.52271e-05
8.25828e-05
-1.45032e-05
8.50392e-05
-1.37514e-05
8.73534e-05
-1.29829e-05
8.95248e-05
-1.22074e-05
9.15542e-05
-1.1433e-05
9.34436e-05
-1.06663e-05
9.51959e-05
-9.91258e-06
9.68147e-05
-9.17622e-06
9.83042e-05
-8.46049e-06
9.96688e-05
-7.76789e-06
0.000100913
-7.10023e-06
0.000102043
-6.45875e-06
0.000103062
-5.84422e-06
0.000103976
-5.25703e-06
0.00010479
-4.69724e-06
0.000105509
-4.16465e-06
0.000106138
-3.65885e-06
0.000106681
-3.17926e-06
0.000107142
-2.72517e-06
0.000107528
-2.29572e-06
0.00010784
-1.89e-06
0.000108084
-1.50697e-06
0.000108264
-1.14555e-06
0.000108382
-8.04566e-07
0.000108443
-4.82781e-07
0.000108449
-1.78889e-07
0.000108404
1.08341e-07
0.00010831
3.80102e-07
0.00010817
6.37755e-07
0.000107985
8.82758e-07
0.000107759
1.11662e-06
0.000107493
1.34091e-06
0.000107188
1.55724e-06
0.000106847
1.76733e-06
0.000106469
1.97298e-06
0.000106057
2.17607e-06
0.000105612
2.37861e-06
0.000105134
2.58274e-06
0.000104623
2.79073e-06
0.000104082
3.005e-06
0.000103512
3.2281e-06
0.000102913
3.46274e-06
0.000102287
3.71175e-06
0.000101639
3.978e-06
0.000100971
4.26438e-06
0.00010029
4.57355e-06
9.96033e-05
4.90778e-06
9.89226e-05
5.26852e-06
9.82622e-05
5.65597e-06
9.76408e-05
6.0683e-06
9.70806e-05
6.50093e-06
9.66068e-05
6.94558e-06
9.62443e-05
7.38951e-06
9.6013e-05
7.81518e-06
8.20128e-06
9.59198e-05
1.90269e-05
-2.72362e-06
1.97445e-05
-5.05091e-06
2.07517e-05
-6.9068e-06
2.20075e-05
-8.47283e-06
2.34821e-05
-9.83293e-06
2.51555e-05
-1.10536e-05
2.70178e-05
-1.21932e-05
2.90679e-05
-1.32979e-05
3.13106e-05
-1.43981e-05
3.37537e-05
-1.55063e-05
3.64028e-05
-1.66164e-05
3.92583e-05
-1.77056e-05
4.23123e-05
-1.87393e-05
4.55471e-05
-1.96779e-05
4.89367e-05
-2.04829e-05
5.24478e-05
-2.11231e-05
5.60436e-05
-2.15773e-05
5.96854e-05
-2.18356e-05
6.33358e-05
-2.18989e-05
6.69601e-05
-2.17764e-05
7.05274e-05
-2.14839e-05
7.40112e-05
-2.10411e-05
7.73898e-05
-2.04696e-05
8.06456e-05
-1.97915e-05
8.37652e-05
-1.90281e-05
8.67389e-05
-1.81992e-05
8.95599e-05
-1.73227e-05
9.22242e-05
-1.64143e-05
9.47302e-05
-1.54874e-05
9.70779e-05
-1.45537e-05
9.92688e-05
-1.36225e-05
0.000101306
-1.27017e-05
0.000103192
-1.17977e-05
0.000104932
-1.09152e-05
0.000106532
-1.00583e-05
0.000107995
-9.22961e-06
0.000109327
-8.43131e-06
0.000110534
-7.66474e-06
0.000111622
-6.93072e-06
0.000112596
-6.22962e-06
0.000113461
-5.56144e-06
0.000114223
-4.92588e-06
0.000114888
-4.32239e-06
0.00011546
-3.75023e-06
0.000115944
-3.20851e-06
0.000116345
-2.69618e-06
0.000116669
-2.21213e-06
0.000116917
-1.75511e-06
0.000117097
-1.32381e-06
0.00011721
-9.16873e-07
0.00011726
-5.3283e-07
0.000117252
-1.70172e-07
0.000117189
1.72554e-07
0.000117073
4.96773e-07
0.000116907
8.04114e-07
0.000116693
1.09628e-06
0.000116435
1.37499e-06
0.000116135
1.642e-06
0.000115793
1.89911e-06
0.000115412
2.14818e-06
0.000114994
2.39111e-06
0.00011454
2.62989e-06
0.000114053
2.86655e-06
0.000113532
3.10321e-06
0.000112981
3.34203e-06
0.0001124
3.58522e-06
0.000111793
3.835e-06
0.000111162
4.09358e-06
0.00011051
4.36307e-06
0.000109842
4.64542e-06
0.000109164
4.94227e-06
0.000108482
5.25478e-06
0.000107806
5.58341e-06
0.000107146
5.92759e-06
0.000106516
6.28545e-06
0.000105931
6.65339e-06
0.000105405
7.02577e-06
0.000104956
7.39467e-06
0.000104595
7.74992e-06
0.00010433
8.07949e-06
8.37099e-06
0.000104159
2.03374e-05
-3.09132e-06
2.10791e-05
-5.79236e-06
2.21281e-05
-7.95541e-06
2.34426e-05
-9.7869e-06
2.49933e-05
-1.1383e-05
2.6761e-05
-1.28205e-05
2.87379e-05
-1.41693e-05
3.09272e-05
-1.54862e-05
3.3339e-05
-1.68089e-05
3.59863e-05
-1.81524e-05
3.88789e-05
-1.95077e-05
4.20182e-05
-2.08436e-05
4.5394e-05
-2.21137e-05
4.89832e-05
-2.32657e-05
5.27518e-05
-2.425e-05
5.66578e-05
-2.50276e-05
6.06552e-05
-2.55732e-05
6.46976e-05
-2.58765e-05
6.87408e-05
-2.59405e-05
7.2745e-05
-2.57791e-05
7.66757e-05
-2.5413e-05
8.0504e-05
-2.48677e-05
8.42065e-05
-2.41705e-05
8.77652e-05
-2.33486e-05
9.11666e-05
-2.24279e-05
9.44012e-05
-2.14323e-05
9.74631e-05
-2.0383e-05
0.000100349
-1.92986e-05
0.000103058
-1.8195e-05
0.000105591
-1.70854e-05
0.000107951
-1.59811e-05
0.000110142
-1.48908e-05
0.000112167
-1.38218e-05
0.000114033
-1.27796e-05
0.000115745
-1.17686e-05
0.000117308
-1.07918e-05
0.00011873
-9.8516e-06
0.000120016
-8.94936e-06
0.000121173
-8.08593e-06
0.000122206
-7.26161e-06
0.000123122
-6.47629e-06
0.000123927
-5.72953e-06
0.000124626
-5.02061e-06
0.000125226
-4.34859e-06
0.00012573
-3.71236e-06
0.000126146
-3.11068e-06
0.000126477
-2.54218e-06
0.000126728
-2.00541e-06
0.000126904
-1.49884e-06
0.000127009
-1.02085e-06
0.000127047
-5.69793e-07
0.000127021
-1.43946e-07
0.000126936
2.58392e-07
0.000126794
6.38904e-07
0.000126599
9.99496e-07
0.000126354
1.34209e-06
0.000126061
1.66861e-06
0.000125722
1.98096e-06
0.000125341
2.28107e-06
0.000124918
2.57091e-06
0.000124457
2.85245e-06
0.000123959
3.12768e-06
0.000123427
3.3986e-06
0.000122863
3.6672e-06
0.000122269
3.93545e-06
0.000121649
4.20526e-06
0.000121005
4.47842e-06
0.000120342
4.7566e-06
0.000119664
5.04119e-06
0.000118975
5.33329e-06
0.000118284
5.63353e-06
0.000117596
5.94195e-06
0.000116921
6.25784e-06
0.000116268
6.57955e-06
0.000115649
6.90437e-06
0.000115073
7.22836e-06
0.000114552
7.54635e-06
0.000114094
7.85197e-06
0.000113705
8.13797e-06
0.000113388
8.39674e-06
8.62144e-06
0.000113136
2.17403e-05
-3.46908e-06
2.25081e-05
-6.5599e-06
2.36014e-05
-9.04828e-06
2.49781e-05
-1.11631e-05
2.66098e-05
-1.3014e-05
2.84794e-05
-1.46893e-05
3.05836e-05
-1.62726e-05
3.29321e-05
-1.78336e-05
3.55431e-05
-1.94188e-05
3.8437e-05
-2.10451e-05
4.16279e-05
-2.26973e-05
4.51172e-05
-2.43314e-05
4.88891e-05
-2.58842e-05
5.29111e-05
-2.72862e-05
5.71373e-05
-2.84747e-05
6.15134e-05
-2.94021e-05
6.59821e-05
-3.00402e-05
7.04875e-05
-3.03801e-05
7.49782e-05
-3.04296e-05
7.94095e-05
-3.02086e-05
8.37434e-05
-2.97453e-05
8.79495e-05
-2.90721e-05
9.20036e-05
-2.82229e-05
9.58879e-05
-2.72311e-05
9.95895e-05
-2.61278e-05
0.0001031
-2.4941e-05
0.000106414
-2.36958e-05
0.000109531
-2.24136e-05
0.000112451
-2.11127e-05
0.000115175
-1.98083e-05
0.000117708
-1.85128e-05
0.000120055
-1.72363e-05
0.000122222
-1.59868e-05
0.000124214
-1.47704e-05
0.000126039
-1.35919e-05
0.000127703
-1.24545e-05
0.000129214
-1.13606e-05
0.000130578
-1.03118e-05
0.000131802
-9.30874e-06
0.000132893
-8.35162e-06
0.000133859
-7.4402e-06
0.000134704
-6.57382e-06
0.000135436
-5.75155e-06
0.000136061
-4.97224e-06
0.000136585
-4.23451e-06
0.000137012
-3.53689e-06
0.000137348
-2.87776e-06
0.000137599
-2.25541e-06
0.00013777
-1.66807e-06
0.000137864
-1.1139e-06
0.000137886
-5.91016e-07
0.00013784
-9.754e-08
0.000137731
3.68512e-07
0.000137561
8.09133e-07
0.000137334
1.2265e-06
0.000137054
1.62272e-06
0.000136724
1.99987e-06
0.000136345
2.36e-06
0.000135921
2.70514e-06
0.000135455
3.0373e-06
0.000134949
3.35847e-06
0.000134406
3.6706e-06
0.000133829
3.97559e-06
0.000133221
4.27525e-06
0.000132585
4.5713e-06
0.000131925
4.86532e-06
0.000131244
5.15868e-06
0.000130548
5.45253e-06
0.000129841
5.74769e-06
0.00012913
6.04458e-06
0.000128419
6.34314e-06
0.000127718
6.64275e-06
0.000127033
6.94214e-06
0.000126373
7.23932e-06
0.000125745
7.53155e-06
0.000125158
7.81538e-06
0.000124617
8.08669e-06
0.000124127
8.34092e-06
0.000123691
8.57332e-06
0.000123308
8.77936e-06
8.95562e-06
0.000122973
2.3242e-05
-3.85931e-06
2.40387e-05
-7.35639e-06
2.51799e-05
-1.0189e-05
2.66236e-05
-1.26063e-05
2.83433e-05
-1.47329e-05
3.03261e-05
-1.66712e-05
3.25761e-05
-1.85216e-05
3.51132e-05
-2.03696e-05
3.79673e-05
-2.22716e-05
4.11678e-05
-2.42442e-05
4.47326e-05
-2.62607e-05
4.86591e-05
-2.82564e-05
5.29209e-05
-3.01444e-05
5.74703e-05
-3.18339e-05
6.22443e-05
-3.3247e-05
6.71727e-05
-3.43287e-05
7.21849e-05
-3.50506e-05
7.7215e-05
-3.54085e-05
8.22048e-05
-3.54176e-05
8.71052e-05
-3.51072e-05
9.18763e-05
-3.45145e-05
9.64868e-05
-3.36807e-05
0.000100913
-3.26476e-05
0.000105139
-3.14549e-05
0.000109152
-3.01394e-05
0.000112947
-2.87339e-05
0.00011652
-2.72669e-05
0.000119871
-2.5763e-05
0.000123003
-2.42426e-05
0.000125919
-2.27228e-05
0.000128625
-2.12173e-05
0.000131128
-1.97372e-05
0.000133434
-1.82911e-05
0.000135551
-1.68856e-05
0.000137486
-1.55258e-05
0.000139249
-1.4215e-05
0.000140845
-1.29557e-05
0.000142284
-1.17493e-05
0.000143573
-1.05964e-05
0.00014472
-9.49689e-06
0.000145732
-8.45042e-06
0.000146616
-7.45607e-06
0.000147378
-6.51262e-06
0.000148026
-5.61865e-06
0.000148565
-4.77251e-06
0.000149002
-3.97245e-06
0.000149342
-3.21657e-06
0.00014959
-2.50291e-06
0.000149753
-1.82942e-06
0.000149834
-1.19402e-06
0.000149838
-5.94585e-07
0.000149771
-2.91595e-08
0.000149635
5.04543e-07
0.000149436
1.00898e-06
0.000149177
1.48651e-06
0.000148861
1.93938e-06
0.000148491
2.36981e-06
0.000148072
2.77994e-06
0.000147605
3.17187e-06
0.000147095
3.54764e-06
0.000146545
3.9092e-06
0.000145957
4.25843e-06
0.000145335
4.59708e-06
0.000144684
4.92679e-06
0.000144006
5.24903e-06
0.000143306
5.56505e-06
0.000142589
5.8759e-06
0.000141858
6.18229e-06
0.000141121
6.48465e-06
0.000140382
6.78297e-06
0.000139648
7.07686e-06
0.000138925
7.36542e-06
0.000138219
7.64729e-06
0.000137537
7.92064e-06
0.000136885
8.18315e-06
0.000136268
8.43218e-06
0.000135689
8.66483e-06
0.000135151
8.87809e-06
0.000134655
9.06913e-06
0.000134198
9.23552e-06
9.37586e-06
0.000133777
2.48492e-05
-4.26461e-06
2.56786e-05
-8.18553e-06
2.68724e-05
-1.13824e-05
2.83898e-05
-1.4123e-05
3.02076e-05
-1.65499e-05
3.23202e-05
-1.87828e-05
3.47434e-05
-2.09437e-05
3.75127e-05
-2.31377e-05
4.06732e-05
-2.54307e-05
4.42641e-05
-2.78337e-05
4.83036e-05
-3.02986e-05
5.27783e-05
-3.27295e-05
5.76428e-05
-3.50073e-05
6.28267e-05
-3.7016e-05
6.82449e-05
-3.86633e-05
7.38085e-05
-3.98905e-05
7.9433e-05
-4.06732e-05
8.5043e-05
-4.10165e-05
9.05749e-05
-4.09475e-05
9.5977e-05
-4.05073e-05
0.000101209
-3.97445e-05
0.000106241
-3.87105e-05
0.000111051
-3.74555e-05
0.000115624
-3.60264e-05
0.000119953
-3.44658e-05
0.000124032
-3.28111e-05
0.000127862
-3.10946e-05
0.000131444
-2.93434e-05
0.000134784
-2.75804e-05
0.000137887
-2.58239e-05
0.000140761
-2.40891e-05
0.000143413
-2.23876e-05
0.000145853
-2.07288e-05
0.000148088
-1.91194e-05
0.000150129
-1.75646e-05
0.000151984
-1.6068e-05
0.000153661
-1.46316e-05
0.00015517
-1.32569e-05
0.00015652
-1.19441e-05
0.000157718
-1.0693e-05
0.000158772
-9.50294e-06
0.00015969
-8.37257e-06
0.000160479
-7.30044e-06
0.000161146
-6.28477e-06
0.000161699
-5.32363e-06
0.000162143
-4.41494e-06
0.000162484
-3.55651e-06
0.000162728
-2.7461e-06
0.000162881
-1.9814e-06
0.000162948
-1.26007e-06
0.000162935
-5.79779e-07
0.000162845
6.1725e-08
0.000162683
6.66979e-07
0.000162454
1.23873e-06
0.000162162
1.77953e-06
0.00016181
2.2918e-06
0.000161402
2.77785e-06
0.000160943
3.23991e-06
0.000160435
3.68011e-06
0.000159883
4.10049e-06
0.000159289
4.50297e-06
0.000158658
4.88931e-06
0.000157994
5.26116e-06
0.000157301
5.61996e-06
0.000156583
5.96698e-06
0.000155845
6.30325e-06
0.000155091
6.62954e-06
0.000154326
6.94635e-06
0.000153557
7.25384e-06
0.000152788
7.55188e-06
0.000152024
7.83996e-06
0.000151272
8.11726e-06
0.000150536
8.38262e-06
0.000149821
8.63462e-06
0.000149132
8.87158e-06
0.000148472
9.09171e-06
0.000147843
9.29321e-06
0.000147246
9.47435e-06
0.000146681
9.63364e-06
0.000146146
9.77001e-06
9.88328e-06
0.000145638
2.65691e-05
-4.68791e-06
2.74359e-05
-9.05199e-06
2.86887e-05
-1.26347e-05
3.0289e-05
-1.57226e-05
3.22195e-05
-1.84795e-05
3.44865e-05
-2.10488e-05
3.71242e-05
-2.35803e-05
4.01898e-05
-2.6202e-05
4.37469e-05
-2.89863e-05
4.78422e-05
-3.19274e-05
5.24856e-05
-3.49402e-05
5.76419e-05
-3.7884e-05
6.32361e-05
-4.05996e-05
6.91672e-05
-4.29452e-05
7.53242e-05
-4.48183e-05
8.15988e-05
-4.61629e-05
8.78934e-05
-4.69657e-05
9.41258e-05
-4.72468e-05
0.000100229
-4.70489e-05
0.000106152
-4.6428e-05
0.000111856
-4.54462e-05
0.000117314
-4.41658e-05
0.000122506
-4.26461e-05
0.000127424
-4.09415e-05
0.00013206
-3.91002e-05
0.000136415
-3.71641e-05
0.000140492
-3.51689e-05
0.000144295
-3.31443e-05
0.000147832
-3.11149e-05
0.00015111
-2.91005e-05
0.00015414
-2.7117e-05
0.000156932
-2.51768e-05
0.000159494
-2.32894e-05
0.000161839
-2.14618e-05
0.000163975
-1.9699e-05
0.000165913
-1.80045e-05
0.000167664
-1.63801e-05
0.000169236
-1.4827e-05
0.000170639
-1.33452e-05
0.000171881
-1.19339e-05
0.000172972
-1.05922e-05
0.00017392
-9.31845e-06
0.000174732
-8.11072e-06
0.000175415
-6.96693e-06
0.000175978
-5.88476e-06
0.000176426
-4.86181e-06
0.000176767
-3.89558e-06
0.000177005
-2.9835e-06
0.000177148
-2.12301e-06
0.000177201
-1.31153e-06
0.000177168
-5.46497e-07
0.000177056
1.74748e-07
0.000176869
8.55003e-07
0.000176612
1.49716e-06
0.000176288
2.10396e-06
0.000175903
2.67797e-06
0.00017546
3.22161e-06
0.000174963
3.73717e-06
0.000174417
4.22681e-06
0.000173825
4.69255e-06
0.000173192
5.13626e-06
0.000172522
5.55965e-06
0.000171819
5.96424e-06
0.000171087
6.35137e-06
0.000170332
6.72215e-06
0.000169558
7.07748e-06
0.000168769
7.418e-06
0.000167971
7.74412e-06
0.000167169
8.05596e-06
0.000166367
8.35341e-06
0.00016557
8.6361e-06
0.000164784
8.90344e-06
0.000164011
9.15465e-06
0.000163256
9.38882e-06
0.000162522
9.60496e-06
0.000161811
9.80206e-06
0.000161125
9.97919e-06
0.000160463
1.01356e-05
0.000159825
1.02707e-05
0.00015921
1.03844e-05
1.04771e-05
0.000158615
2.84094e-05
-5.13245e-06
2.93193e-05
-9.96161e-06
3.06396e-05
-1.39544e-05
3.23357e-05
-1.7418e-05
3.44005e-05
-2.05433e-05
3.68593e-05
-2.35065e-05
3.97734e-05
-2.64931e-05
4.32286e-05
-2.96557e-05
4.73071e-05
-3.30632e-05
5.20546e-05
-3.66732e-05
5.74586e-05
-4.03424e-05
6.34466e-05
-4.387e-05
6.99024e-05
-4.70534e-05
7.66889e-05
-4.97295e-05
8.36677e-05
-5.1795e-05
9.07131e-05
-5.32061e-05
9.77184e-05
-5.39687e-05
0.000104598
-5.41237e-05
0.000111285
-5.37337e-05
0.000117731
-5.2872e-05
0.000123902
-5.1615e-05
0.000129776
-5.00368e-05
0.000135338
-4.8206e-05
0.000140583
-4.61842e-05
0.00014551
-4.40249e-05
0.000150123
-4.17743e-05
0.000154427
-3.94709e-05
0.000158432
-3.71466e-05
0.000162147
-3.48275e-05
0.000165583
-3.25344e-05
0.000168752
-3.02838e-05
0.000171666
-2.80883e-05
0.000174336
-2.59575e-05
0.000176775
-2.38983e-05
0.000178994
-2.19156e-05
0.000181003
-2.00122e-05
0.000182815
-1.81901e-05
0.00018444
-1.64495e-05
0.000185887
-1.47903e-05
0.000187166
-1.32114e-05
0.000188287
-1.17111e-05
0.000189258
-1.02874e-05
0.000190087
-8.93814e-06
0.000190782
-7.66066e-06
0.000191352
-6.45229e-06
0.000191802
-5.31026e-06
0.000192139
-4.23172e-06
0.000192371
-3.2138e-06
0.000192503
-2.25364e-06
0.000192541
-1.3484e-06
0.000192491
-4.95287e-07
0.000192358
3.08726e-07
0.000192148
1.06672e-06
0.000191864
1.78176e-06
0.000191512
2.45674e-06
0.000191096
3.09434e-06
0.000190622
3.69707e-06
0.000190092
4.26728e-06
0.000189512
4.80717e-06
0.000188887
5.31874e-06
0.000188219
5.80385e-06
0.000187515
6.26417e-06
0.000186778
6.70117e-06
0.000186014
7.11611e-06
0.000185226
7.51007e-06
0.000184419
7.88389e-06
0.000183599
8.23824e-06
0.000182769
8.57353e-06
0.000181935
8.89001e-06
0.0001811
9.18772e-06
0.000180269
9.46655e-06
0.000179446
9.72626e-06
0.000178634
9.9665e-06
0.000177835
1.01869e-05
0.000177053
1.0387e-05
0.000176287
1.05666e-05
0.000175541
1.07254e-05
0.000174812
1.08632e-05
0.000174102
1.09803e-05
0.000173409
1.1077e-05
1.11543e-05
0.000172731
3.03782e-05
-5.60206e-06
3.13388e-05
-1.09218e-05
3.27379e-05
-1.53529e-05
3.45484e-05
-1.92277e-05
3.678e-05
-2.27738e-05
3.94872e-05
-2.62125e-05
4.27695e-05
-2.97739e-05
4.67461e-05
-3.36307e-05
5.15116e-05
-3.78269e-05
5.70933e-05
-4.22531e-05
6.34349e-05
-4.66819e-05
7.04095e-05
-5.08425e-05
7.7851e-05
-5.44926e-05
8.5584e-05
-5.74603e-05
9.34464e-05
-5.96549e-05
0.0001013
-6.1057e-05
0.000109033
-6.16998e-05
0.000116562
-6.16502e-05
0.000123825
-6.09939e-05
0.000130779
-5.98231e-05
0.000137396
-5.82293e-05
0.00014366
-5.62983e-05
0.000149564
-5.41077e-05
0.000155108
-5.17256e-05
0.000160297
-4.92107e-05
0.000165138
-4.66125e-05
0.000169641
-4.39719e-05
0.00017382
-4.13227e-05
0.000177687
-3.86917e-05
0.000181255
-3.61005e-05
0.00018454
-3.35657e-05
0.000187554
-3.10999e-05
0.000190311
-2.87124e-05
0.000192825
-2.64098e-05
0.000195108
-2.41966e-05
0.000197173
-2.20752e-05
0.000199032
-2.00467e-05
0.000200696
-1.81113e-05
0.000202176
-1.62679e-05
0.000203482
-1.4515e-05
0.000204623
-1.28505e-05
0.000205609
-1.12718e-05
0.000206449
-9.77615e-06
0.000207151
-8.36058e-06
0.000207723
-7.02197e-06
0.000208171
-5.75711e-06
0.000208504
-4.5628e-06
0.000208727
-3.43584e-06
0.000208848
-2.37304e-06
0.000208873
-1.37131e-06
0.000208806
-4.27592e-07
0.000208655
4.61465e-07
0.000208423
1.29922e-06
0.000208117
2.08892e-06
0.000207741
2.83359e-06
0.000207301
3.53601e-06
0.0002068
4.19879e-06
0.000206243
4.82435e-06
0.000205636
5.41491e-06
0.000204983
5.97253e-06
0.000204288
6.49907e-06
0.000203557
6.99619e-06
0.000202793
7.46537e-06
0.000202001
7.9079e-06
0.000201186
8.32488e-06