/*--------------------------------*- C++ -*----------------------------------*\
  =========                 |
  \\      /  F ield         | OpenFOAM: The Open Source CFD Toolbox
   \\    /   O peration     | Website:  https://openfoam.org
    \\  /    A nd           | Version:  7
     \\/     M anipulation  |
\*---------------------------------------------------------------------------*/
FoamFile
{
    version     2.0;
    format      ascii;
    class       surfaceScalarField;
    location    "4.5";
    object      phi;
}
// * * * * * * * * * * * * * * * * * * * * * * * * * * * * * * * * * * * * * //

dimensions      [1 0 -1 0 0 0 0];

internalField   nonuniform List<scalar> 
23692
(
1.18246e-05
-1.89723e-07
1.21701e-05
-3.45018e-07
1.26551e-05
-4.84265e-07
1.32638e-05
-6.07674e-07
1.39835e-05
-7.18383e-07
1.48031e-05
-8.17931e-07
1.57119e-05
-9.07004e-07
1.66999e-05
-9.85957e-07
1.77571e-05
-1.05494e-06
1.88736e-05
-1.11403e-06
2.00395e-05
-1.16331e-06
2.12452e-05
-1.20294e-06
2.24812e-05
-1.23316e-06
2.37385e-05
-1.25433e-06
2.50085e-05
-1.26693e-06
2.62831e-05
-1.27151e-06
2.7555e-05
-1.26871e-06
2.88174e-05
-1.25922e-06
3.00644e-05
-1.24377e-06
3.12907e-05
-1.22311e-06
3.24919e-05
-1.19796e-06
3.36641e-05
-1.16904e-06
3.48043e-05
-1.13703e-06
3.591e-05
-1.10257e-06
3.69793e-05
-1.06623e-06
3.80108e-05
-1.02856e-06
3.90038e-05
-9.90027e-07
3.99577e-05
-9.51054e-07
4.08724e-05
-9.12012e-07
4.17483e-05
-8.73216e-07
4.25858e-05
-8.34938e-07
4.33857e-05
-7.97405e-07
4.41489e-05
-7.60802e-07
4.48764e-05
-7.25279e-07
4.55696e-05
-6.9095e-07
4.62295e-05
-6.57904e-07
4.68577e-05
-6.26201e-07
4.74554e-05
-5.95882e-07
4.80241e-05
-5.66963e-07
4.85651e-05
-5.39441e-07
4.90799e-05
-5.13303e-07
4.95698e-05
-4.88519e-07
5.00361e-05
-4.6505e-07
5.04801e-05
-4.42842e-07
5.0903e-05
-4.21832e-07
5.13059e-05
-4.01949e-07
5.16898e-05
-3.83117e-07
5.20558e-05
-3.65249e-07
5.24047e-05
-3.48254e-07
5.27373e-05
-3.3203e-07
5.30542e-05
-3.16472e-07
5.3356e-05
-3.01464e-07
5.36432e-05
-2.86888e-07
5.3916e-05
-2.72613e-07
5.41746e-05
-2.58501e-07
5.4419e-05
-2.44406e-07
5.46492e-05
-2.30167e-07
5.48647e-05
-2.1561e-07
5.50651e-05
-2.00548e-07
5.52497e-05
-1.84771e-07
5.54174e-05
-1.68046e-07
5.55673e-05
-1.50112e-07
5.56976e-05
-1.30667e-07
5.58066e-05
-1.09365e-07
5.5892e-05
-8.57914e-08
5.5951e-05
-5.94538e-08
5.59803e-05
-2.97478e-08
5.59757e-05
4.09697e-09
5.59321e-05
4.31143e-08
5.5843e-05
8.86843e-08
5.56998e-05
1.42685e-07
5.54916e-05
2.07794e-07
5.52031e-05
2.87981e-07
5.48133e-05
3.89361e-07
5.4291e-05
5.21786e-07
5.35887e-05
7.01867e-07
5.26293e-05
9.58981e-07
5.12808e-05
1.34814e-06
4.92972e-05
1.98323e-06
4.61498e-05
3.1471e-06
6.02973e-06
4.01197e-05
1.26477e-05
-3.88027e-07
1.30158e-05
-7.126e-07
1.35338e-05
-1.00146e-06
1.41843e-05
-1.25702e-06
1.49537e-05
-1.48637e-06
1.583e-05
-1.6926e-06
1.68021e-05
-1.87712e-06
1.7859e-05
-2.04068e-06
1.89901e-05
-2.18359e-06
2.01847e-05
-2.30601e-06
2.14323e-05
-2.40811e-06
2.27225e-05
-2.49021e-06
2.40453e-05
-2.55284e-06
2.53908e-05
-2.59672e-06
2.675e-05
-2.62283e-06
2.81142e-05
-2.63233e-06
2.94754e-05
-2.62654e-06
3.08265e-05
-2.60689e-06
3.2161e-05
-2.5749e-06
3.34735e-05
-2.5321e-06
3.4759e-05
-2.48e-06
3.60134e-05
-2.4201e-06
3.72335e-05
-2.35379e-06
3.84167e-05
-2.28239e-06
3.95608e-05
-2.20712e-06
4.06646e-05
-2.12907e-06
4.17269e-05
-2.04924e-06
4.27474e-05
-1.96849e-06
4.37259e-05
-1.8876e-06
4.46628e-05
-1.80722e-06
4.55585e-05
-1.7279e-06
4.64139e-05
-1.65013e-06
4.72299e-05
-1.57427e-06
4.80077e-05
-1.50065e-06
4.87485e-05
-1.42949e-06
4.94538e-05
-1.36099e-06
5.01249e-05
-1.29526e-06
5.07634e-05
-1.23238e-06
5.13707e-05
-1.1724e-06
5.19483e-05
-1.1153e-06
5.24976e-05
-1.06106e-06
5.30202e-05
-1.00962e-06
5.35174e-05
-9.60883e-07
5.39905e-05
-9.14748e-07
5.44409e-05
-8.71084e-07
5.48697e-05
-8.29744e-07
5.52781e-05
-7.90567e-07
5.5667e-05
-7.53374e-07
5.60374e-05
-7.17973e-07
5.63901e-05
-6.84158e-07
5.67258e-05
-6.51709e-07
5.70451e-05
-6.20391e-07
5.73485e-05
-5.89953e-07
5.76362e-05
-5.60131e-07
5.79084e-05
-5.3064e-07
5.81652e-05
-5.01175e-07
5.84065e-05
-4.71411e-07
5.86317e-05
-4.40992e-07
5.88406e-05
-4.09533e-07
5.90322e-05
-3.76608e-07
5.92056e-05
-3.41745e-07
5.93596e-05
-3.04414e-07
5.94926e-05
-2.6401e-07
5.96026e-05
-2.19831e-07
5.96874e-05
-1.71056e-07
5.97442e-05
-1.16702e-07
5.97696e-05
-5.55706e-08
5.97593e-05
1.38613e-08
5.97084e-05
9.35842e-08
5.96103e-05
1.86193e-07
5.94573e-05
2.95186e-07
5.92392e-05
4.25438e-07
5.89427e-05
5.83941e-07
5.85505e-05
7.81039e-07
5.80393e-05
1.03251e-06
5.73776e-05
1.36312e-06
5.65234e-05
1.81274e-06
5.54243e-05
2.44687e-06
5.40295e-05
3.37762e-06
5.23766e-05
4.7996e-06
6.9605e-06
5.14455e-05
1.35269e-05
-5.94073e-07
1.39178e-05
-1.10294e-06
1.44693e-05
-1.55213e-06
1.51633e-05
-1.94976e-06
1.59849e-05
-2.30652e-06
1.69214e-05
-2.62725e-06
1.79606e-05
-2.91422e-06
1.90909e-05
-3.16859e-06
2.03007e-05
-3.39085e-06
2.15787e-05
-3.58125e-06
2.29137e-05
-3.74005e-06
2.42944e-05
-3.86777e-06
2.571e-05
-3.96519e-06
2.71502e-05
-4.03347e-06
2.8605e-05
-4.0741e-06
3.00651e-05
-4.0889e-06
3.15221e-05
-4.07992e-06
3.29683e-05
-4.04939e-06
3.43967e-05
-3.99965e-06
3.58014e-05
-3.9331e-06
3.71772e-05
-3.8521e-06
3.85197e-05
-3.75895e-06
3.98254e-05
-3.65584e-06
4.10914e-05
-3.54481e-06
4.23155e-05
-3.42775e-06
4.34963e-05
-3.30638e-06
4.46326e-05
-3.18223e-06
4.5724e-05
-3.05665e-06
4.67704e-05
-2.93084e-06
4.77721e-05
-2.80581e-06
4.87296e-05
-2.68244e-06
4.96437e-05
-2.56144e-06
5.05156e-05
-2.44342e-06
5.13464e-05
-2.32886e-06
5.21375e-05
-2.21812e-06
5.28904e-05
-2.11149e-06
5.36065e-05
-2.00916e-06
5.42875e-05
-1.91124e-06
5.49349e-05
-1.8178e-06
5.55502e-05
-1.72883e-06
5.61351e-05
-1.64428e-06
5.66912e-05
-1.56404e-06
5.72197e-05
-1.488e-06
5.77223e-05
-1.41597e-06
5.82002e-05
-1.34776e-06
5.86546e-05
-1.28313e-06
5.90868e-05
-1.22183e-06
5.94979e-05
-1.16359e-06
5.98888e-05
-1.10811e-06
6.02603e-05
-1.05507e-06
6.06132e-05
-1.00413e-06
6.09482e-05
-9.54919e-07
6.12656e-05
-9.07056e-07
6.15658e-05
-8.60132e-07
6.1849e-05
-8.1371e-07
6.21152e-05
-7.67324e-07
6.23642e-05
-7.20475e-07
6.25958e-05
-6.72622e-07
6.28092e-05
-6.2318e-07
6.30039e-05
-5.71507e-07
6.31787e-05
-5.16892e-07
6.33325e-05
-4.58543e-07
6.34637e-05
-3.9556e-07
6.35703e-05
-3.26912e-07
6.36502e-05
-2.51397e-07
6.37006e-05
-1.67589e-07
6.37183e-05
-7.37683e-08
6.36994e-05
3.22195e-08
6.36394e-05
1.53106e-07
6.35326e-05
2.92359e-07
6.33727e-05
4.54534e-07
6.31519e-05
6.4574e-07
6.2861e-05
8.7433e-07
6.24896e-05
1.15191e-06
6.20268e-05
1.49481e-06
6.14632e-05
1.92613e-06
6.07972e-05
2.47832e-06
6.00479e-05
3.19576e-06
5.92897e-05
4.13534e-06
5.87362e-05
5.3527e-06
6.82379e-06
5.88725e-05
1.4467e-05
-8.07831e-07
1.48805e-05
-1.51594e-06
1.54665e-05
-2.13718e-06
1.62057e-05
-2.68771e-06
1.70824e-05
-3.1815e-06
1.80824e-05
-3.62535e-06
1.91929e-05
-4.02245e-06
2.04013e-05
-4.37444e-06
2.16952e-05
-4.68202e-06
2.30625e-05
-4.94552e-06
2.4491e-05
-5.16532e-06
2.59687e-05
-5.3421e-06
2.7484e-05
-5.47696e-06
2.90257e-05
-5.5715e-06
3.05831e-05
-5.62779e-06
3.21464e-05
-5.64831e-06
3.37063e-05
-5.63592e-06
3.52546e-05
-5.59371e-06
3.67838e-05
-5.52492e-06
3.82875e-05
-5.43286e-06
3.97602e-05
-5.3208e-06
4.11971e-05
-5.19193e-06
4.25944e-05
-5.04927e-06
4.39491e-05
-4.89565e-06
4.52587e-05
-4.73369e-06
4.65218e-05
-4.56576e-06
4.77371e-05
-4.39397e-06
4.89042e-05
-4.2202e-06
5.00228e-05
-4.0461e-06
5.10934e-05
-3.87308e-06
5.21164e-05
-3.70232e-06
5.30929e-05
-3.53485e-06
5.40238e-05
-3.37147e-06
5.49106e-05
-3.21284e-06
5.57547e-05
-3.05949e-06
5.65575e-05
-2.91179e-06
5.73207e-05
-2.77e-06
5.8046e-05
-2.6343e-06
5.87351e-05
-2.50475e-06
5.93896e-05
-2.38135e-06
6.00111e-05
-2.26401e-06
6.06014e-05
-2.15262e-06
6.1162e-05
-2.04697e-06
6.16942e-05
-1.94684e-06
6.21997e-05
-1.85193e-06
6.26797e-05
-1.76194e-06
6.31354e-05
-1.67651e-06
6.3568e-05
-1.59527e-06
6.39784e-05
-1.5178e-06
6.43677e-05
-1.44366e-06
6.47365e-05
-1.37238e-06
6.50854e-05
-1.30346e-06
6.54151e-05
-1.23638e-06
6.57258e-05
-1.17058e-06
6.60177e-05
-1.10546e-06
6.62908e-05
-1.0404e-06
6.6545e-05
-9.74727e-07
6.678e-05
-9.07708e-07
6.69952e-05
-8.38565e-07
6.71899e-05
-7.66449e-07
6.73631e-05
-6.90426e-07
6.75136e-05
-6.09461e-07
6.76401e-05
-5.22393e-07
6.77406e-05
-4.27905e-07
6.78132e-05
-3.2448e-07
6.78554e-05
-2.10349e-07
6.78645e-05
-8.34073e-08
6.78372e-05
5.89071e-08
6.777e-05
2.19733e-07
6.76589e-05
4.02923e-07
6.74995e-05
6.13337e-07
6.72875e-05
8.57162e-07
6.70189e-05
1.14232e-06
6.66913e-05
1.47897e-06
6.63056e-05
1.87997e-06
6.587e-05
2.3612e-06
6.54066e-05
2.9412e-06
6.49627e-05
3.63913e-06
6.46284e-05
4.46915e-06
6.45545e-05
5.42625e-06
6.45162e-06
6.49262e-05
1.54725e-05
-1.02964e-06
1.59091e-05
-1.95189e-06
1.65306e-05
-2.75774e-06
1.73172e-05
-3.47288e-06
1.82517e-05
-4.11426e-06
1.93191e-05
-4.69068e-06
2.05055e-05
-5.20638e-06
2.17972e-05
-5.66352e-06
2.31812e-05
-6.063e-06
2.46442e-05
-6.40526e-06
2.61731e-05
-6.69079e-06
2.77551e-05
-6.92046e-06
2.93776e-05
-7.09569e-06
3.10286e-05
-7.21856e-06
3.26966e-05
-7.29173e-06
3.43709e-05
-7.31846e-06
3.60416e-05
-7.30243e-06
3.76997e-05
-7.24765e-06
3.93374e-05
-7.15835e-06
4.09476e-05
-7.03883e-06
4.25244e-05
-6.89333e-06
4.40627e-05
-6.72599e-06
4.55583e-05
-6.54075e-06
4.70081e-05
-6.34129e-06
4.84094e-05
-6.13098e-06
4.97605e-05
-5.91292e-06
5.10602e-05
-5.68984e-06
5.2308e-05
-5.46419e-06
5.35036e-05
-5.23809e-06
5.46474e-05
-5.01338e-06
5.57401e-05
-4.7916e-06
5.67826e-05
-4.57404e-06
5.7776e-05
-4.36179e-06
5.87218e-05
-4.15567e-06
5.96216e-05
-3.95637e-06
6.04768e-05
-3.76435e-06
6.12894e-05
-3.57998e-06
6.20609e-05
-3.40345e-06
6.27933e-05
-3.23486e-06
6.34883e-05
-3.0742e-06
6.41476e-05
-2.92136e-06
6.4773e-05
-2.77617e-06
6.5366e-05
-2.63837e-06
6.59284e-05
-2.50766e-06
6.64615e-05
-2.38368e-06
6.69669e-05
-2.26602e-06
6.74457e-05
-2.15422e-06
6.78992e-05
-2.04778e-06
6.83284e-05
-1.94618e-06
6.87343e-05
-1.84885e-06
6.91177e-05
-1.75518e-06
6.94792e-05
-1.66455e-06
6.98195e-05
-1.57627e-06
7.01388e-05
-1.48965e-06
7.04374e-05
-1.40392e-06
7.07153e-05
-1.3183e-06
7.09725e-05
-1.23194e-06
7.12086e-05
-1.14395e-06
7.14232e-05
-1.05336e-06
7.16156e-05
-9.59137e-07
7.1785e-05
-8.6014e-07
7.19303e-05
-7.55138e-07
7.20502e-05
-6.4276e-07
7.21433e-05
-5.21476e-07
7.22079e-05
-3.89556e-07
7.2242e-05
-2.45023e-07
7.22436e-05
-8.55886e-08
7.22104e-05
9.14383e-08
7.21403e-05
2.8921e-07
7.20312e-05
5.11435e-07
7.18814e-05
7.62537e-07
7.16901e-05
1.04777e-06
7.14585e-05
1.37334e-06
7.11905e-05
1.74633e-06
7.08953e-05
2.17456e-06
7.05901e-05
2.66588e-06
7.0304e-05
3.22673e-06
7.00831e-05
3.85948e-06
6.99939e-05
4.55785e-06
7.01201e-05
5.29957e-06
6.03443e-06
7.05369e-05
1.65484e-05
-1.26018e-06
1.70087e-05
-2.41153e-06
1.76674e-05
-3.41534e-06
1.85037e-05
-4.30766e-06
1.94994e-05
-5.10813e-06
2.06385e-05
-5.8275e-06
2.19059e-05
-6.47114e-06
2.3287e-05
-7.04173e-06
2.47676e-05
-7.5404e-06
2.63335e-05
-7.9677e-06
2.79706e-05
-8.32421e-06
2.96651e-05
-8.61101e-06
3.14034e-05
-8.82987e-06
3.31724e-05
-8.98336e-06
3.49598e-05
-9.07479e-06
3.6754e-05
-9.10823e-06
3.85444e-05
-9.08828e-06
4.03212e-05
-9.01994e-06
4.20759e-05
-8.90851e-06
4.3801e-05
-8.75933e-06
4.549e-05
-8.57773e-06
4.71374e-05
-8.36888e-06
4.87388e-05
-8.13768e-06
5.02906e-05
-7.88873e-06
5.17903e-05
-7.62626e-06
5.32357e-05
-7.3541e-06
5.46257e-05
-7.0757e-06
5.59596e-05
-6.79407e-06
5.72373e-05
-6.51188e-06
5.84591e-05
-6.2314e-06
5.96257e-05
-5.95456e-06
6.07382e-05
-5.68297e-06
6.17977e-05
-5.41795e-06
6.28058e-05
-5.16056e-06
6.37641e-05
-4.91162e-06
6.46744e-05
-4.67173e-06
6.55385e-05
-4.4413e-06
6.63583e-05
-4.22061e-06
6.71356e-05
-4.00975e-06
6.78724e-05
-3.80871e-06
6.85705e-05
-3.61735e-06
6.92317e-05
-3.43544e-06
6.98578e-05
-3.26269e-06
7.04505e-05
-3.0987e-06
7.10113e-05
-2.94301e-06
7.15417e-05
-2.79512e-06
7.20432e-05
-2.65446e-06
7.25168e-05
-2.52042e-06
7.29639e-05
-2.39234e-06
7.33853e-05
-2.26953e-06
7.3782e-05
-2.15124e-06
7.41547e-05
-2.03671e-06
7.45039e-05
-1.9251e-06
7.48301e-05
-1.81557e-06
7.51336e-05
-1.70721e-06
7.54144e-05
-1.59907e-06
7.56725e-05
-1.49014e-06
7.59078e-05
-1.37938e-06
7.61199e-05
-1.26566e-06
7.63083e-05
-1.14778e-06
7.64722e-05
-1.02445e-06
7.66109e-05
-8.94288e-07
7.67235e-05
-7.5579e-07
7.68088e-05
-6.07305e-07
7.68657e-05
-4.47016e-07
7.6893e-05
-2.72904e-07
7.68895e-05
-8.27151e-08
7.68542e-05
1.2608e-07
7.67864e-05
3.56282e-07
7.66862e-05
6.11003e-07
7.65544e-05
8.93684e-07
7.63934e-05
1.20804e-06
7.62081e-05
1.55795e-06
7.60067e-05
1.94711e-06
7.5802e-05
2.37862e-06
7.56133e-05
2.85403e-06
7.54673e-05
3.37212e-06
7.53992e-05
3.92698e-06
7.54508e-05
4.50572e-06
7.56641e-05
5.08574e-06
5.63251e-06
7.60656e-05
1.76998e-05
-1.50043e-06
1.81851e-05
-2.89604e-06
1.88829e-05
-4.11204e-06
1.97718e-05
-5.19496e-06
2.08328e-05
-6.16704e-06
2.20485e-05
-7.04074e-06
2.34027e-05
-7.8226e-06
2.488e-05
-8.51583e-06
2.64648e-05
-9.12179e-06
2.81419e-05
-9.64108e-06
2.98962e-05
-1.00744e-05
3.17125e-05
-1.04231e-05
3.35762e-05
-1.06892e-05
3.54732e-05
-1.08758e-05
3.73901e-05
-1.0987e-05
3.93144e-05
-1.10277e-05
4.12345e-05
-1.10035e-05
4.31399e-05
-1.09205e-05
4.50214e-05
-1.0785e-05
4.68707e-05
-1.06037e-05
4.86809e-05
-1.0383e-05
5.04462e-05
-1.01292e-05
5.21616e-05
-9.84827e-06
5.38234e-05
-9.54576e-06
5.54286e-05
-9.22685e-06
5.69753e-05
-8.89619e-06
5.8462e-05
-8.55794e-06
5.9888e-05
-8.21579e-06
6.12533e-05
-7.87295e-06
6.25582e-05
-7.53217e-06
6.38033e-05
-7.1958e-06
6.49899e-05
-6.86578e-06
6.61193e-05
-6.54371e-06
6.71931e-05
-6.23086e-06
6.8213e-05
-5.92821e-06
6.91809e-05
-5.6365e-06
7.00987e-05
-5.35621e-06
7.09686e-05
-5.08766e-06
7.17924e-05
-4.83096e-06
7.25722e-05
-4.5861e-06
7.33101e-05
-4.3529e-06
7.40078e-05
-4.13109e-06
7.46673e-05
-3.92028e-06
7.52904e-05
-3.72001e-06
7.58787e-05
-3.52973e-06
7.64339e-05
-3.34881e-06
7.69573e-05
-3.17658e-06
7.74503e-05
-3.01231e-06
7.79141e-05
-2.8552e-06
7.83498e-05
-2.70443e-06
7.87584e-05
-2.55912e-06
7.91406e-05
-2.41835e-06
7.94971e-05
-2.28116e-06
7.98283e-05
-2.14655e-06
8.01347e-05
-2.01346e-06
8.04165e-05
-1.88081e-06
8.06738e-05
-1.74746e-06
8.09065e-05
-1.6122e-06
8.11144e-05
-1.4738e-06
8.12972e-05
-1.33092e-06
8.14546e-05
-1.1822e-06
8.1586e-05
-1.02615e-06
8.16909e-05
-8.61213e-07
8.17688e-05
-6.8574e-07
8.18191e-05
-4.97955e-07
8.18415e-05
-2.95964e-07
8.18359e-05
-7.77514e-08
8.18025e-05
1.5881e-07
8.17421e-05
4.15904e-07
8.16566e-05
6.9576e-07
8.1549e-05
1.00057e-06
8.1424e-05
1.33236e-06
8.12885e-05
1.69272e-06
8.11524e-05
2.0825e-06
8.1029e-05
2.50131e-06
8.09355e-05
2.94687e-06
8.08928e-05
3.4142e-06
8.09244e-05
3.89478e-06
8.10538e-05
4.37572e-06
8.12996e-05
4.83939e-06
5.26436e-06
8.16672e-05
1.89322e-05
-1.75163e-06
1.94441e-05
-3.40714e-06
2.01838e-05
-4.85048e-06
2.1129e-05
-6.1384e-06
2.22598e-05
-7.29564e-06
2.35578e-05
-8.33617e-06
2.50058e-05
-9.2676e-06
2.65871e-05
-1.00937e-05
2.82849e-05
-1.08159e-05
3.00828e-05
-1.14349e-05
3.19643e-05
-1.19517e-05
3.39132e-05
-1.23674e-05
3.59136e-05
-1.26848e-05
3.79501e-05
-1.29074e-05
4.00081e-05
-1.304e-05
4.20741e-05
-1.30885e-05
4.41354e-05
-1.30596e-05
4.61807e-05
-1.29605e-05
4.81999e-05
-1.27989e-05
5.01841e-05
-1.25826e-05
5.21258e-05
-1.23194e-05
5.40185e-05
-1.20167e-05
5.58572e-05
-1.16817e-05
5.76376e-05
-1.1321e-05
5.93566e-05
-1.09409e-05
6.10121e-05
-1.05467e-05
6.26025e-05
-1.01436e-05
6.41272e-05
-9.73579e-06
6.5586e-05
-9.32721e-06
6.69793e-05
-8.92109e-06
6.8308e-05
-8.52021e-06
6.95732e-05
-8.12688e-06
7.07763e-05
-7.74299e-06
7.19192e-05
-7.37003e-06
7.30037e-05
-7.00917e-06
7.40319e-05
-6.66126e-06
7.50058e-05
-6.32689e-06
7.59275e-05
-6.00641e-06
7.67993e-05
-5.69995e-06
7.76233e-05
-5.40747e-06
7.84017e-05
-5.12878e-06
7.91364e-05
-4.86354e-06
7.98294e-05
-4.61129e-06
8.04828e-05
-4.37146e-06
8.10982e-05
-4.14342e-06
8.16774e-05
-3.92642e-06
8.22218e-05
-3.71968e-06
8.2733e-05
-3.52232e-06
8.32123e-05
-3.33343e-06
8.36608e-05
-3.15205e-06
8.40796e-05
-2.97716e-06
8.44695e-05
-2.8077e-06
8.48314e-05
-2.64257e-06
8.51658e-05
-2.48063e-06
8.54732e-05
-2.32072e-06
8.57541e-05
-2.1616e-06
8.60086e-05
-2.00202e-06
8.62369e-05
-1.84068e-06
8.64391e-05
-1.67625e-06
8.66152e-05
-1.50732e-06
8.67651e-05
-1.33248e-06
8.68887e-05
-1.15025e-06
8.6986e-05
-9.59091e-07
8.70571e-05
-7.57452e-07
8.71022e-05
-5.43726e-07
8.71219e-05
-3.16285e-07
8.71169e-05
-7.35012e-08
8.70888e-05
1.86196e-07
8.70397e-05
4.64245e-07
8.69727e-05
7.61907e-07
8.68924e-05
1.08014e-06
8.68045e-05
1.41945e-06
8.67168e-05
1.77964e-06
8.6639e-05
2.15957e-06
8.65828e-05
2.55681e-06
8.65616e-05
2.96728e-06
8.65902e-05
3.38497e-06
8.66827e-05
3.80161e-06
8.68511e-05
4.20673e-06
8.71018e-05
4.58807e-06
4.93295e-06
8.74326e-05
2.02514e-05
-2.01528e-06
2.07921e-05
-3.94702e-06
2.1577e-05
-5.63399e-06
2.25828e-05
-7.14239e-06
2.37891e-05
-8.49954e-06
2.51764e-05
-9.7206e-06
2.67262e-05
-1.08141e-05
2.84205e-05
-1.17843e-05
3.02415e-05
-1.26328e-05
3.21713e-05
-1.33604e-05
3.4192e-05
-1.39677e-05
3.6286e-05
-1.44565e-05
3.8436e-05
-1.48296e-05
4.06252e-05
-1.50913e-05
4.28378e-05
-1.52471e-05
4.50588e-05
-1.5304e-05
4.72746e-05
-1.52697e-05
4.94727e-05
-1.51529e-05
5.16422e-05
-1.49626e-05
5.37734e-05
-1.4708e-05
5.5858e-05
-1.43983e-05
5.78893e-05
-1.40422e-05
5.98614e-05
-1.36483e-05
6.17701e-05
-1.32242e-05
6.3612e-05
-1.27773e-05
6.53846e-05
-1.2314e-05
6.70865e-05
-1.18402e-05
6.87168e-05
-1.13611e-05
7.02756e-05
-1.0881e-05
7.17631e-05
-1.04039e-05
7.31805e-05
-9.93295e-06
7.45288e-05
-9.47086e-06
7.58099e-05
-9.01982e-06
7.70255e-05
-8.58159e-06
7.81777e-05
-8.15751e-06
7.92686e-05
-7.74858e-06
8.03006e-05
-7.35545e-06
8.1276e-05
-6.97853e-06
8.2197e-05
-6.61796e-06
8.30661e-05
-6.2737e-06
8.38855e-05
-5.9455e-06
8.46573e-05
-5.63296e-06
8.53838e-05
-5.33553e-06
8.6067e-05
-5.05258e-06
8.67087e-05
-4.78333e-06
8.73109e-05
-4.52694e-06
8.78752e-05
-4.28249e-06
8.84032e-05
-4.04899e-06
8.88963e-05
-3.82538e-06
8.93558e-05
-3.61057e-06
8.97828e-05
-3.4034e-06
9.01784e-05
-3.20269e-06
9.05435e-05
-3.00721e-06
9.08789e-05
-2.8157e-06
9.11853e-05
-2.62687e-06
9.14632e-05
-2.43939e-06
9.1713e-05
-2.25192e-06
9.19353e-05
-2.06309e-06
9.21303e-05
-1.87152e-06
9.22984e-05
-1.67579e-06
9.244e-05
-1.47449e-06
9.25554e-05
-1.26621e-06
9.26453e-05
-1.04953e-06
9.27102e-05
-8.23071e-07
9.27513e-05
-5.85487e-07
9.27698e-05
-3.35506e-07
9.27675e-05
-7.19693e-08
9.27468e-05
2.06092e-07
9.27108e-05
4.99377e-07
9.26636e-05
8.08264e-07
9.26103e-05
1.13269e-06
9.25569e-05
1.47202e-06
9.25108e-05
1.82489e-06
9.24805e-05
2.18905e-06
9.24753e-05
2.5612e-06
9.25049e-05
2.9369e-06
9.25787e-05
3.31046e-06
9.27045e-05
3.67509e-06
9.28875e-05
4.02309e-06
9.31285e-05
4.34639e-06
4.63776e-06
9.34231e-05
2.16634e-05
-2.2931e-06
2.22357e-05
-4.51847e-06
2.30699e-05
-6.46663e-06
2.41418e-05
-8.21231e-06
2.54303e-05
-9.78545e-06
2.69149e-05
-1.12021e-05
2.8576e-05
-1.24716e-05
3.03942e-05
-1.35986e-05
3.23503e-05
-1.45846e-05
3.44251e-05
-1.54303e-05
3.65989e-05
-1.61365e-05
3.88527e-05
-1.67049e-05
4.11674e-05
-1.71388e-05
4.35248e-05
-1.74429e-05
4.59074e-05
-1.76238e-05
4.82989e-05
-1.76894e-05
5.06844e-05
-1.7649e-05
5.30502e-05
-1.75125e-05
5.53843e-05
-1.72904e-05
5.76761e-05
-1.69937e-05
5.99168e-05
-1.66328e-05
6.20989e-05
-1.62181e-05
6.42161e-05
-1.57594e-05
6.62639e-05
-1.52659e-05
6.82385e-05
-1.4746e-05
7.01374e-05
-1.42072e-05
7.19591e-05
-1.36563e-05
7.37027e-05
-1.30992e-05
7.53682e-05
-1.25412e-05
7.69562e-05
-1.19867e-05
7.84676e-05
-1.14394e-05
7.9904e-05
-1.09025e-05
8.1267e-05
-1.03783e-05
8.25589e-05
-9.86906e-06
8.37817e-05
-9.3762e-06
8.49379e-05
-8.90085e-06
8.603e-05
-8.44379e-06
8.70604e-05
-8.00545e-06
8.80317e-05
-7.586e-06
8.89464e-05
-7.18535e-06
8.9807e-05
-6.80322e-06
9.06158e-05
-6.43914e-06
9.13752e-05
-6.09249e-06
9.20874e-05
-5.7625e-06
9.27544e-05
-5.44832e-06
9.33782e-05
-5.14896e-06
9.39607e-05
-4.86338e-06
9.45035e-05
-4.59046e-06
9.50084e-05
-4.32901e-06
9.54766e-05
-4.0778e-06
9.59096e-05
-3.83556e-06
9.63086e-05
-3.60097e-06
9.66746e-05
-3.37269e-06
9.70086e-05
-3.14935e-06
9.73116e-05
-2.92957e-06
9.75842e-05
-2.71195e-06
9.78273e-05
-2.49508e-06
9.80416e-05
-2.27757e-06
9.82278e-05
-2.05801e-06
9.83867e-05
-1.83503e-06
9.8519e-05
-1.6073e-06
9.86258e-05
-1.37349e-06
9.8708e-05
-1.13238e-06
9.87671e-05
-8.82823e-07
9.88046e-05
-6.2377e-07
9.88227e-05
-3.54342e-07
9.88237e-05
-7.38535e-08
9.88108e-05
2.18111e-07
9.87877e-05
5.21626e-07
9.87587e-05
8.36377e-07
9.87289e-05
1.16159e-06
9.87041e-05
1.49592e-06
9.86907e-05
1.83742e-06
9.86955e-05
2.18343e-06
9.87252e-05
2.53058e-06
9.87865e-05
2.8748e-06
9.88848e-05
3.21138e-06
9.90239e-05
3.53517e-06
9.92055e-05
3.84082e-06
9.94279e-05
4.12326e-06
4.37848e-06
9.96865e-05
2.31749e-05
-2.58704e-06
2.37822e-05
-5.12488e-06
2.46706e-05
-7.35334e-06
2.58151e-05
-9.35463e-06
2.71939e-05
-1.11614e-05
2.87854e-05
-1.27903e-05
3.0569e-05
-1.42513e-05
3.25239e-05
-1.55491e-05
3.46293e-05
-1.66853e-05
3.68643e-05
-1.76601e-05
3.92077e-05
-1.84744e-05
4.16384e-05
-1.91298e-05
4.41356e-05
-1.96299e-05
4.66792e-05
-1.99802e-05
4.92501e-05
-2.01881e-05
5.18301e-05
-2.02629e-05
5.44028e-05
-2.0215e-05
5.69534e-05
-2.00563e-05
5.94685e-05
-1.97988e-05
6.19367e-05
-1.94551e-05
6.43482e-05
-1.90375e-05
6.66948e-05
-1.85581e-05
6.89701e-05
-1.80281e-05
7.11688e-05
-1.74581e-05
7.3287e-05
-1.68579e-05
7.53222e-05
-1.62361e-05
7.72727e-05
-1.56006e-05
7.91377e-05
-1.49583e-05
8.09172e-05
-1.4315e-05
8.26119e-05
-1.36759e-05
8.4223e-05
-1.30452e-05
8.57521e-05
-1.24264e-05
8.72013e-05
-1.18226e-05
8.85728e-05
-1.12358e-05
8.98691e-05
-1.0668e-05
9.10928e-05
-1.01203e-05
9.22465e-05
-9.59352e-06
9.33331e-05
-9.08825e-06
9.43553e-05
-8.60463e-06
9.53158e-05
-8.14254e-06
9.62174e-05
-7.70165e-06
9.70625e-05
-7.28141e-06
9.78537e-05
-6.8811e-06
9.85935e-05
-6.49986e-06
9.9284e-05
-6.1367e-06
9.99275e-05
-5.79053e-06
0.000100526
-5.46017e-06
0.000101081
-5.14435e-06
0.000101596
-4.84178e-06
0.00010207
-4.5511e-06
0.000102506
-4.27089e-06
0.000102906
-3.99975e-06
0.00010327
-3.73622e-06
0.0001036
-3.47885e-06
0.000103897
-3.22618e-06
0.000104162
-2.97677e-06
0.000104396
-2.72918e-06
0.0001046
-2.482e-06
0.000104776
-2.23389e-06
0.000104924
-1.98351e-06
0.000105045
-1.72965e-06
0.000105143
-1.47114e-06
0.000105216
-1.20695e-06
0.000105269
-9.36185e-07
0.000105303
-6.58118e-07
0.00010532
-3.72227e-07
0.000105323
-7.82372e-08
0.000105317
2.23827e-07
0.000105304
5.33585e-07
0.000105289
8.50276e-07
0.000105277
1.17271e-06
0.000105272
1.49926e-06
0.000105281
1.8278e-06
0.000105308
2.15574e-06
0.000105357
2.48009e-06
0.000105434
2.79745e-06
0.00010554
3.10423e-06
0.000105678
3.39672e-06
0.000105846
3.67137e-06
0.000106044
3.92506e-06
4.15571e-06
0.000106266
2.47928e-05
-2.89936e-06
2.54393e-05
-5.77033e-06
2.63877e-05
-8.30003e-06
2.76127e-05
-1.05771e-05
2.90913e-05
-1.2637e-05
3.08015e-05
-1.44968e-05
3.27209e-05
-1.61666e-05
3.48277e-05
-1.76511e-05
3.70992e-05
-1.89516e-05
3.95128e-05
-2.0068e-05
4.20451e-05
-2.10008e-05
4.46731e-05
-2.17515e-05
4.73738e-05
-2.2324e-05
5.01249e-05
-2.27245e-05
5.29051e-05
-2.29613e-05
5.56946e-05
-2.30452e-05
5.84751e-05
-2.29882e-05
6.123e-05
-2.28038e-05
6.39449e-05
-2.25062e-05
6.66071e-05
-2.21099e-05
6.9206e-05
-2.1629e-05
7.17327e-05
-2.10775e-05
7.41802e-05
-2.04683e-05
7.65428e-05
-1.98136e-05
7.88166e-05
-1.91247e-05
8.09988e-05
-1.84114e-05
8.30876e-05
-1.76828e-05
8.50824e-05
-1.69466e-05
8.69834e-05
-1.62097e-05
8.87913e-05
-1.54777e-05
9.05077e-05
-1.47557e-05
9.21343e-05
-1.40475e-05
9.36735e-05
-1.33564e-05
9.51278e-05
-1.2685e-05
9.64999e-05
-1.20352e-05
9.77927e-05
-1.14085e-05
9.90093e-05
-1.08057e-05
0.000100153
-1.02274e-05
0.000101226
-9.67385e-06
0.000102232
-9.14479e-06
0.000103173
-8.63985e-06
0.000104053
-8.15842e-06
0.000104875
-7.69966e-06
0.00010564
-7.26262e-06
0.000106352
-6.84616e-06
0.000107012
-6.44907e-06
0.000107624
-6.07005e-06
0.000108189
-5.70771e-06
0.00010871
-5.3606e-06
0.000109187
-5.02725e-06
0.000109623
-4.70615e-06
0.00011002
-4.39577e-06
0.000110379
-4.09458e-06
0.000110702
-3.80105e-06
0.000110989
-3.51367e-06
0.000111244
-3.23097e-06
0.000111466
-2.95151e-06
0.000111658
-2.67392e-06
0.00011182
-2.39689e-06
0.000111956
-2.1192e-06
0.000112065
-1.83973e-06
0.000112151
-1.5575e-06
0.000112215
-1.27167e-06
0.00011226
-9.81594e-07
0.000112288
-6.86803e-07
0.000112301
-3.87075e-07
0.000112305
-8.24421e-08
0.000112301
2.26776e-07
0.000112293
5.39936e-07
0.000112287
8.56054e-07
0.000112285
1.17381e-06
0.000112291
1.49154e-06
0.000112311
1.80727e-06
0.000112347
2.11876e-06
0.000112402
2.42352e-06
0.00011248
2.71895e-06
0.000112581
3.00242e-06
0.000112705
3.27139e-06
0.000112852
3.52358e-06
0.000113019
3.75713e-06
3.97108e-06
0.000113203
2.65247e-05
-3.2326e-06
2.72152e-05
-6.45972e-06
2.82309e-05
-9.31377e-06
2.95456e-05
-1.18891e-05
3.11358e-05
-1.42239e-05
3.29783e-05
-1.63353e-05
3.50497e-05
-1.82334e-05
3.73265e-05
-1.99227e-05
3.97843e-05
-2.14037e-05
4.23983e-05
-2.26758e-05
4.51429e-05
-2.37388e-05
4.79925e-05
-2.45941e-05
5.09215e-05
-2.52458e-05
5.39052e-05
-2.57006e-05
5.69198e-05
-2.59682e-05
5.99431e-05
-2.60606e-05
6.29548e-05
-2.59919e-05
6.59368e-05
-2.57777e-05
6.88728e-05
-2.54342e-05
7.17491e-05
-2.49781e-05
7.45539e-05
-2.44258e-05
7.72778e-05
-2.37933e-05
7.9913e-05
-2.30956e-05
8.24537e-05
-2.23466e-05
8.48957e-05
-2.1559e-05
8.72361e-05
-2.07443e-05
8.94732e-05
-1.99126e-05
9.16065e-05
-1.90729e-05
9.36364e-05
-1.82327e-05
9.55639e-05
-1.73987e-05
9.73908e-05
-1.65762e-05
9.91192e-05
-1.57698e-05
0.000100752
-1.49831e-05
0.000102291
-1.4219e-05
0.000103741
-1.34796e-05
0.000105104
-1.27665e-05
0.000106384
-1.20807e-05
0.000107584
-1.14228e-05
0.000108707
-1.07928e-05
0.000109757
-1.01908e-05
0.000110737
-9.61604e-06
0.00011165
-9.06797e-06
0.000112499
-8.54562e-06
0.000113287
-8.04788e-06
0.000114017
-7.57353e-06
0.000114691
-7.12121e-06
0.000115313
-6.68947e-06
0.000115884
-6.2768e-06
0.000116406
-5.88164e-06
0.000116883
-5.50239e-06
0.000117315
-5.13743e-06
0.000117705
-4.78515e-06
0.000118055
-4.44394e-06
0.000118367
-4.11221e-06
0.000118642
-3.78844e-06
0.000118882
-3.47112e-06
0.00011909
-3.15884e-06
0.000119266
-2.85026e-06
0.000119413
-2.54414e-06
0.000119533
-2.23936e-06
0.000119627
-1.93492e-06
0.000119699
-1.62999e-06
0.000119751
-1.32392e-06
0.000119784
-1.01623e-06
0.000119803
-7.06665e-07
0.000119811
-3.95205e-07
0.000119809
-8.20704e-08
0.000119803
2.32277e-07
0.000119795
5.47097e-07
0.000119788
8.61375e-07
0.000119787
1.17385e-06
0.000119794
1.48302e-06
0.000119813
1.78723e-06
0.000119846
2.08464e-06
0.000119896
2.37336e-06
0.000119962
2.65149e-06
0.000120046
2.9172e-06
0.000120148
3.1688e-06
0.000120266
3.4049e-06
0.000120397
3.62442e-06
3.82709e-06
0.00012054
2.83786e-05
-3.58972e-06
2.9119e-05
-7.1989e-06
3.02105e-05
-1.04031e-05
3.16261e-05
-1.33019e-05
3.33419e-05
-1.59359e-05
3.53335e-05
-1.83225e-05
3.75764e-05
-2.04712e-05
4.00452e-05
-2.23858e-05
4.27136e-05
-2.40659e-05
4.55544e-05
-2.55098e-05
4.85392e-05
-2.67163e-05
5.16394e-05
-2.76866e-05
5.48264e-05
-2.84248e-05
5.80724e-05
-2.89382e-05
6.13506e-05
-2.92379e-05
6.46362e-05
-2.93375e-05
6.79066e-05
-2.92534e-05
7.11413e-05
-2.90035e-05
7.43226e-05
-2.86065e-05
7.74353e-05
-2.80818e-05
8.04666e-05
-2.74483e-05
8.34063e-05
-2.67242e-05
8.62461e-05
-2.59267e-05
8.89799e-05
-2.50718e-05
9.16033e-05
-2.4174e-05
9.41134e-05
-2.32463e-05
9.65088e-05
-2.23001e-05
9.87892e-05
-2.13455e-05
0.000100955
-2.03912e-05
0.000103008
-1.94444e-05
0.00010495
-1.85113e-05
0.000106784
-1.75969e-05
0.000108513
-1.67052e-05
0.000110139
-1.58395e-05
0.000111667
-1.50019e-05
0.000113101
-1.41943e-05
0.000114443
-1.34178e-05
0.000115698
-1.26729e-05
0.000116869
-1.19597e-05
0.000117961
-1.1278e-05
0.000118976
-1.06273e-05
0.000119919
-1.00068e-05
0.000120792
-9.41533e-06
0.000121599
-8.85174e-06
0.000122343
-8.31464e-06
0.000123027
-7.80255e-06
0.000123653
-7.31388e-06
0.000124225
-6.84699e-06
0.000124746
-6.40019e-06
0.000125217
-5.97177e-06
0.00012564
-5.56002e-06
0.00012602
-5.16324e-06
0.000126356
-4.77975e-06
0.000126652
-4.40793e-06
0.000126911
-4.04621e-06
0.000127133
-3.6931e-06
0.000127321
-3.34719e-06
0.000127478
-3.00719e-06
0.000127605
-2.67192e-06
0.000127706
-2.34035e-06
0.000127782
-2.01158e-06
0.000127836
-1.68491e-06
0.000127871
-1.35978e-06
0.00012789
-1.03587e-06
0.000127896
-7.13043e-07
0.000127891
-3.91364e-07
0.000127879
-7.11301e-08
0.000127863
2.47185e-07
0.000127846
5.62874e-07
0.000127831
8.75027e-07
0.000127821
1.18256e-06
0.000127819
1.48426e-06
0.000127826
1.7788e-06
0.000127845
2.06482e-06
0.000127876
2.34094e-06
0.000127921
2.60585e-06
0.000127978
2.85834e-06
0.000128049
3.09735e-06
0.000128131
3.32205e-06
0.000128222
3.53191e-06
3.72703e-06
0.000128321
3.03632e-05
-3.97421e-06
3.11605e-05
-7.99488e-06
3.2338e-05
-1.15782e-05
3.38683e-05
-1.48289e-05
3.57265e-05
-1.77901e-05
3.78876e-05
-2.04787e-05
4.03256e-05
-2.29036e-05
4.30133e-05
-2.50671e-05
4.5922e-05
-2.69677e-05
4.90216e-05
-2.86018e-05
5.22805e-05
-2.99672e-05
5.56663e-05
-3.1064e-05
5.91467e-05
-3.18963e-05
6.26901e-05
-3.24725e-05
6.62662e-05
-3.28047e-05
6.98472e-05
-3.29089e-05
7.34073e-05
-3.28039e-05
7.69241e-05
-3.25104e-05
8.03777e-05
-3.20503e-05
8.37515e-05
-3.14458e-05
8.70316e-05
-3.07187e-05
9.02071e-05
-2.98899e-05
9.32691e-05
-2.89792e-05
9.62114e-05
-2.80048e-05
9.90296e-05
-2.6983e-05
0.000101721
-2.59286e-05
0.000104284
-2.48546e-05
0.00010672
-2.37723e-05
0.000109028
-2.26913e-05
0.000111211
-2.16198e-05
0.000113272
-2.05645e-05
0.000115214
-1.95311e-05
0.00011704
-1.8524e-05
0.000118754
-1.75466e-05
0.00012036
-1.66015e-05
0.000121862
-1.56905e-05
0.000123265
-1.48148e-05
0.000124572
-1.39749e-05
0.000125788
-1.3171e-05
0.000126918
-1.24027e-05
0.000127964
-1.16695e-05
0.000128932
-1.09702e-05
0.000129824
-1.03038e-05
0.000130645
-9.66896e-06
0.000131397
-9.06407e-06
0.000132085
-8.48753e-06
0.000132711
-7.93761e-06
0.000133279
-7.41253e-06
0.000133791
-6.91049e-06
0.000134251
-6.42967e-06
0.00013466
-5.96825e-06
0.000135023
-5.52446e-06
0.00013534
-5.09655e-06
0.000135616
-4.68286e-06
0.000135852
-4.28179e-06
0.000136051
-3.89184e-06
0.000136215
-3.51162e-06