/*--------------------------------*- C++ -*----------------------------------*\
  =========                 |
  \\      /  F ield         | OpenFOAM: The Open Source CFD Toolbox
   \\    /   O peration     | Website:  https://openfoam.org
    \\  /    A nd           | Version:  7
     \\/     M anipulation  |
\*---------------------------------------------------------------------------*/
FoamFile
{
    version     2.0;
    format      ascii;
    class       volVectorField;
    location    "4.5";
    object      U;
}
// * * * * * * * * * * * * * * * * * * * * * * * * * * * * * * * * * * * * * //

dimensions      [0 1 -1 0 0 0 0];

internalField   nonuniform List<vector> 
12013
(
(0.100549 -0.000153132 0)
(0.102805 -0.000284824 0)
(0.106477 -0.000408117 0)
(0.111247 -0.000522838 0)
(0.117025 -0.000631081 0)
(0.123715 -0.000733636 0)
(0.131225 -0.000830625 0)
(0.139465 -0.000921889 0)
(0.148352 -0.00100708 0)
(0.157798 -0.00108577 0)
(0.167721 -0.00115753 0)
(0.178035 -0.00122197 0)
(0.188659 -0.00127881 0)
(0.199512 -0.00132787 0)
(0.210519 -0.00136911 0)
(0.221606 -0.00140261 0)
(0.232708 -0.00142856 0)
(0.243763 -0.00144726 0)
(0.254717 -0.00145909 0)
(0.265519 -0.00146451 0)
(0.276129 -0.00146403 0)
(0.286511 -0.00145817 0)
(0.296634 -0.0014475 0)
(0.306474 -0.00143255 0)
(0.316014 -0.00141389 0)
(0.325238 -0.00139203 0)
(0.334137 -0.00136746 0)
(0.342707 -0.00134069 0)
(0.350945 -0.00131214 0)
(0.358852 -0.0012822 0)
(0.366432 -0.00125127 0)
(0.373692 -0.00121969 0)
(0.380639 -0.00118772 0)
(0.387284 -0.00115565 0)
(0.393635 -0.00112374 0)
(0.399707 -0.00109218 0)
(0.405511 -0.00106112 0)
(0.411061 -0.00103071 0)
(0.416371 -0.00100111 0)
(0.421454 -0.000972424 0)
(0.426325 -0.000944686 0)
(0.430998 -0.000917933 0)
(0.435487 -0.00089221 0)
(0.439805 -0.000867546 0)
(0.443967 -0.000843925 0)
(0.447987 -0.00082129 0)
(0.451876 -0.000799564 0)
(0.455648 -0.000778656 0)
(0.459314 -0.000758458 0)
(0.462888 -0.000738836 0)
(0.466378 -0.000719619 0)
(0.469797 -0.000700597 0)
(0.473155 -0.000681521 0)
(0.47646 -0.0006621 0)
(0.479721 -0.000641995 0)
(0.482946 -0.000620816 0)
(0.486143 -0.000598106 0)
(0.489317 -0.000573333 0)
(0.492473 -0.000545871 0)
(0.495616 -0.000514982 0)
(0.498748 -0.000479793 0)
(0.501871 -0.000439263 0)
(0.504984 -0.000392147 0)
(0.508085 -0.000336935 0)
(0.511167 -0.000271778 0)
(0.514224 -0.000194384 0)
(0.517243 -0.000101874 0)
(0.520206 9.47873e-06 0)
(0.523089 0.000144769 0)
(0.525857 0.000310934 0)
(0.528463 0.000517575 0)
(0.530838 0.000778525 0)
(0.532886 0.00111453 0)
(0.534465 0.00155807 0)
(0.535357 0.00216253 0)
(0.535226 0.00302034 0)
(0.533515 0.00430121 0)
(0.529251 0.0063426 0)
(0.520685 0.00994367 0)
(0.504785 0.0179271 0)
(0.488282 0.0489659 0)
(0.100508 -0.000467546 0)
(0.102758 -0.000872832 0)
(0.106418 -0.00125083 0)
(0.11118 -0.00160204 0)
(0.116952 -0.00193321 0)
(0.123638 -0.00224677 0)
(0.131143 -0.00254312 0)
(0.139381 -0.00282183 0)
(0.148265 -0.00308186 0)
(0.157711 -0.00332193 0)
(0.167633 -0.00354075 0)
(0.177948 -0.00373719 0)
(0.188573 -0.0039104 0)
(0.199428 -0.00405988 0)
(0.210436 -0.00418549 0)
(0.221525 -0.0042875 0)
(0.23263 -0.0043665 0)
(0.243687 -0.00442343 0)
(0.254642 -0.00445945 0)
(0.265447 -0.00447595 0)
(0.276058 -0.00447447 0)
(0.286441 -0.00445664 0)
(0.296565 -0.00442413 0)
(0.306406 -0.00437861 0)
(0.315945 -0.00432176 0)
(0.325169 -0.00425516 0)
(0.334067 -0.00418034 0)
(0.342635 -0.00409873 0)
(0.350871 -0.0040117 0)
(0.358775 -0.00392045 0)
(0.366352 -0.00382612 0)
(0.373608 -0.00372974 0)
(0.380551 -0.00363221 0)
(0.387189 -0.00353437 0)
(0.393535 -0.00343691 0)
(0.3996 -0.00334046 0)
(0.405396 -0.00324556 0)
(0.410937 -0.00315269 0)
(0.416237 -0.00306219 0)
(0.42131 -0.00297434 0)
(0.426169 -0.00288936 0)
(0.430829 -0.00280742 0)
(0.435303 -0.00272865 0)
(0.439606 -0.00265305 0)
(0.443751 -0.00258052 0)
(0.447752 -0.00251092 0)
(0.451621 -0.00244405 0)
(0.455371 -0.00237967 0)
(0.459014 -0.00231743 0)
(0.462561 -0.0022569 0)
(0.466024 -0.00219752 0)
(0.469413 -0.00213867 0)
(0.472738 -0.00207957 0)
(0.476008 -0.00201935 0)
(0.479232 -0.00195698 0)
(0.482417 -0.00189127 0)
(0.48557 -0.00182081 0)
(0.488698 -0.00174399 0)
(0.491805 -0.00165887 0)
(0.494896 -0.00156321 0)
(0.497973 -0.00145435 0)
(0.501038 -0.00132914 0)
(0.50409 -0.0011838 0)
(0.507127 -0.00101376 0)
(0.510144 -0.000813428 0)
(0.513134 -0.000575882 0)
(0.516086 -0.000292435 0)
(0.518984 4.81589e-05 0)
(0.521805 0.000460926 0)
(0.524519 0.000965993 0)
(0.527084 0.00159104 0)
(0.529445 0.0023754 0)
(0.531522 0.00337692 0)
(0.533206 0.00468381 0)
(0.534344 0.00643599 0)
(0.534721 0.00886453 0)
(0.534032 0.0123669 0)
(0.531854 0.0176555 0)
(0.527645 0.0260803 0)
(0.521334 0.0402498 0)
(0.520434 0.0648426 0)
(0.100467 -0.00079549 0)
(0.102697 -0.00149838 0)
(0.106334 -0.00214979 0)
(0.111079 -0.00275479 0)
(0.116837 -0.00332514 0)
(0.123511 -0.00386508 0)
(0.131008 -0.00437534 0)
(0.13924 -0.00485518 0)
(0.14812 -0.00530285 0)
(0.157563 -0.00571615 0)
(0.167484 -0.00609286 0)
(0.1778 -0.00643104 0)
(0.188426 -0.00672923 0)
(0.199283 -0.00698655 0)
(0.210294 -0.00720279 0)
(0.221387 -0.00737839 0)
(0.232494 -0.00751438 0)
(0.243555 -0.00761236 0)
(0.254513 -0.00767434 0)
(0.265321 -0.00770272 0)
(0.275935 -0.00770012 0)
(0.286319 -0.00766936 0)
(0.296444 -0.00761331 0)
(0.306286 -0.00753486 0)
(0.315824 -0.00743687 0)
(0.325046 -0.00732208 0)
(0.333942 -0.00719313 0)
(0.342507 -0.00705247 0)
(0.350738 -0.00690242 0)
(0.358637 -0.0067451 0)
(0.366207 -0.00658243 0)
(0.373455 -0.00641619 0)
(0.380388 -0.00624794 0)
(0.387017 -0.00607909 0)
(0.39335 -0.00591084 0)
(0.399402 -0.00574429 0)
(0.405184 -0.00558036 0)
(0.410709 -0.00541983 0)
(0.415991 -0.00526328 0)
(0.421043 -0.00511122 0)
(0.425881 -0.00496407 0)
(0.430517 -0.0048221 0)
(0.434966 -0.00468541 0)
(0.439241 -0.00455399 0)
(0.443356 -0.00442771 0)
(0.447324 -0.00430638 0)
(0.451157 -0.00418967 0)
(0.454868 -0.00407711 0)
(0.458469 -0.00396808 0)
(0.461971 -0.00386178 0)
(0.465386 -0.0037573 0)
(0.468722 -0.00365351 0)
(0.471991 -0.00354913 0)
(0.475201 -0.00344265 0)
(0.47836 -0.00333232 0)
(0.481476 -0.00321606 0)
(0.484555 -0.00309148 0)
(0.487605 -0.00295579 0)
(0.490629 -0.00280575 0)
(0.493632 -0.00263752 0)
(0.496617 -0.00244666 0)
(0.499585 -0.00222784 0)
(0.502536 -0.00197476 0)
(0.505469 -0.00167979 0)
(0.50838 -0.00133368 0)
(0.511263 -0.000925015 0)
(0.514108 -0.000439556 0)
(0.516904 0.00014097 0)
(0.519631 0.000840449 0)
(0.522268 0.00169022 0)
(0.524785 0.00273256 0)
(0.527142 0.00402591 0)
(0.529291 0.00565311 0)
(0.531173 0.00773451 0)
(0.53272 0.0104493 0)
(0.533867 0.0140699 0)
(0.534581 0.0190176 0)
(0.534935 0.0259485 0)
(0.535287 0.0358895 0)
(0.536733 0.0503498 0)
(0.543017 0.07052 0)
(0.100428 -0.00113482 0)
(0.102629 -0.00216102 0)
(0.106232 -0.00310581 0)
(0.110952 -0.00398376 0)
(0.116689 -0.00481118 0)
(0.123348 -0.00559433 0)
(0.130833 -0.00633437 0)
(0.139055 -0.00703029 0)
(0.14793 -0.00767955 0)
(0.15737 -0.00827897 0)
(0.16729 -0.00882532 0)
(0.177607 -0.00931579 0)
(0.188236 -0.00974824 0)
(0.199097 -0.0101214 0)
(0.210114 -0.010435 0)
(0.221212 -0.0106895 0)
(0.232326 -0.0108866 0)
(0.243392 -0.0110286 0)
(0.254357 -0.0111183 0)
(0.265169 -0.0111592 0)
(0.275787 -0.0111552 0)
(0.286175 -0.0111103 0)
(0.296302 -0.0110287 0)
(0.306144 -0.0109146 0)
(0.315683 -0.0107721 0)
(0.324903 -0.0106052 0)
(0.333796 -0.0104178 0)
(0.342355 -0.0102133 0)
(0.35058 -0.00999519 0)
(0.358471 -0.00976646 0)
(0.366031 -0.00952995 0)
(0.373268 -0.00928818 0)
(0.380188 -0.00904344 0)
(0.386801 -0.00879772 0)
(0.393118 -0.00855283 0)
(0.399151 -0.00831029 0)
(0.404911 -0.00807141 0)
(0.410413 -0.00783731 0)
(0.41567 -0.0076089 0)
(0.420695 -0.00738691 0)
(0.425503 -0.00717185 0)
(0.430106 -0.00696403 0)
(0.43452 -0.00676363 0)
(0.438757 -0.00657067 0)
(0.44283 -0.00638501 0)
(0.446753 -0.00620633 0)
(0.450538 -0.00603408 0)
(0.454197 -0.00586754 0)
(0.457742 -0.00570578 0)
(0.461184 -0.00554769 0)
(0.464534 -0.00539191 0)
(0.467802 -0.00523688 0)
(0.470997 -0.0050807 0)
(0.474128 -0.0049212 0)
(0.477203 -0.00475581 0)
(0.48023 -0.00458159 0)
(0.483215 -0.0043951 0)
(0.486165 -0.00419239 0)
(0.489084 -0.00396886 0)
(0.491976 -0.00371916 0)
(0.494846 -0.00343701 0)
(0.497695 -0.00311502 0)
(0.500523 -0.00274444 0)
(0.50333 -0.00231481 0)
(0.506114 -0.00181349 0)
(0.508872 -0.0012251 0)
(0.511597 -0.000530655 0)
(0.514281 0.000293813 0)
(0.516914 0.0012788 0)
(0.519482 0.00246333 0)
(0.521971 0.00389844 0)
(0.524364 0.00565195 0)
(0.526646 0.00781521 0)
(0.528809 0.0105126 0)
(0.530861 0.0139143 0)
(0.532851 0.0182531 0)
(0.534905 0.0238407 0)
(0.537295 0.0310774 0)
(0.540554 0.0404262 0)
(0.545608 0.0522639 0)
(0.554044 0.0662708 0)
(0.100389 -0.00148648 0)
(0.10256 -0.00286109 0)
(0.106123 -0.00412048 0)
(0.11081 -0.00529204 0)
(0.116522 -0.00639591 0)
(0.12316 -0.00744049 0)
(0.13063 -0.00842752 0)
(0.138843 -0.00935567 0)
(0.147711 -0.0102216 0)
(0.157149 -0.011021 0)
(0.167071 -0.0117497 0)
(0.177391 -0.0124037 0)
(0.188027 -0.0129804 0)
(0.198896 -0.013478 0)
(0.209922 -0.013896 0)
(0.221031 -0.0142352 0)
(0.232155 -0.0144978 0)
(0.243232 -0.0146867 0)
(0.254205 -0.0148059 0)
(0.265027 -0.01486 0)
(0.275652 -0.0148541 0)
(0.286046 -0.0147936 0)
(0.296178 -0.0146841 0)
(0.306022 -0.0145313 0)
(0.315561 -0.0143405 0)
(0.32478 -0.0141172 0)
(0.333669 -0.0138664 0)
(0.342223 -0.0135929 0)
(0.35044 -0.0133011 0)
(0.35832 -0.0129951 0)
(0.365869 -0.0126786 0)
(0.37309 -0.0123551 0)
(0.379994 -0.0120274 0)
(0.386588 -0.0116984 0)
(0.392883 -0.0113703 0)
(0.398892 -0.0110451 0)
(0.404626 -0.0107247 0)
(0.410099 -0.0104105 0)
(0.415324 -0.0101037 0)
(0.420314 -0.00980512 0)
(0.425084 -0.00951551 0)
(0.429647 -0.00923529 0)
(0.434016 -0.00896472 0)
(0.438205 -0.00870378 0)
(0.442227 -0.00845222 0)
(0.446095 -0.00820954 0)
(0.449821 -0.007975 0)
(0.453417 -0.00774763 0)
(0.456894 -0.00752622 0)
(0.460264 -0.0073093 0)
(0.463537 -0.00709505 0)
(0.466723 -0.00688137 0)
(0.46983 -0.00666576 0)
(0.472869 -0.00644531 0)
(0.475846 -0.00621667 0)
(0.478769 -0.00597598 0)
(0.481646 -0.00571882 0)
(0.484481 -0.00544007 0)
(0.487281 -0.00513382 0)
(0.49005 -0.00479322 0)
(0.492791 -0.00441032 0)
(0.495507 -0.00397583 0)
(0.498201 -0.00347881 0)
(0.500874 -0.00290638 0)
(0.503525 -0.00224315 0)
(0.506154 -0.00147066 0)
(0.508759 -0.000566508 0)
(0.511338 0.000496878 0)
(0.513888 0.0017535 0)
(0.516407 0.0032455 0)
(0.518896 0.00502579 0)
(0.52136 0.00716121 0)
(0.523814 0.00973622 0)
(0.526286 0.0128571 0)
(0.528835 0.0166552 0)
(0.531563 0.0212881 0)
(0.534644 0.0269319 0)
(0.538354 0.0337574 0)
(0.543103 0.0418706 0)
(0.549447 0.0511876 0)
(0.558031 0.0611948 0)
(0.10035 -0.00185161 0)
(0.102493 -0.00359945 0)
(0.106012 -0.00519604 0)
(0.110664 -0.00668333 0)
(0.116346 -0.00808472 0)
(0.122962 -0.00941063 0)
(0.130416 -0.0106635 0)
(0.138619 -0.0118415 0)
(0.147483 -0.0129406 0)
(0.156922 -0.0139552 0)
(0.166849 -0.01488 0)
(0.177179 -0.0157102 0)
(0.187826 -0.016442 0)
(0.19871 -0.0170732 0)
(0.209751 -0.0176034 0)
(0.220877 -0.0180336 0)
(0.232018 -0.0183663 0)
(0.243111 -0.0186054 0)
(0.2541 -0.0187558 0)
(0.264936 -0.0188236 0)
(0.275574 -0.0188151 0)
(0.285978 -0.0187374 0)
(0.296117 -0.0185973 0)
(0.305967 -0.0184022 0)
(0.315508 -0.0181589 0)
(0.324727 -0.0178742 0)
(0.333613 -0.0175546 0)
(0.342162 -0.017206 0)
(0.35037 -0.0168342 0)
(0.358239 -0.0164443 0)
(0.365773 -0.016041 0)
(0.372977 -0.0156286 0)
(0.37986 -0.0152108 0)
(0.386431 -0.0147912 0)
(0.392701 -0.0143725 0)
(0.39868 -0.0139574 0)
(0.404382 -0.013548 0)
(0.40982 -0.0131462 0)
(0.415007 -0.0127534 0)
(0.419955 -0.0123708 0)
(0.42468 -0.0119992 0)
(0.429194 -0.0116392 0)
(0.433511 -0.0112911 0)
(0.437644 -0.0109546 0)
(0.441606 -0.0106295 0)
(0.445409 -0.0103152 0)
(0.449067 -0.0100107 0)
(0.45259 -0.00971473 0)
(0.455989 -0.00942582 0)
(0.459276 -0.00914205 0)
(0.462461 -0.00886114 0)
(0.465554 -0.00858039 0)
(0.468564 -0.00829669 0)
(0.471498 -0.00800644 0)
(0.474367 -0.00770552 0)
(0.477176 -0.00738919 0)
(0.479933 -0.00705202 0)
(0.482645 -0.00668781 0)
(0.485316 -0.00628944 0)
(0.487952 -0.0058487 0)
(0.490557 -0.00535619 0)
(0.493136 -0.004801 0)
(0.495692 -0.00417052 0)
(0.498227 -0.00345002 0)
(0.500746 -0.00262227 0)
(0.50325 -0.00166695 0)
(0.505742 -0.000559967 0)
(0.508227 0.000727388 0)
(0.510709 0.00222923 0)
(0.513198 0.00398618 0)
(0.515707 0.00604676 0)
(0.518258 0.00846855 0)
(0.520883 0.011319 0)
(0.523635 0.014675 0)
(0.52659 0.0186207 0)
(0.529859 0.02324 0)
(0.533601 0.0286035 0)
(0.538022 0.0347422 0)
(0.543381 0.0416073 0)
(0.549958 0.049011 0)
(0.557977 0.0565569 0)
(0.100312 -0.00223159 0)
(0.10243 -0.00437768 0)
(0.105907 -0.00633549 0)
(0.11052 -0.00816216 0)
(0.116173 -0.00988394 0)
(0.122766 -0.011513 0)
(0.130206 -0.0130522 0)
(0.138403 -0.0144996 0)
(0.147267 -0.0158501 0)
(0.156712 -0.0170968 0)
(0.166651 -0.018233 0)
(0.176997 -0.0192529 0)
(0.187665 -0.0201518 0)
(0.198572 -0.020927 0)
(0.209638 -0.0215779 0)
(0.22079 -0.0221057 0)
(0.231956 -0.0225134 0)
(0.243075 -0.022806 0)
(0.254088 -0.0229896 0)
(0.264945 -0.0230714 0)
(0.275602 -0.0230594 0)
(0.286022 -0.0229622 0)
(0.296175 -0.0227883 0)
(0.306034 -0.0225467 0)
(0.315582 -0.0222459 0)
(0.324802 -0.0218941 0)
(0.333687 -0.0214993 0)
(0.34223 -0.021069 0)
(0.35043 -0.02061 0)
(0.358287 -0.0201286 0)
(0.365804 -0.0196307 0)
(0.372989 -0.0191213 0)
(0.379849 -0.0186053 0)
(0.386393 -0.0180867 0)
(0.392632 -0.0175691 0)
(0.398577 -0.0170556 0)
(0.404242 -0.0165488 0)
(0.409638 -0.016051 0)
(0.41478 -0.0155639 0)
(0.41968 -0.0150889 0)
(0.424352 -0.0146269 0)
(0.42881 -0.0141787 0)
(0.433067 -0.0137444 0)
(0.437135 -0.0133238 0)
(0.441028 -0.0129167 0)
(0.444759 -0.0125221 0)
(0.448338 -0.012139 0)
(0.451779 -0.0117657 0)
(0.455091 -0.0114004 0)
(0.458286 -0.0110408 0)
(0.461374 -0.010684 0)
(0.464364 -0.0103269 0)
(0.467266 -0.00996564 0)
(0.470089 -0.00959606 0)
(0.472839 -0.00921324 0)
(0.475526 -0.00881161 0)
(0.478156 -0.00838483 0)
(0.480736 -0.00792572 0)
(0.483273 -0.00742609 0)
(0.485771 -0.00687666 0)
(0.488237 -0.00626688 0)
(0.490676 -0.00558469 0)
(0.493093 -0.00481637 0)
(0.495493 -0.00394618 0)
(0.497883 -0.00295604 0)
(0.500269 -0.0018252 0)
(0.502657 -0.00052973 0)
(0.505058 0.000957788 0)
(0.507484 0.00266853 0)
(0.509951 0.00463789 0)
(0.512482 0.00690559 0)
(0.515108 0.00951534 0)
(0.517872 0.0125136 0)
(0.52083 0.0159471 0)
(0.524057 0.0198577 0)
(0.527649 0.0242751 0)
(0.531721 0.0292047 0)
(0.536409 0.0346111 0)
(0.54185 0.0403985 0)
(0.548163 0.0463905 0)
(0.555389 0.0523221 0)
(0.100272 -0.00262822 0)
(0.102373 -0.00519817 0)
(0.10581 -0.00754277 0)
(0.110387 -0.00973411 0)
(0.116011 -0.0118011 0)
(0.122586 -0.013757 0)
(0.130016 -0.0156054 0)
(0.138211 -0.0173437 0)
(0.147082 -0.0189655 0)
(0.156542 -0.0204629 0)
(0.166503 -0.0218275 0)
(0.176876 -0.0230522 0)
(0.187575 -0.0241315 0)
(0.198517 -0.0250619 0)
(0.209621 -0.0258427 0)
(0.220811 -0.0264753 0)
(0.232015 -0.0269635 0)
(0.24317 -0.0273131 0)
(0.254218 -0.0275315 0)
(0.265106 -0.0276274 0)
(0.275792 -0.0276105 0)
(0.286236 -0.027491 0)
(0.296408 -0.0272794 0)
(0.306283 -0.0269863 0)
(0.315841 -0.026622 0)
(0.325067 -0.0261965 0)
(0.333953 -0.0257193 0)
(0.342493 -0.0251994 0)
(0.350683 -0.0246448 0)
(0.358527 -0.0240634 0)
(0.366027 -0.0234619 0)
(0.37319 -0.0228465 0)
(0.380023 -0.0222229 0)
(0.386537 -0.021596 0)
(0.392741 -0.02097 0)
(0.398647 -0.0203486 0)
(0.404269 -0.0197349 0)
(0.409618 -0.0191315 0)
(0.414708 -0.0185406 0)
(0.419553 -0.0179636 0)
(0.424165 -0.0174017 0)
(0.428559 -0.0168556 0)
(0.432747 -0.0163256 0)
(0.436743 -0.0158114 0)
(0.440559 -0.0153127 0)
(0.444207 -0.0148282 0)
(0.4477 -0.0143568 0)
(0.451049 -0.0138964 0)
(0.454265 -0.0134448 0)
(0.457359 -0.0129993 0)
(0.460341 -0.0125566 0)
(0.46322 -0.012113 0)
(0.466006 -0.0116641 0)
(0.468708 -0.0112051 0)
(0.471334 -0.0107303 0)
(0.473891 -0.0102335 0)
(0.476388 -0.00970753 0)
(0.478831 -0.00914438 0)
(0.481229 -0.00853508 0)
(0.483586 -0.00786958 0)
(0.485911 -0.00713659 0)
(0.48821 -0.00632347 0)
(0.490489 -0.00541602 0)
(0.492758 -0.00439835 0)
(0.495023 -0.00325267 0)
(0.497295 -0.00195914 0)
(0.499585 -0.000495699 0)
(0.501907 0.00116181 0)
(0.504277 0.00303947 0)
(0.506718 0.00516514 0)
(0.509256 0.00756779 0)
(0.511926 0.0102762 0)
(0.514769 0.0133172 0)
(0.517838 0.016712 0)
(0.521194 0.0204725 0)
(0.524907 0.0245948 0)
(0.529053 0.0290522 0)
(0.533705 0.0337873 0)
(0.538928 0.0387049 0)
(0.544754 0.0436694 0)
(0.551158 0.048514 0)
(0.100232 -0.00304371 0)
(0.102322 -0.00606414 0)
(0.105725 -0.00882289 0)
(0.11027 -0.0114061 0)
(0.115871 -0.0138451 0)
(0.122432 -0.016154 0)
(0.129859 -0.0183365 0)
(0.138062 -0.0203893 0)
(0.14695 -0.0223049 0)
(0.156437 -0.0240735 0)
(0.166432 -0.0256853 0)
(0.176846 -0.0271316 0)
(0.187592 -0.0284058 0)
(0.198585 -0.0295039 0)
(0.209741 -0.0304247 0)
(0.220984 -0.03117 0)
(0.232242 -0.0317442 0)
(0.243447 -0.0321542 0)
(0.254543 -0.0324089 0)
(0.265475 -0.0325186 0)
(0.276199 -0.0324947 0)
(0.286677 -0.0323495 0)
(0.296878 -0.0320953 0)
(0.306775 -0.0317448 0)
(0.316349 -0.0313101 0)
(0.325586 -0.0308031 0)
(0.334476 -0.030235 0)
(0.343014 -0.0296162 0)
(0.351197 -0.0289567 0)
(0.359027 -0.0282652 0)
(0.366509 -0.0275499 0)
(0.373647 -0.0268181 0)
(0.380451 -0.0260764 0)
(0.38693 -0.0253305 0)
(0.393094 -0.0245853 0)
(0.398957 -0.0238452 0)
(0.404529 -0.0231138 0)
(0.409824 -0.022394 0)
(0.414856 -0.0216884 0)
(0.419638 -0.0209986 0)
(0.424183 -0.020326 0)
(0.428504 -0.0196713 0)
(0.432616 -0.0190349 0)
(0.43653 -0.0184165 0)
(0.44026 -0.0178153 0)
(0.443818 -0.0172303 0)
(0.447215 -0.0166596 0)
(0.450464 -0.0161013 0)
(0.453575 -0.0155525 0)
(0.456559 -0.0150103 0)
(0.459426 -0.0144708 0)
(0.462186 -0.0139299 0)
(0.464849 -0.0133827 0)
(0.467423 -0.0128237 0)
(0.469917 -0.0122467 0)
(0.472339 -0.0116448 0)
(0.474697 -0.0110102 0)
(0.477 -0.0103345 0)
(0.479255 -0.00960819 0)
(0.48147 -0.00882071 0)
(0.483652 -0.00796056 0)
(0.485811 -0.00701502 0)
(0.487954 -0.00597016 0)
(0.490092 -0.00481079 0)
(0.492235 -0.00352039 0)
(0.494396 -0.00208119 0)
(0.496588 -0.000474257 0)
(0.498827 0.00132005 0)
(0.501134 0.00332163 0)
(0.503531 0.00555014 0)
(0.506046 0.00802394 0)
(0.508712 0.0107587 0)
(0.511564 0.0137653 0)
(0.514644 0.0170473 0)
(0.517997 0.0205983 0)
(0.521668 0.0243976 0)
(0.525701 0.0284077 0)
(0.53013 0.0325713 0)
(0.534975 0.0368104 0)
(0.540231 0.0410293 0)
(0.545852 0.0451258 0)
(0.100189 -0.00348066 0)
(0.102277 -0.00697973 0)
(0.105654 -0.0101821 0)
(0.110174 -0.0131864 0)
(0.115758 -0.0160267 0)
(0.122315 -0.0187172 0)
(0.129749 -0.0212614 0)
(0.137971 -0.0236551 0)
(0.146891 -0.0258892 0)
(0.156419 -0.0279521 0)
(0.166465 -0.029832 0)
(0.176939 -0.0315186 0)
(0.18775 -0.0330039 0)
(0.198813 -0.0342832 0)
(0.210041 -0.035355 0)
(0.221357 -0.0362213 0)
(0.232685 -0.0368874 0)
(0.243959 -0.0373613 0)
(0.255118 -0.0376534 0)
(0.266109 -0.0377759 0)
(0.276886 -0.0377422 0)
(0.287409 -0.0375668 0)
(0.297648 -0.0372641 0)
(0.307575 -0.0368489 0)
(0.317173 -0.0363355 0)
(0.326425 -0.0357377 0)
(0.335323 -0.0350686 0)
(0.343861 -0.0343405 0)
(0.352037 -0.0335648 0)
(0.359854 -0.0327518 0)
(0.367315 -0.0319109 0)
(0.374427 -0.0310508 0)
(0.381198 -0.0301788 0)
(0.387638 -0.0293016 0)
(0.393758 -0.028425 0)
(0.39957 -0.027554 0)
(0.405087 -0.0266925 0)
(0.410322 -0.0258441 0)
(0.415288 -0.0250116 0)
(0.419999 -0.0241969 0)
(0.424468 -0.0234014 0)
(0.428709 -0.0226262 0)
(0.432735 -0.0218713 0)
(0.436559 -0.0211365 0)
(0.440193 -0.0204209 0)
(0.443651 -0.0197232 0)
(0.446944 -0.0190415 0)
(0.450083 -0.0183732 0)
(0.45308 -0.0177156 0)
(0.455946 -0.0170649 0)
(0.45869 -0.0164171 0)
(0.461324 -0.0157675 0)
(0.463855 -0.0151107 0)
(0.466294 -0.0144408 0)
(0.46865 -0.0137512 0)
(0.470932 -0.0130345 0)
(0.473147 -0.0122826 0)
(0.475305 -0.0114867 0)
(0.477415 -0.0106371 0)
(0.479485 -0.00972327 0)
(0.481524 -0.00873393 0)
(0.483542 -0.00765683 0)
(0.485549 -0.00647894 0)
(0.487556 -0.00518645 0)
(0.489576 -0.00376491 0)
(0.491622 -0.0021994 0)
(0.49371 -0.000474799 0)
(0.495857 0.00142357 0)
(0.498083 0.00350938 0)
(0.50041 0.0057947 0)
(0.502863 0.00828891 0)
(0.505469 0.0109975 0)
(0.508257 0.0139205 0)
(0.511256 0.0170511 0)
(0.514497 0.0203734 0)
(0.518005 0.0238615 0)
(0.521801 0.0274783 0)
(0.525895 0.031175 0)
(0.530286 0.0348932 0)
(0.534954 0.038568 0)
(0.539851 0.0421375 0)
(0.100144 -0.00394204 0)
(0.102238 -0.00795002 0)
(0.1056 -0.0116279 0)
(0.110102 -0.0150853 0)
(0.115681 -0.0183589 0)
(0.122244 -0.0214624 0)
(0.129699 -0.0243989 0)
(0.137956 -0.0271629 0)
(0.146924 -0.0297432 0)
(0.156513 -0.032126 0)
(0.166632 -0.0342975 0)
(0.177187 -0.0362451 0)
(0.188087 -0.0379596 0)
(0.199242 -0.0394351 0)
(0.210566 -0.0406698 0)
(0.221977 -0.0416661 0)
(0.233398 -0.04243 0)
(0.244761 -0.0429709 0)
(0.256003 -0.043301 0)
(0.26707 -0.0434345 0)
(0.277914 -0.0433871 0)
(0.288496 -0.0431756 0)
(0.298784 -0.0428169 0)
(0.308751 -0.0423281 0)
(0.318379 -0.0417259 0)
(0.327652 -0.0410263 0)
(0.336561 -0.0402445 0)
(0.345102 -0.0393946 0)
(0.353272 -0.0384897 0)
(0.361075 -0.0375418 0)
(0.368513 -0.0365618 0)
(0.375595 -0.0355594 0)
(0.382329 -0.0345432 0)
(0.388725 -0.0335208 0)
(0.394795 -0.0324988 0)
(0.40055 -0.0314828 0)
(0.406004 -0.0304774 0)
(0.411171 -0.0294865 0)
(0.416063 -0.0285133 0)
(0.420694 -0.0275599 0)
(0.425078 -0.0266281 0)
(0.429229 -0.0257186 0)
(0.43316 -0.0248318 0)
(0.436884 -0.0239673 0)
(0.440414 -0.023124 0)
(0.443762 -0.0223005 0)
(0.446941 -0.0214946 0)
(0.449962 -0.0207036 0)
(0.452836 -0.0199242 0)
(0.455574 -0.0191525 0)
(0.458188 -0.018384 0)
(0.460686 -0.0176137 0)
(0.463079 -0.0168358 0)
(0.465377 -0.016044 0)
(0.467589 -0.0152315 0)
(0.469725 -0.0143907 0)
(0.471793 -0.0135132 0)
(0.473803 -0.0125904 0)
(0.475764 -0.0116125 0)
(0.477687 -0.0105695 0)
(0.47958 -0.00945068 0)
(0.481456 -0.00824474 0)
(0.483324 -0.00694006 0)
(0.485198 -0.00552474 0)
(0.48709 -0.00398682 0)
(0.489014 -0.00231456 0)
(0.490986 -0.000496808 0)
(0.493024 0.00147641 0)
(0.495145 0.00361331 0)
(0.497369 0.00591973 0)
(0.499716 0.00839839 0)
(0.502209 0.0110479 0)
(0.504867 0.0138621 0)
(0.50771 0.0168289 0)
(0.510755 0.0199297 0)
(0.514015 0.0231393 0)
(0.517496 0.0264255 0)
(0.521196 0.0297504 0)
(0.525104 0.0330722 0)
(0.529196 0.0363476 0)
(0.533432 0.0395392 0)
(0.100094 -0.00443126 0)
(0.102205 -0.00898116 0)
(0.105562 -0.0131695 0)
(0.110059 -0.0171149 0)
(0.115644 -0.0208571 0)
(0.122229 -0.0244087 0)
(0.129722 -0.0277716 0)
(0.138032 -0.0309386 0)
(0.147071 -0.0338962 0)
(0.156745 -0.0366279 0)
(0.166961 -0.0391172 0)
(0.177625 -0.0413493 0)
(0.188642 -0.0433129 0)
(0.199919 -0.0450011 0)
(0.211366 -0.0464117 0)
(0.222899 -0.0475472 0)
(0.234439 -0.0484148 0)
(0.245914 -0.0490254 0)
(0.25726 -0.0493931 0)
(0.268422 -0.0495345 0)
(0.27935 -0.0494679 0)
(0.290006 -0.0492127 0)
(0.300355 -0.0487886 0)
(0.310372 -0.0482153 0)
(0.320037 -0.0475121 0)
(0.329336 -0.0466974 0)
(0.338261 -0.0457886 0)
(0.346805 -0.0448021 0)
(0.354969 -0.0437529 0)
(0.362755 -0.0426546 0)
(0.370169 -0.0415196 0)
(0.377216 -0.040359 0)
(0.383908 -0.0391826 0)
(0.390253 -0.0379989 0)
(0.396265 -0.0368155 0)
(0.401956 -0.0356386 0)
(0.407339 -0.0344735 0)
(0.412427 -0.0333245 0)
(0.417235 -0.032195 0)
(0.421777 -0.0310876 0)
(0.426067 -0.0300041 0)
(0.430117 -0.0289453 0)
(0.433943 -0.0279116 0)
(0.437557 -0.0269025 0)
(0.440971 -0.025917 0)
(0.4442 -0.0249533 0)
(0.447255 -0.0240091 0)
(0.450147 -0.0230813 0)
(0.452889 -0.0221664 0)
(0.455492 -0.0212603 0)
(0.457965 -0.0203581 0)
(0.460321 -0.0194545 0)
(0.462569 -0.0185437 0)
(0.464719 -0.0176191 0)
(0.466781 -0.0166736 0)
(0.468765 -0.0156997 0)
(0.470681 -0.0146892 0)
(0.472538 -0.0136335 0)
(0.474348 -0.0125235 0)
(0.47612 -0.0113496 0)
(0.477864 -0.0101022 0)
(0.479593 -0.00877139 0)
(0.481318 -0.0073471 0)
(0.483052 -0.00581962 0)
(0.484807 -0.0041796 0)
(0.486598 -0.00241842 0)
(0.488439 -0.000528551 0)
(0.490346 0.00149601 0)
(0.492335 0.00365917 0)
(0.494422 0.00596228 0)
(0.496623 0.00840368 0)
(0.498953 0.0109782 0)
(0.501426 0.0136766 0)
(0.504053 0.0164854 0)
(0.506844 0.0193869 0)
(0.509801 0.0223592 0)
(0.512923 0.0253766 0)
(0.516203 0.028411 0)
(0.519627 0.031433 0)
(0.523172 0.0344141 0)
(0.526804 0.037332 0)
(0.10004 -0.00495218 0)
(0.102178 -0.0100806 0)
(0.105544 -0.0148177 0)
(0.110047 -0.01929 0)
(0.115654 -0.0235398 0)
(0.122279 -0.0275785 0)
(0.129831 -0.0314061 0)
(0.138219 -0.0350131 0)
(0.147354 -0.0383833 0)
(0.157143 -0.0414966 0)
(0.167489 -0.0443334 0)
(0.178294 -0.0468761 0)
(0.189461 -0.049111 0)
(0.200893 -0.05103 0)
(0.212496 -0.0526302 0)
(0.224183 -0.0539147 0)
(0.23587 -0.0548915 0)
(0.247485 -0.0555734 0)
(0.25896 -0.055977 0)
(0.270237 -0.0561214 0)
(0.281268 -0.0560279 0)
(0.292012 -0.055719 0)
(0.302435 -0.0552175 0)
(0.312511 -0.0545461 0)
(0.32222 -0.0537269 0)
(0.33155 -0.0527811 0)
(0.340491 -0.0517286 0)
(0.349039 -0.0505881 0)
(0.357195 -0.0493765 0)
(0.364962 -0.0481096 0)
(0.372344 -0.0468012 0)
(0.379351 -0.045464 0)
(0.385993 -0.0441089 0)
(0.39228 -0.0427457 0)
(0.398225 -0.0413826 0)
(0.403841 -0.0400267 0)
(0.409142 -0.0386839 0)
(0.414142 -0.0373591 0)
(0.418856 -0.0360559 0)
(0.423297 -0.0347772 0)
(0.427479 -0.0335249 0)
(0.431418 -0.0323 0)
(0.435127 -0.0311029 0)
(0.438619 -0.0299331 0)
(0.441907 -0.0287893 0)
(0.445005 -0.0276697 0)
(0.447925 -0.0265717 0)
(0.450679 -0.0254921 0)
(0.453279 -0.0244272 0)
(0.455736 -0.0233725 0)
(0.458061 -0.0223232 0)
(0.460266 -0.0212737 0)
(0.46236 -0.020218 0)
(0.464355 -0.0191495 0)
(0.466261 -0.0180613 0)
(0.468088 -0.0169458 0)
(0.469847 -0.0157953 0)
(0.471547 -0.0146016 0)
(0.4732 -0.0133562 0)
(0.474817 -0.0120507 0)
(0.476408 -0.0106764 0)
(0.477984 -0.00922489 0)
(0.479559 -0.00768804 0)
(0.481143 -0.00605817 0)
(0.482751 -0.00432838 0)
(0.484393 -0.00249281 0)
(0.486085 -0.000546882 0)
(0.487839 0.00151235 0)
(0.489669 0.00368578 0)
(0.491586 0.00597194 0)
(0.493603 0.00836674 0)
(0.49573 0.0108633 0)
(0.497975 0.0134519 0)
(0.500345 0.0161197 0)
(0.502842 0.0188515 0)
(0.505464 0.0216295 0)
(0.508208 0.0244343 0)
(0.511063 0.0272455 0)
(0.514015 0.0300426 0)
(0.517046 0.0328071 0)
(0.520129 0.0355258 0)
(0.0999802 -0.00550925 0)
(0.102157 -0.011257 0)
(0.105546 -0.0165856 0)
(0.110072 -0.0216281 0)
(0.115718 -0.0264293 0)
(0.122405 -0.030999 0)
(0.130041 -0.0353347 0)
(0.138536 -0.0394239 0)
(0.147801 -0.0432466 0)
(0.157739 -0.0467788 0)
(0.168252 -0.0499968 0)
(0.179239 -0.0528794 0)
(0.190596 -0.0554105 0)
(0.202222 -0.0575798 0)
(0.21402 -0.0593842 0)
(0.225896 -0.0608269 0)
(0.237764 -0.0619175 0)
(0.249547 -0.0626709 0)
(0.261177 -0.0631064 0)
(0.272593 -0.0632464 0)
(0.283745 -0.0631156 0)
(0.294592 -0.0627399 0)
(0.305099 -0.0621457 0)
(0.315242 -0.0613592 0)
(0.325001 -0.0604056 0)
(0.334363 -0.0593093 0)
(0.343321 -0.0580928 0)
(0.351871 -0.0567775 0)
(0.360014 -0.0553825 0)
(0.367755 -0.0539256 0)
(0.3751 -0.0524225 0)
(0.382058 -0.0508873 0)
(0.38864 -0.0493323 0)
(0.394857 -0.0477685 0)
(0.400724 -0.0462049 0)
(0.406253 -0.0446495 0)
(0.41146 -0.0431089 0)
(0.416359 -0.0415882 0)
(0.420964 -0.0400918 0)
(0.425291 -0.0386225 0)
(0.429354 -0.0371826 0)
(0.433168 -0.0357732 0)
(0.436747 -0.0343945 0)
(0.440104 -0.0330461 0)
(0.443254 -0.0317267 0)
(0.446209 -0.0304342 0)
(0.448982 -0.0291659 0)
(0.451586 -0.0279186 0)
(0.454033 -0.0266883 0)
(0.456335 -0.0254704 0)
(0.458502 -0.0242601 0)
(0.460548 -0.0230516 0)
(0.462481 -0.021839 0)
(0.464314 -0.0206157 0)
(0.466057 -0.0193751 0)
(0.46772 -0.01811 0)
(0.469316 -0.016813 0)
(0.470853 -0.0154766 0)
(0.472344 -0.0140933 0)
(0.473799 -0.0126554 0)
(0.475229 -0.0111558 0)
(0.476645 -0.00958748 0)
(0.47806 -0.00794391 0)
(0.479484 -0.0062194 0)
(0.48093 -0.00440911 0)
(0.482409 -0.00250937 0)
(0.483932 -0.000517843 0)
(0.485511 0.00156638 0)
(0.487155 0.00374237 0)
(0.488875 0.00600713 0)
(0.490678 0.00835568 0)
(0.492571 0.010781 0)
(0.494559 0.0132739 0)
(0.496643 0.0158236 0)
(0.498824 0.0184177 0)
(0.501097 0.0210425 0)
(0.503458 0.0236835 0)
(0.505895 0.0263264 0)
(0.508398 0.0289573 0)
(0.51095 0.0315636 0)
(0.513531 0.0341383 0)
(0.0999131 -0.00610765 0)
(0.102141 -0.0125212 0)
(0.105571 -0.018489 0)
(0.110136 -0.0241504 0)
(0.115844 -0.0295527 0)
(0.12262 -0.0347032 0)
(0.130371 -0.0395965 0)
(0.139009 -0.0442161 0)
(0.148442 -0.0485373 0)
(0.158573 -0.0525311 0)
(0.169299 -0.0561685 0)
(0.180514 -0.0594242 0)
(0.192108 -0.0622784 0)
(0.203975 -0.0647192 0)
(0.21601 -0.0667423 0)
(0.228115 -0.0683519 0)
(0.2402 -0.0695592 0)
(0.252184 -0.0703817 0)
(0.263995 -0.0708421 0)
(0.275572 -0.0709667 0)
(0.286863 -0.0707841 0)
(0.297826 -0.0703244 0)
(0.308428 -0.0696181 0)
(0.318643 -0.0686952 0)
(0.328453 -0.0675847 0)
(0.337847 -0.0663142 0)
(0.346818 -0.0649096 0)
(0.355364 -0.0633947 0)
(0.363487 -0.0617914 0)
(0.371193 -0.0601196 0)
(0.378489 -0.0583969 0)
(0.385385 -0.0566391 0)
(0.391894 -0.0548599 0)
(0.398028 -0.0530714 0)
(0.403802 -0.0512838 0)
(0.40923 -0.0495058 0)
(0.414327 -0.0477445 0)
(0.419109 -0.0460059 0)
(0.423591 -0.0442943 0)
(0.427788 -0.0426132 0)
(0.431716 -0.0409649 0)
(0.43539 -0.0393506 0)
(0.438824 -0.0377705 0)
(0.442032 -0.0362243 0)
(0.445029 -0.0347104 0)
(0.447829 -0.0332269 0)
(0.450443 -0.0317709 0)
(0.452885 -0.030339 0)
(0.455168 -0.0289273 0)
(0.457304 -0.0275311 0)
(0.459304 -0.0261455 0)
(0.46118 -0.0247648 0)
(0.462944 -0.0233832 0)
(0.464606 -0.0219944 0)
(0.466178 -0.0205921 0)
(0.467671 -0.0191694 0)
(0.469096 -0.0177197 0)
(0.470464 -0.0162361 0)
(0.471785 -0.0147121 0)
(0.47307 -0.0131411 0)
(0.474331 -0.0115171 0)
(0.475579 -0.00983438 0)
(0.476823 -0.00808806 0)
(0.478075 -0.00627394 0)
(0.479345 -0.0043888 0)
(0.480644 -0.00243055 0)
(0.48198 -0.000398307 0)
(0.483363 0.00170769 0)
(0.484801 0.00388556 0)
(0.486301 0.00613186 0)
(0.487867 0.00844163 0)
(0.489505 0.0108085 0)
(0.491215 0.0132247 0)
(0.492999 0.0156816 0)
(0.494854 0.0181695 0)
(0.496776 0.0206782 0)
(0.498759 0.0231974 0)
(0.500795 0.0257169 0)
(0.502873 0.0282273 0)
(0.504982 0.0307203 0)
(0.507106 0.0331926 0)
(0.0998373 -0.00675347 0)