/*--------------------------------*- C++ -*----------------------------------*\
  =========                 |
  \\      /  F ield         | OpenFOAM: The Open Source CFD Toolbox
   \\    /   O peration     | Website:  https://openfoam.org
    \\  /    A nd           | Version:  7
     \\/     M anipulation  |
\*---------------------------------------------------------------------------*/
FoamFile
{
    version     2.0;
    format      ascii;
    class       surfaceScalarField;
    location    "5.74";
    object      phi;
}
// * * * * * * * * * * * * * * * * * * * * * * * * * * * * * * * * * * * * * //

dimensions      [1 0 -1 0 0 0 0];

internalField   nonuniform List<scalar> 
23692
(
1.18811e-05
-2.46427e-07
1.23102e-05
-4.28737e-07
1.28951e-05
-5.84246e-07
1.36135e-05
-7.17478e-07
1.44491e-05
-8.34531e-07
1.53899e-05
-9.39492e-07
1.64266e-05
-1.03519e-06
1.75519e-05
-1.12361e-06
1.87597e-05
-1.20592e-06
2.00444e-05
-1.2826e-06
2.14001e-05
-1.35351e-06
2.28205e-05
-1.41803e-06
2.42983e-05
-1.47526e-06
2.5825e-05
-1.52414e-06
2.73914e-05
-1.56371e-06
2.89873e-05
-1.59316e-06
3.06021e-05
-1.61198e-06
3.2225e-05
-1.61998e-06
3.38453e-05
-1.6173e-06
3.54526e-05
-1.60438e-06
3.70375e-05
-1.5819e-06
3.85913e-05
-1.55075e-06
4.01063e-05
-1.51194e-06
4.15759e-05
-1.46652e-06
4.29945e-05
-1.41559e-06
4.43577e-05
-1.36021e-06
4.56622e-05
-1.3014e-06
4.69052e-05
-1.24009e-06
4.80853e-05
-1.17713e-06
4.92015e-05
-1.1133e-06
5.02536e-05
-1.04924e-06
5.1242e-05
-9.85553e-07
5.21675e-05
-9.22711e-07
5.30313e-05
-8.61128e-07
5.38351e-05
-8.01141e-07
5.45806e-05
-7.43019e-07
5.527e-05
-6.86974e-07
5.59055e-05
-6.33166e-07
5.64895e-05
-5.81709e-07
5.70243e-05
-5.32677e-07
5.75125e-05
-4.86114e-07
5.79564e-05
-4.42029e-07
5.83586e-05
-4.00408e-07
5.87215e-05
-3.61213e-07
5.90474e-05
-3.24391e-07
5.93387e-05
-2.89868e-07
5.95975e-05
-2.57557e-07
5.98259e-05
-2.27356e-07
6.0026e-05
-1.99153e-07
6.01996e-05
-1.72824e-07
6.03484e-05
-1.48236e-07
6.04741e-05
-1.25243e-07
6.0578e-05
-1.03692e-07
6.06616e-05
-8.34193e-08
6.07257e-05
-6.42495e-08
6.07715e-05
-4.59976e-08
6.07995e-05
-2.84669e-08
6.08104e-05
-1.14477e-08
6.08043e-05
5.28967e-09
6.07814e-05
2.19868e-08
6.07414e-05
3.89249e-08
6.06838e-05
5.64091e-08
6.06076e-05
7.47892e-08
6.05116e-05
9.44655e-08
6.03941e-05
1.15904e-07
6.02526e-05
1.39661e-07
6.00843e-05
1.6641e-07
5.98854e-05
1.96993e-07
5.96508e-05
2.3249e-07
5.93743e-05
2.74325e-07
5.90477e-05
3.24446e-07
5.86598e-05
3.85609e-07
5.81956e-05
4.61869e-07
5.76338e-05
5.59452e-07
5.69431e-05
6.88351e-07
5.60754e-05
8.65386e-07
5.49528e-05
1.12029e-06
5.34418e-05
1.50874e-06
5.12935e-05
2.14614e-06
4.79714e-05
3.31994e-06
6.25421e-06
4.17152e-05
1.27052e-05
-5.02783e-07
1.31616e-05
-8.84731e-07
1.37854e-05
-1.20738e-06
1.45522e-05
-1.48331e-06
1.54447e-05
-1.72588e-06
1.645e-05
-1.94339e-06
1.75581e-05
-2.1417e-06
1.87613e-05
-2.32495e-06
2.0053e-05
-2.4956e-06
2.14273e-05
-2.65461e-06
2.28778e-05
-2.80171e-06
2.43979e-05
-2.9356e-06
2.59797e-05
-3.0544e-06
2.76143e-05
-3.15596e-06
2.92916e-05
-3.2382e-06
3.10009e-05
-3.29948e-06
3.27307e-05
-3.33871e-06
3.44693e-05
-3.35548e-06
3.62052e-05
-3.3501e-06
3.79275e-05
-3.32346e-06
3.96258e-05
-3.277e-06
4.12909e-05
-3.21253e-06
4.29143e-05
-3.13215e-06
4.44892e-05
-3.03807e-06
4.60094e-05
-2.93254e-06
4.74702e-05
-2.81778e-06
4.88679e-05
-2.6959e-06
5.01999e-05
-2.56883e-06
5.14642e-05
-2.43834e-06
5.26601e-05
-2.30602e-06
5.37872e-05
-2.17326e-06
5.48458e-05
-2.04123e-06
5.58371e-05
-1.91097e-06
5.67621e-05
-1.78331e-06
5.76227e-05
-1.65896e-06
5.84209e-05
-1.53846e-06
5.91588e-05
-1.42227e-06
5.98389e-05
-1.31071e-06
6.04636e-05
-1.20401e-06
6.10355e-05
-1.10234e-06
6.15574e-05
-1.00577e-06
6.20317e-05
-9.14321e-07
6.24612e-05
-8.27973e-07
6.28484e-05
-7.46644e-07
6.31959e-05
-6.70217e-07
6.3506e-05
-5.98541e-07
6.37812e-05
-5.31435e-07
6.40237e-05
-4.68687e-07
6.42356e-05
-4.10066e-07
6.44189e-05
-3.55312e-07
6.45755e-05
-3.04148e-07
6.4707e-05
-2.56276e-07
6.4815e-05
-2.11377e-07
6.49008e-05
-1.69111e-07
6.49655e-05
-1.29118e-07
6.50103e-05
-9.1016e-08
6.50358e-05
-5.43992e-08
6.50425e-05
-1.88348e-08
6.50309e-05
1.61436e-08
6.50008e-05
5.10379e-08
6.49522e-05
8.64103e-08
6.48844e-05
1.22886e-07
6.47965e-05
1.61174e-07
6.46873e-05
2.02079e-07
6.45549e-05
2.46538e-07
6.4397e-05
2.95656e-07
6.42106e-05
3.50766e-07
6.3992e-05
4.13517e-07
6.37363e-05
4.85994e-07
6.34374e-05
5.70915e-07
6.30875e-05
6.71918e-07
6.26767e-05
7.94033e-07
6.21917e-05
9.44427e-07
6.1615e-05
1.13365e-06
6.09231e-05
1.37776e-06
6.00841e-05
1.70188e-06
5.90555e-05
2.14644e-06
5.77839e-05
2.77785e-06
5.62179e-05
3.70981e-06
5.43952e-05
5.14039e-06
7.32779e-06
5.33194e-05
1.35839e-05
-7.66882e-07
1.40664e-05
-1.36684e-06
1.47286e-05
-1.86883e-06
1.55447e-05
-2.2984e-06
1.6496e-05
-2.67594e-06
1.75685e-05
-3.01443e-06
1.87517e-05
-3.32307e-06
2.0037e-05
-3.60834e-06
2.14177e-05
-3.8741e-06
2.28873e-05
-4.12185e-06
2.44393e-05
-4.35116e-06
2.60664e-05
-4.56004e-06
2.77604e-05
-4.74551e-06
2.95115e-05
-4.90418e-06
3.13092e-05
-5.03282e-06
3.31417e-05
-5.12882e-06
3.49967e-05
-5.19045e-06
3.68617e-05
-5.21709e-06
3.87241e-05
-5.20916e-06
4.05722e-05
-5.16808e-06
4.23947e-05
-5.09607e-06
4.41816e-05
-4.99596e-06
4.59239e-05
-4.87101e-06
4.76141e-05
-4.72469e-06
4.92456e-05
-4.56052e-06
5.08132e-05
-4.38195e-06
5.2313e-05
-4.19226e-06
5.37421e-05
-3.99448e-06
5.50985e-05
-3.79138e-06
5.63813e-05
-3.58541e-06
5.759e-05
-3.37874e-06
5.87252e-05
-3.17322e-06
5.97879e-05
-2.97043e-06
6.07793e-05
-2.7717e-06
6.17015e-05
-2.5781e-06
6.25564e-05
-2.3905e-06
6.33465e-05
-2.20959e-06
6.40744e-05
-2.03587e-06
6.47427e-05
-1.86971e-06
6.53542e-05
-1.71135e-06
6.59117e-05
-1.56091e-06
6.6418e-05
-1.41844e-06
6.68759e-05
-1.28386e-06
6.72883e-05
-1.15708e-06
6.76577e-05
-1.03789e-06
6.79868e-05
-9.26066e-07
6.82781e-05
-8.21323e-07
6.8534e-05
-7.23331e-07
6.87567e-05
-6.31724e-07
6.89484e-05
-5.46102e-07
6.9111e-05
-4.66033e-07
6.92462e-05
-3.91053e-07
6.93558e-05
-3.20666e-07
6.94412e-05
-2.54348e-07
6.95035e-05
-1.91542e-07
6.95439e-05
-1.31657e-07
6.95631e-05
-7.40704e-08
6.95617e-05
-1.81173e-08
6.954e-05
3.69105e-08
6.94983e-05
9.17757e-08
6.94361e-05
1.47327e-07
6.93531e-05
2.0451e-07
6.92483e-05
2.64382e-07
6.91205e-05
3.2814e-07
6.8968e-05
3.97159e-07
6.87886e-05
4.73046e-07
6.85795e-05
5.57715e-07
6.83372e-05
6.53493e-07
6.80576e-05
7.63267e-07
6.77353e-05
8.90708e-07
6.73641e-05
1.04058e-06
6.69363e-05
1.21923e-06
6.64429e-05
1.43526e-06
6.58733e-05
1.70055e-06
6.52166e-05
2.03178e-06
6.44634e-05
2.45249e-06
6.36115e-05
2.99564e-06
6.26805e-05
3.70632e-06
6.17454e-05
4.6423e-06
6.10228e-05
5.86055e-06
7.34036e-06
6.10079e-05
1.45222e-05
-1.03765e-06
1.50295e-05
-1.87361e-06
1.57297e-05
-2.56828e-06
1.65959e-05
-3.16348e-06
1.76078e-05
-3.68649e-06
1.87503e-05
-4.15535e-06
2.00121e-05
-4.58296e-06
2.13842e-05
-4.97833e-06
2.28593e-05
-5.34686e-06
2.44306e-05
-5.69068e-06
2.60914e-05
-6.00918e-06
2.78338e-05
-6.29959e-06
2.96491e-05
-6.55773e-06
3.15269e-05
-6.77885e-06
3.34558e-05
-6.9584e-06
3.5423e-05
-7.09268e-06
3.74153e-05
-7.17927e-06
3.9419e-05
-7.21723e-06
4.14206e-05
-7.20714e-06
4.34072e-05
-7.15095e-06
4.53666e-05
-7.05174e-06
4.72878e-05
-6.91347e-06
4.91612e-05
-6.74065e-06
5.09783e-05
-6.53811e-06
5.27323e-05
-6.31076e-06
5.44175e-05
-6.06339e-06
5.60295e-05
-5.80056e-06
5.75652e-05
-5.52651e-06
5.90225e-05
-5.24506e-06
6.04003e-05
-4.95964e-06
6.16984e-05
-4.67324e-06
6.2917e-05
-4.38843e-06
6.40574e-05
-4.1074e-06
6.5121e-05
-3.83199e-06
6.61098e-05
-3.56369e-06
6.70261e-05
-3.3037e-06
6.78725e-05
-3.05296e-06
6.86517e-05
-2.81216e-06
6.93666e-05
-2.58182e-06
7.00201e-05
-2.36225e-06
7.06153e-05
-2.15363e-06
7.11553e-05
-1.95601e-06
7.16429e-05
-1.76929e-06
7.20812e-05
-1.59332e-06
7.2473e-05
-1.42783e-06
7.28211e-05
-1.27249e-06
7.31282e-05
-1.1269e-06
7.33968e-05
-9.90611e-07
7.36294e-05
-8.63112e-07
7.38281e-05
-7.43849e-07
7.3995e-05
-6.32224e-07
7.41321e-05
-5.27596e-07
7.4241e-05
-4.29283e-07
7.43234e-05
-3.36565e-07
7.43804e-05
-2.48679e-07
7.44133e-05
-1.64819e-07
7.44229e-05
-8.41358e-08
7.44098e-05
-5.73467e-09
7.43744e-05
7.13277e-08
7.4317e-05
1.48073e-07
7.42374e-05
2.25634e-07
7.41351e-05
3.05256e-07
7.40095e-05
3.88318e-07
7.38594e-05
4.76365e-07
7.36834e-05
5.71145e-07
7.34796e-05
6.74669e-07
7.32458e-05
7.89287e-07
7.29791e-05
9.17786e-07
7.26763e-05
1.06353e-06
7.23337e-05
1.23065e-06
7.19473e-05
1.42428e-06
7.15129e-05
1.6509e-06
7.10265e-05
1.91874e-06
7.0486e-05
2.23829e-06
6.98921e-05
2.62277e-06
6.92533e-05
3.08847e-06
6.85918e-05
3.65434e-06
6.79553e-05
4.33999e-06
6.74349e-05
5.16001e-06
6.71829e-05
6.10993e-06
7.13233e-06
6.73883e-05
1.55252e-05
-1.31472e-06
1.60562e-05
-2.40408e-06
1.67943e-05
-3.30559e-06
1.77114e-05
-4.07935e-06
1.87857e-05
-4.7594e-06
2.00012e-05
-5.36908e-06
2.13455e-05
-5.9253e-06
2.28093e-05
-6.43989e-06
2.43849e-05
-6.91994e-06
2.60652e-05
-7.36828e-06
2.78431e-05
-7.78413e-06
2.97104e-05
-8.16382e-06
3.16578e-05
-8.50183e-06
3.36742e-05
-8.79185e-06
3.57472e-05
-9.02784e-06
3.7863e-05
-9.20485e-06
4.00071e-05
-9.31961e-06
4.21645e-05
-9.37084e-06
4.43205e-05
-9.35924e-06
4.64608e-05
-9.28734e-06
4.85722e-05
-9.15916e-06
5.06426e-05
-8.97988e-06
5.26614e-05
-8.75543e-06
5.46194e-05
-8.49212e-06
5.65091e-05
-8.19638e-06
5.83242e-05
-7.87451e-06
6.00601e-05
-7.53247e-06
6.17133e-05
-7.17579e-06
6.32816e-05
-6.80947e-06
6.47638e-05
-6.43798e-06
6.61596e-05
-6.06523e-06
6.74694e-05
-5.69457e-06
6.86945e-05
-5.32885e-06
6.98365e-05
-4.97044e-06
7.08975e-05
-4.62129e-06
7.18801e-05
-4.28295e-06
7.2787e-05
-3.95663e-06
7.36212e-05
-3.64324e-06
7.43858e-05
-3.34342e-06
7.50839e-05
-3.05759e-06
7.5719e-05
-2.78596e-06
7.62941e-05
-2.52858e-06
7.68125e-05
-2.28534e-06
7.72774e-05
-2.05601e-06
7.76918e-05
-1.84026e-06
7.80588e-05
-1.63763e-06
7.83812e-05
-1.44762e-06
7.86616e-05
-1.26962e-06
7.89027e-05
-1.10298e-06
7.91069e-05
-9.46978e-07
7.92763e-05
-8.00837e-07
7.9413e-05
-6.63731e-07
7.95189e-05
-5.34783e-07
7.95955e-05
-4.13065e-07
7.96444e-05
-2.97605e-07
7.96666e-05
-1.87375e-07
7.96632e-05
-8.13004e-08
7.9635e-05
2.17343e-08
7.95825e-05
1.22888e-07
7.95059e-05
2.23442e-07
7.94054e-05
3.2479e-07
7.92806e-05
4.28444e-07
7.9131e-05
5.36056e-07
7.8956e-05
6.49443e-07
7.87544e-05
7.70629e-07
7.85248e-05
9.01889e-07
7.82658e-05
1.04581e-06
7.79757e-05
1.20536e-06
7.76525e-05
1.38401e-06
7.72946e-05
1.58578e-06
7.69005e-05
1.81544e-06
7.64698e-05
2.0786e-06
7.60038e-05
2.38178e-06
7.55066e-05
2.73246e-06
7.49875e-05
3.13878e-06
7.4464e-05
3.60895e-06
7.39656e-05
4.14976e-06
7.35387e-05
4.76388e-06
7.32505e-05
5.44529e-06
7.31856e-05
6.17202e-06
6.89439e-06
7.34208e-05
1.6598e-05
-1.59837e-06
1.71523e-05
-2.95789e-06
1.79287e-05
-4.08104e-06
1.88976e-05
-5.04712e-06
2.00366e-05
-5.89682e-06
2.13283e-05
-6.65886e-06
2.27596e-05
-7.3545e-06
2.43208e-05
-7.99865e-06
2.60038e-05
-8.60027e-06
2.78015e-05
-9.163e-06
2.97063e-05
-9.68585e-06
3.17099e-05
-1.01641e-05
3.38024e-05
-1.05908e-05
3.59718e-05
-1.09576e-05
3.82047e-05
-1.12569e-05
4.0486e-05
-1.14822e-05
4.27997e-05
-1.16293e-05
4.51292e-05
-1.16963e-05
4.74582e-05
-1.16841e-05
4.97709e-05
-1.15959e-05
5.20527e-05
-1.14367e-05
5.42902e-05
-1.12131e-05
5.64717e-05
-1.09326e-05
5.8587e-05
-1.06031e-05
6.06278e-05
-1.02329e-05
6.25875e-05
-9.82985e-06
6.44607e-05
-9.40149e-06
6.6244e-05
-8.95479e-06
6.79347e-05
-8.49605e-06
6.95318e-05
-8.03088e-06
7.10348e-05
-7.56417e-06
7.24443e-05
-7.10014e-06
7.37617e-05
-6.64234e-06
7.49888e-05
-6.19375e-06
7.6128e-05
-5.75677e-06
7.7182e-05
-5.33335e-06
7.81539e-05
-4.92497e-06
7.90467e-05
-4.53277e-06
7.98641e-05
-4.15754e-06
8.06093e-05
-3.79977e-06
8.12859e-05
-3.45972e-06
8.18975e-05
-3.13744e-06
8.24475e-05
-2.83279e-06
8.29393e-05
-2.54545e-06
8.33763e-05
-2.27501e-06
8.37615e-05
-2.0209e-06
8.40982e-05
-1.78248e-06
8.43891e-05
-1.55899e-06
8.4637e-05
-1.34961e-06
8.48446e-05
-1.15344e-06
8.50142e-05
-9.69527e-07
8.51479e-05
-7.96838e-07
8.52479e-05
-6.34295e-07
8.53157e-05
-4.80761e-07
8.53531e-05
-3.35045e-07
8.53613e-05
-1.95901e-07
8.53415e-05
-6.20405e-08
8.52945e-05
6.78547e-08
8.52212e-05
1.95147e-07
8.51221e-05
3.21355e-07
8.49973e-05
4.48104e-07
8.48469e-05
5.7712e-07
8.46708e-05
7.10256e-07
8.44686e-05
8.49512e-07
8.42399e-05
9.97062e-07
8.3984e-05
1.15528e-06
8.37005e-05
1.32676e-06
8.33887e-05
1.5144e-06
8.30485e-05
1.72135e-06
8.26801e-05
1.95113e-06
8.22849e-05
2.20756e-06
8.18656e-05
2.49474e-06
8.14273e-05
2.8169e-06
8.09784e-05
3.17813e-06
8.0532e-05
3.58186e-06
8.01078e-05
4.02998e-06
7.97328e-05
4.52154e-06
7.94425e-05
5.05092e-06
7.92793e-05
5.60542e-06
7.92856e-05
6.16264e-06
6.68828e-06
7.94887e-05
1.77458e-05
-1.88939e-06
1.83238e-05
-3.53532e-06
1.91392e-05
-4.89551e-06
2.01619e-05
-6.06841e-06
2.13681e-05
-7.10142e-06
2.27398e-05
-8.02856e-06
2.42633e-05
-8.87571e-06
2.59285e-05
-9.66118e-06
2.77271e-05
-1.03961e-05
2.96521e-05
-1.10848e-05
3.16959e-05
-1.17263e-05
3.38499e-05
-1.23145e-05
3.61035e-05
-1.28406e-05
3.8444e-05
-1.32942e-05
4.08566e-05
-1.36654e-05
4.33246e-05
-1.3946e-05
4.58301e-05
-1.41304e-05
4.83546e-05
-1.42164e-05
5.08797e-05
-1.42048e-05
5.33878e-05
-1.40994e-05
5.58624e-05
-1.39067e-05
5.82887e-05
-1.36347e-05
6.06534e-05
-1.32927e-05
6.29456e-05
-1.28906e-05
6.51559e-05
-1.24386e-05
6.7277e-05
-1.19463e-05
6.93033e-05
-1.14232e-05
7.12308e-05
-1.08778e-05
7.3057e-05
-1.03177e-05
7.47805e-05
-9.74996e-06
7.64011e-05
-9.18047e-06
7.79197e-05
-8.61439e-06
7.93376e-05
-8.05604e-06
8.06569e-05
-7.50902e-06
8.18804e-05
-6.97627e-06
8.3011e-05
-6.4601e-06
8.40521e-05
-5.96234e-06
8.50073e-05
-5.48431e-06
8.58801e-05
-5.02696e-06
8.66745e-05
-4.59088e-06
8.73943e-05
-4.17636e-06
8.80432e-05
-3.78342e-06
8.86251e-05
-3.41188e-06
8.91435e-05
-3.06137e-06
8.96022e-05
-2.73133e-06
9.00045e-05
-2.42109e-06
9.03538e-05
-2.12985e-06
9.06532e-05
-1.85669e-06
9.09056e-05
-1.60061e-06
9.11139e-05
-1.36053e-06
9.12806e-05
-1.13528e-06
9.14082e-05
-9.23637e-07
9.14986e-05
-7.24313e-07
9.1554e-05
-5.35955e-07
9.15761e-05
-3.57152e-07
9.15663e-05
-1.86443e-07
9.1526e-05
-2.2367e-08
9.14565e-05
1.36573e-07
9.13586e-05
2.91954e-07
9.12331e-05
4.45499e-07
9.10806e-05
5.99009e-07
9.09016e-05
7.54362e-07
9.06963e-05
9.13533e-07
9.04649e-05
1.0786e-06
9.02078e-05
1.25174e-06
8.99252e-05
1.43528e-06
8.96176e-05
1.63163e-06
8.92857e-05
1.84333e-06
8.8931e-05
2.07301e-06
8.85556e-05
2.32333e-06
8.8163e-05
2.59692e-06
8.77581e-05
2.89619e-06
8.73485e-05
3.22317e-06
8.69441e-05
3.57906e-06
8.65586e-05
3.96384e-06
8.62096e-05
4.37554e-06
8.59182e-05
4.80948e-06
8.57083e-05
5.25738e-06
8.56038e-05
5.70658e-06
8.56236e-05
6.13962e-06
6.53524e-06
8.57734e-05
1.89743e-05
-2.18901e-06
1.95769e-05
-4.13734e-06
2.0433e-05
-5.7506e-06
2.15116e-05
-7.14559e-06
2.27886e-05
-8.3766e-06
2.42451e-05
-9.48286e-06
2.58669e-05
-1.04951e-05
2.7644e-05
-1.14354e-05
2.95683e-05
-1.23172e-05
3.16328e-05
-1.31461e-05
3.38305e-05
-1.39203e-05
3.61524e-05
-1.46326e-05
3.85876e-05
-1.52718e-05
4.11222e-05
-1.58246e-05
4.37397e-05
-1.62786e-05
4.64214e-05
-1.66231e-05
4.91468e-05
-1.68513e-05
5.1895e-05
-1.69599e-05
5.46451e-05
-1.695e-05
5.73768e-05
-1.68263e-05
6.00716e-05
-1.65966e-05
6.27126e-05
-1.62708e-05
6.52853e-05
-1.58604e-05
6.77772e-05
-1.53775e-05
7.01782e-05
-1.48345e-05
7.24802e-05
-1.42434e-05
7.46772e-05
-1.36152e-05
7.67649e-05
-1.29606e-05
7.87407e-05
-1.22887e-05
8.06035e-05
-1.16079e-05
8.2353e-05
-1.09253e-05
8.39903e-05
-1.02471e-05
8.55172e-05
-9.57839e-06
8.69361e-05
-8.9235e-06
8.825e-05
-8.28589e-06
8.94623e-05
-7.66828e-06
9.05768e-05
-7.07281e-06
9.15975e-05
-6.50104e-06
9.25283e-05
-5.95405e-06
9.33734e-05
-5.43251e-06
9.41372e-05
-4.93672e-06
9.48236e-05
-4.46671e-06
9.54369e-05
-4.02222e-06
9.59811e-05
-3.60278e-06
9.646e-05
-3.20771e-06
9.68775e-05
-2.83621e-06
9.7237e-05
-2.48729e-06
9.7542e-05
-2.15987e-06
9.77957e-05
-1.85276e-06
9.80012e-05
-1.56468e-06
9.81612e-05
-1.29426e-06
9.82784e-05
-1.04005e-06
9.83552e-05
-8.00552e-07
9.83937e-05
-5.74202e-07
9.83958e-05
-3.59375e-07
9.83635e-05
-1.54406e-07
9.82982e-05
4.23004e-08
9.82015e-05
2.32375e-07
9.80747e-05
4.17644e-07
9.79188e-05
5.99981e-07
9.77349e-05
7.81304e-07
9.75238e-05
9.63572e-07
9.72864e-05
1.1488e-06
9.70236e-05
1.33903e-06
9.67364e-05
1.53635e-06
9.6426e-05
1.74287e-06
9.6094e-05
1.96068e-06
9.57424e-05
2.19183e-06
9.53739e-05
2.43825e-06
9.49922e-05
2.70169e-06
9.4602e-05
2.98358e-06
9.42098e-05
3.28486e-06
9.38235e-05
3.60578e-06
9.34533e-05
3.94558e-06
9.31113e-05
4.30222e-06
9.28111e-05
4.67196e-06
9.25678e-05
5.04909e-06
9.23959e-05
5.42562e-06
9.23076e-05
5.79132e-06
9.23096e-05
6.13414e-06
6.44158e-06
9.23998e-05
2.02892e-05
-2.49878e-06
2.09181e-05
-4.76557e-06
2.18173e-05
-6.64868e-06
2.29551e-05
-8.28189e-06
2.43072e-05
-9.72673e-06
2.58542e-05
-1.10276e-05
2.7582e-05
-1.22203e-05
2.94807e-05
-1.33311e-05
3.1543e-05
-1.43762e-05
3.37628e-05
-1.53622e-05
3.61333e-05
-1.6287e-05
3.8646e-05
-1.71412e-05
4.12892e-05
-1.79106e-05
4.40477e-05
-1.85785e-05
4.69026e-05
-1.91288e-05
4.98325e-05
-1.95481e-05
5.28136e-05
-1.98274e-05
5.58215e-05
-1.99627e-05
5.88319e-05
-1.99552e-05
6.18217e-05
-1.98108e-05
6.47695e-05
-1.9539e-05
6.76562e-05
-1.91522e-05
7.04655e-05
-1.86643e-05
7.31835e-05
-1.80902e-05
7.57991e-05
-1.74448e-05
7.83036e-05
-1.67425e-05
8.06907e-05
-1.5997e-05
8.29559e-05
-1.52205e-05
8.50966e-05
-1.44242e-05
8.71119e-05
-1.3618e-05
8.90018e-05
-1.28102e-05
9.07679e-05
-1.20082e-05
9.24122e-05
-1.12178e-05
9.39377e-05
-1.04442e-05
9.53479e-05
-9.69142e-06
9.66466e-05
-8.96251e-06
9.78381e-05
-8.25996e-06
9.89268e-05
-7.58555e-06
9.99172e-05
-6.94048e-06
0.000100814
-6.3255e-06
0.000101622
-5.74092e-06
0.000102345
-5.18672e-06
0.000102989
-4.66255e-06
0.000103557
-4.16784e-06
0.000104054
-3.70177e-06
0.000104483
-3.26336e-06
0.00010485
-2.85146e-06
0.000105157
-2.4648e-06
0.000105408
-2.10197e-06
0.000105606
-1.76149e-06
0.000105755
-1.44176e-06
0.000105857
-1.14114e-06
0.000105915
-8.57902e-07
0.000105931
-5.90266e-07
0.000105908
-3.36413e-07
0.000105848
-9.45384e-08
0.000105752
1.37131e-07
0.000105623
3.60354e-07
0.000105463
5.77133e-07
0.000105272
7.89463e-07
0.000105052
9.99324e-07
0.000104805
1.20869e-06
0.000104532
1.41954e-06
0.000104235
1.63381e-06
0.000103915
1.8534e-06
0.000103575
2.08012e-06
0.000103217
2.31565e-06
0.000102844
2.5615e-06
0.00010246
2.81892e-06
0.000102069
3.08883e-06
0.000101677
3.37166e-06
0.000101291
3.66728e-06
0.000100918
3.97478e-06
0.000100567
4.29234e-06
0.000100249
4.61709e-06
9.99716e-05
4.94492e-06
9.97463e-05
5.27053e-06
9.95806e-05
5.5874e-06
9.948e-05
5.88814e-06
9.94454e-05
6.16492e-06
6.41071e-06
9.94726e-05
2.16967e-05
-2.82053e-06
2.23542e-05
-5.42231e-06
2.32996e-05
-7.59294e-06
2.45009e-05
-9.48154e-06
2.59336e-05
-1.11573e-05
2.75784e-05
-1.26699e-05
2.94216e-05
-1.40606e-05
3.14543e-05
-1.53605e-05
3.36705e-05
-1.65888e-05
3.60655e-05
-1.77533e-05
3.8634e-05
-1.88512e-05
4.13675e-05
-1.98702e-05
4.42535e-05
-2.07919e-05
4.72748e-05
-2.15949e-05
5.04093e-05
-2.22583e-05
5.36315e-05
-2.2765e-05
5.69131e-05
-2.31037e-05
6.02252e-05
-2.32693e-05
6.35392e-05
-2.32636e-05
6.6828e-05
-2.3094e-05
7.00672e-05
-2.27724e-05
7.3235e-05
-2.23142e-05
7.63131e-05
-2.17366e-05
7.92863e-05
-2.10576e-05
8.21426e-05
-2.02952e-05
8.48727e-05
-1.94669e-05
8.74701e-05
-1.85886e-05
8.99305e-05
-1.76752e-05
9.22515e-05
-1.67396e-05
9.44324e-05
-1.57934e-05
9.64741e-05
-1.48464e-05
9.83783e-05
-1.3907e-05
0.000100148
-1.29821e-05
0.000101786
-1.20776e-05
0.000103298
-1.11978e-05
0.000104687
-1.03466e-05
0.000105958
-9.52645e-06
0.000107116
-8.73949e-06
0.000108167
-7.98702e-06
0.000109116
-7.26979e-06
0.000109967
-6.58812e-06
0.000110726
-5.9419e-06
0.000111397
-5.3307e-06
0.000111987
-4.75379e-06
0.000112498
-4.2102e-06
0.000112936
-3.69877e-06
0.000113305
-3.21816e-06
0.00011361
-2.76686e-06
0.000113853
-2.34328e-06
0.000114039
-1.94569e-06
0.00011417
-1.5723e-06
0.000114252
-1.22122e-06
0.000114285
-8.90518e-07
0.000114273
-5.78204e-07
0.000114219
-2.8225e-07
0.000114125
-8.51282e-10
0.000113994
2.679e-07
0.000113827
5.26109e-07
0.000113627
7.75838e-07
0.000113396
1.01912e-06
0.000113135
1.25796e-06
0.000112848
1.4943e-06
0.000112535
1.73001e-06
0.000112199
1.96687e-06
0.000111843
2.20655e-06
0.00011147
2.45053e-06
0.000111082
2.70009e-06
0.000110684
2.95625e-06
0.000110279
3.21969e-06
0.000109874
3.49066e-06
0.000109473
3.76896e-06
0.000109082
4.05377e-06
0.000108709
4.34364e-06
0.000108361
4.6364e-06
0.000108045
4.92912e-06
0.000107767
5.21814e-06
0.000107535
5.49915e-06
0.000107351
5.76733e-06
0.000107217
6.01768e-06
0.000107132
6.24539e-06
6.44671e-06
0.000107092
2.32033e-05
-3.15635e-06
2.38923e-05
-6.11055e-06
2.48881e-05
-8.58745e-06
2.61582e-05
-1.07499e-05
2.76785e-05
-1.26753e-05
2.94302e-05
-1.44189e-05
3.14008e-05
-1.60281e-05
3.35832e-05
-1.75394e-05
3.59742e-05
-1.89758e-05
3.85714e-05
-2.03463e-05
4.13711e-05
-2.16464e-05
4.43655e-05
-2.28598e-05
4.75406e-05
-2.3962e-05
5.08758e-05
-2.49247e-05
5.43442e-05
-2.57212e-05
5.79144e-05
-2.63295e-05
6.15519e-05
-2.67354e-05
6.52219e-05
-2.69333e-05
6.88901e-05
-2.69258e-05
7.25251e-05
-2.67228e-05
7.60986e-05
-2.63397e-05
7.95863e-05
-2.57956e-05
8.29677e-05
-2.51118e-05
8.62266e-05
-2.43102e-05
8.93501e-05
-2.34125e-05
9.23289e-05
-2.24394e-05
9.51565e-05
-2.141e-05
9.7829e-05
-2.03415e-05
0.000100345
-1.92491e-05
0.000102703
-1.8146e-05
0.000104906
-1.70437e-05
0.000106957
-1.59516e-05
0.000108858
-1.48776e-05
0.000110614
-1.38283e-05
0.000112231
-1.28087e-05
0.000113712
-1.18228e-05
0.000115065
-1.08736e-05
0.000116293
-9.9633e-06
0.000117404
-9.09321e-06
0.000118403
-8.26416e-06
0.000119296
-7.47638e-06
0.000120087
-6.72969e-06
0.000120784
-6.02351e-06
0.000121391
-5.35695e-06
0.000121913
-4.72886e-06
0.000122355
-4.13785e-06
0.000122722
-3.58238e-06
0.000123018
-3.06072e-06
0.000123248
-2.57105e-06
0.000123415
-2.11141e-06
0.000123524
-1.67977e-06
0.000123578
-1.27404e-06
0.000123581
-8.92079e-07
0.000123535
-5.31696e-07
0.000123443
-1.90752e-07
0.000123309
1.32781e-07
0.000123136
4.40857e-07
0.000122925
7.35767e-07
0.00012268
1.01968e-06
0.000122403
1.29467e-06
0.000122097
1.56269e-06
0.000121763
1.82563e-06
0.000121405
2.08525e-06
0.000121026
2.34314e-06
0.000120629
2.60073e-06
0.000120217
2.85921e-06
0.000119794
3.11954e-06
0.000119365
3.38232e-06
0.000118933
3.64785e-06
0.000118503
3.91598e-06
0.000118082
4.18614e-06
0.000117674
4.45727e-06
0.000117286
4.72781e-06
0.000116922
4.99571e-06
0.000116589
5.25843e-06
0.000116289
5.51307e-06
0.000116028
5.75645e-06
0.000115805
5.98527e-06
0.000115622
6.19634e-06
0.000115476
6.38687e-06
6.55504e-06
0.000115364
2.48157e-05
-3.50854e-06
2.554e-05
-6.83398e-06
2.65912e-05
-9.63729e-06
2.79369e-05
-1.20937e-05
2.95535e-05
-1.42895e-05
3.14237e-05
-1.62862e-05
3.35372e-05
-1.81383e-05
3.58906e-05
-1.98889e-05
3.84843e-05
-2.15654e-05
4.13202e-05
-2.31777e-05
4.43968e-05
-2.47182e-05
4.77062e-05
-2.6164e-05
5.12316e-05
-2.74819e-05
5.49469e-05
-2.86343e-05
5.88177e-05
-2.95861e-05
6.28043e-05
-3.031e-05
6.68639e-05
-3.07887e-05
7.09537e-05
-3.10167e-05
7.50333e-05
-3.09988e-05
7.90658e-05
-3.07487e-05
8.30192e-05
-3.02864e-05
8.68665e-05
-2.96362e-05
9.05857e-05
-2.88242e-05
9.41597e-05
-2.78773e-05
9.75754e-05
-2.68214e-05
0.000100824
-2.56811e-05
0.000103899
-2.44785e-05
0.000106798
-2.32337e-05
0.00010952
-2.19642e-05
0.000112065
-2.06851e-05
0.000114438
-1.94093e-05
0.00011664
-1.81474e-05
0.000118677
-1.69084e-05
0.000120554
-1.56992e-05
0.000122276
-1.45256e-05
0.000123851
-1.33918e-05
0.000125284
-1.23011e-05
0.000126582
-1.12558e-05
0.000127751
-1.02572e-05
0.000128798
-9.30608e-06
0.000129729
-8.40263e-06
0.00013055
-7.54649e-06
0.000131268
-6.73692e-06
0.000131887
-5.97283e-06
0.000132415
-5.25285e-06
0.000132856
-4.57538e-06
0.000133215
-3.93862e-06
0.000133498
-3.34061e-06
0.000133708
-2.77929e-06
0.000133851
-2.25246e-06
0.000133931
-1.75788e-06
0.000133952
-1.29322e-06
0.000133917
-8.56121e-07
0.00013383
-4.44208e-07
0.000133695
-5.53858e-08
0.000133515
3.12596e-07
0.000133293
6.62059e-07
0.000133033
9.95323e-07
0.000132736
1.31458e-06
0.000132408
1.62191e-06
0.000132049
1.91923e-06
0.000131664
2.20837e-06
0.000131256
2.49094e-06
0.000130828
2.76841e-06
0.000130384
3.04199e-06
0.000129927
3.31267e-06
0.000129462
3.58114e-06
0.000128992
3.8478e-06
0.000128524
4.11271e-06
0.00012806
4.37557e-06
0.000127606
4.63573e-06
0.000127167
4.89215e-06
0.000126746
5.14347e-06
0.00012635
5.38802e-06
0.00012598
5.62385e-06
0.000125639
5.84888e-06
0.00012533
6.06095e-06
0.000125053
6.25797e-06
0.000124806
6.43806e-06
0.000124589
6.59973e-06
6.74232e-06
0.000124397
2.65415e-05
-3.87968e-06
2.73055e-05
-7.59711e-06
2.84184e-05
-1.07487e-05
2.98481e-05
-1.35213e-05
3.15721e-05
-1.60109e-05
3.35758e-05
-1.82867e-05
3.5853e-05
-2.04119e-05
3.84059e-05
-2.24377e-05
4.12414e-05
-2.43963e-05
4.43665e-05
-2.62978e-05
4.77822e-05
-2.81286e-05
5.14792e-05
-2.98554e-05
5.54348e-05
-3.14316e-05
5.9614e-05
-3.28072e-05
6.39711e-05
-3.39368e-05
6.84548e-05
-3.4787e-05
7.30114e-05
-3.53385e-05
7.75891e-05
-3.55874e-05
8.21401e-05
-3.55426e-05
8.66222e-05
-3.52236e-05
9.1e-05
-3.46569e-05
9.52443e-05
-3.38732e-05
9.93323e-05
-3.29049e-05
0.000103247
-3.17844e-05
0.000106975
-3.05426e-05
0.00011051
-2.92081e-05
0.000113845
-2.78068e-05
0.000116981
-2.63616e-05
0.000119916
-2.48923e-05
0.000122654
-2.34159e-05
0.000125198
-2.19467e-05
0.000127554
-2.04965e-05
0.000129727
-1.90749e-05
0.000131725
-1.76898e-05
0.000133553
-1.63472e-05
0.000135219
-1.50516e-05
0.00013673
-1.38064e-05
0.000138094
-1.26138e-05
0.000139318
-1.14754e-05
0.000140409
-1.03916e-05
0.000141374
-9.36255e-06
0.00014222
-8.38769e-06
0.000142953
-7.46605e-06
0.000143581
-6.59631e-06
0.000144109
-5.77685e-06
0.000144543
-5.00582e-06
0.000144889
-4.28118e-06
0.000145152
-3.6007e-06
0.000145338
-2.96206e-06
0.00014545
-2.36285e-06
0.000145495
-1.80058e-06
0.000145476
-1.27271e-06
0.000145398
-7.76691e-07
0.000145264
-3.10009e-07
0.00014508
1.29641e-07
0.000144848
5.44554e-07
0.000144572
9.37393e-07
0.000144256
1.31055e-06
0.000143903
1.66623e-06
0.000143517
2.00649e-06
0.000143101
2.33325e-06
0.000142659
2.64824e-06
0.000142194
2.95301e-06
0.000141711
3.24891e-06
0.000141213
3.53703e-06
0.000140704
3.81823e-06
0.000140188
4.09308e-06
0.00013967
4.3619e-06
0.000139154
4.6247e-06
0.000138644
4.88122e-06
0.000138145
5.13091e-06
0.000137659
5.37297e-06
0.000137192
5.60639e-06
0.000136745
5.82998e-06
0.000136321
6.04243e-06
0.000135923
6.2424e-06
0.00013555
6.42858e-06
0.000135204
6.5998e-06
0.000134882
6.75507e-06
0.000134583
6.89375e-06
7.01588e-06
0.000134305
2.83882e-05
-4.27273e-06
2.91975e-05
-8.40542e-06
3.03799e-05
-1.19294e-05
3.1904e-05
-1.50432e-05
3.37499e-05
-1.78539e-05
3.59071e-05
-2.04405e-05
3.83767e-05
-2.28775e-05
4.11693e-05
-2.52259e-05
4.43011e-05
-2.75232e-05
4.77855e-05
-2.97768e-05
5.16249e-05
-3.19622e-05
5.5805e-05
-3.40293e-05
6.02924e-05
-3.59126e-05
6.50373e-05
-3.75453e-05
6.99784e-05
-3.88709e-05
7.50489e-05
-3.98503e-05
8.01824e-05
-4.04646e-05
8.53168e-05
-4.07142e-05
9.03972e-05
-4.06152e-05
9.53768e-05
-4.01954e-05
0.000100217
-3.94897e-05
0.000104889
-3.85371e-05
0.00010937
-3.73772e-05
0.000113642
-3.6049e-05
0.000117697
-3.45887e-05
0.000121526
-3.30295e-05
0.000125128
-3.14007e-05
0.000128503
-2.97283e-05
0.000131653
-2.80344e-05
0.000134582
-2.63377e-05
0.000137297
-2.46539e-05
0.000139804
-2.29958e-05
0.00014211
-2.13738e-05
0.000144224
-1.97961e-05
0.000146153
-1.8269e-05
0.000147905
-1.67972e-05
0.00014949
-1.53842e-05
0.000150914
-1.40322e-05
0.000152188
-1.27424e-05
0.000153317
-1.15153e-05
0.000154311
-1.03507e-05
0.000155176
-9.24775e-06
0.000155921
-8.20534e-06
0.000156551
-7.22182e-06
0.000157074
-6.29531e-06
0.000157496
-5.42367e-06
0.000157823
-4.60457e-06
0.000158061
-3.83554e-06
0.000158216
-3.11399e-06
0.000158293
-2.43726e-06
0.000158297
-1.80264e-06
0.000158234
-1.20737e-06
0.000158107
-6.48726e-07
0.000157923
-1.24207e-07
0.000157684
3.68943e-07
0.000157395
8.33322e-07
0.000157061
1.27159e-06
0.000156684
1.68621e-06
0.00015627
2.07942e-06
0.000155822
2.45331e-06
0.000155344
2.80977e-06
0.000154839
3.15053e-06
0.000154313
3.47709e-06
0.000153768
3.79074e-06
0.000153209
4.09255e-06
0.000152641
4.38334e-06
0.000152066
4.6637e-06
0.00015149
4.93397e-06
0.000150916
5.19427e-06
0.000150349
5.4445e-06
0.000149791
5.68436e-06
0.000149246
5.91338e-06
0.000148716
6.13095e-06
0.000148205
6.33639e-06
0.000147713
6.52897e-06
0.000147243
6.70799e-06
0.000146793
6.87282e-06
0.000146365
7.02292e-06
0.000145957
7.15796e-06
0.000145568
7.27784e-06
7.38303e-06
0.000145196
3.03645e-05
-4.69107e-06
3.12257e-05
-9.26556e-06
3.24871e-05
-1.31891e-05
3.41193e-05
-1.66729e-05
3.61061e-05
-1.98376e-05
3.84446e-05
-2.27753e-05
4.11466e-05
-2.55752e-05
4.42362e-05
-2.83107e-05
4.77414e-05
-3.10231e-05
5.16818e-05
-3.37113e-05
5.60574e-05
-3.63316e-05
6.08422e-05
-3.88073e-05
6.59843e-05
-4.10476e-05
7.14122e-05
-4.29659e-05
7.70434e-05
-4.44945e-05
8.27931e-05
-4.55921e-05
8.85808e-05
-4.62441e-05
9.43345e-05
-4.64597e-05
9.99934e-05
-4.62657e-05
0.000105508
-4.57012e-05
0.000110839
-4.4812e-05
0.000115957
-4.36467e-05
0.000120842
-4.22534e-05
0.00012548
-4.06779e-05
0.000129862
-3.89623e-05
0.000133986
-3.71442e-05
0.00013785
-3.52567e-05
0.000141459
-3.33285e-05
0.000144817
-3.13839e-05
0.000147931
-2.9443e-05
0.000150808
-2.75229e-05
0.000153458
-2.5637e-05
0.000155889
-2.37963e-05
0.00015811
-2.20093e-05
0.000160131
-2.02825e-05
0.000161962
-1.86205e-05
0.000163612
-1.70267e-05
0.00016509
-1.55031e-05
0.000166405
-1.40509e-05
0.000167566
-1.26701e-05
0.000168582
-1.13602e-05
0.000169461
-1.01203e-05
0.00017021
-8.94876e-06
0.000170837
-7.84366e-06
0.000171349
-6.80281e-06
0.000171754
-5.82377e-06
0.000172058
-4.90392e-06
0.000172266
-4.04051e-06
0.000172387
-3.2307e-06
0.000172424
-2.47156e-06
0.000172384
-1.76016e-06
0.000172272
-1.09355e-06
0.000172094
-4.6881e-07
0.000171854
1.16792e-07
0.000171558
6.66098e-07
0.00017121
1.18223e-06
0.000170813
1.66789e-06
0.000170373
2.12554e-06
0.000169895
2.55747e-06
0.000169381
2.96581e-06
0.000168836
3.3525e-06