/*--------------------------------*- C++ -*----------------------------------*\
  =========                 |
  \\      /  F ield         | OpenFOAM: The Open Source CFD Toolbox
   \\    /   O peration     | Website:  https://openfoam.org
    \\  /    A nd           | Version:  7
     \\/     M anipulation  |
\*---------------------------------------------------------------------------*/
FoamFile
{
    version     2.0;
    format      ascii;
    class       surfaceScalarField;
    location    "0.85";
    object      phi;
}
// * * * * * * * * * * * * * * * * * * * * * * * * * * * * * * * * * * * * * //

dimensions      [1 0 -1 0 0 0 0];

internalField   nonuniform List<scalar> 
23692
(
1.16343e-05
6.44816e-10
1.16325e-05
1.83688e-09
1.16286e-05
3.83521e-09
1.1622e-05
6.66645e-09
1.16119e-05
1.0059e-08
1.15984e-05
1.35065e-08
1.15819e-05
1.64766e-08
1.15633e-05
1.86127e-08
1.15435e-05
1.9823e-08
1.15232e-05
2.02419e-08
1.15031e-05
2.01256e-08
1.14834e-05
1.97421e-08
1.14641e-05
1.92989e-08
1.14452e-05
1.89227e-08
1.14265e-05
1.86655e-08
1.1408e-05
1.85305e-08
1.13895e-05
1.84953e-08
1.13709e-05
1.85314e-08
1.13523e-05
1.86124e-08
1.13336e-05
1.87195e-08
1.13148e-05
1.88413e-08
1.12958e-05
1.89712e-08
1.12767e-05
1.9108e-08
1.12574e-05
1.9252e-08
1.1238e-05
1.94043e-08
1.12185e-05
1.95679e-08
1.11987e-05
1.97443e-08
1.11788e-05
1.99357e-08
1.11586e-05
2.01437e-08
1.11383e-05
2.03697e-08
1.11176e-05
2.06148e-08
1.10968e-05
2.08803e-08
1.10756e-05
2.11667e-08
1.10541e-05
2.14744e-08
1.10323e-05
2.18045e-08
1.10102e-05
2.21572e-08
1.09876e-05
2.25335e-08
1.09647e-05
2.29341e-08
1.09413e-05
2.336e-08
1.09175e-05
2.38124e-08
1.08932e-05
2.42931e-08
1.08684e-05
2.4804e-08
1.08431e-05
2.53473e-08
1.08172e-05
2.59259e-08
1.07906e-05
2.65434e-08
1.07634e-05
2.72037e-08
1.07355e-05
2.79115e-08
1.07068e-05
2.86725e-08
1.06773e-05
2.94933e-08
1.06469e-05
3.03815e-08
1.06156e-05
3.13458e-08
1.05832e-05
3.23969e-08
1.05497e-05
3.35466e-08
1.05148e-05
3.48095e-08
1.04786e-05
3.62024e-08
1.04409e-05
3.77451e-08
1.04014e-05
3.94614e-08
1.03601e-05
4.138e-08
1.03165e-05
4.3535e-08
1.02706e-05
4.59682e-08
1.02218e-05
4.87308e-08
1.01699e-05
5.18858e-08
1.01144e-05
5.55122e-08
1.00547e-05
5.97095e-08
9.99011e-06
6.46042e-08
9.91975e-06
7.03606e-08
9.84256e-06
7.71931e-08
9.75717e-06
8.5387e-08
9.66184e-06
9.53271e-08
9.5543e-06
1.07541e-07
9.43153e-06
1.22767e-07
9.28948e-06
1.42051e-07
9.12257e-06
1.66909e-07
8.923e-06
1.99569e-07
8.67964e-06
2.43369e-07
8.37626e-06
3.0337e-07
7.98897e-06
3.87297e-07
7.4819e-06
5.07063e-07
6.7995e-06
6.82402e-07
5.84975e-06
9.49756e-07
1.40586e-06
4.44389e-06
1.24493e-05
1.31044e-09
1.24473e-05
3.77228e-09
1.24433e-05
7.89275e-09
1.24362e-05
1.37348e-08
1.24255e-05
2.07445e-08
1.24111e-05
2.78761e-08
1.23936e-05
3.40272e-08
1.23737e-05
3.84594e-08
1.23526e-05
4.09776e-08
1.2331e-05
4.18593e-08
1.23095e-05
4.16307e-08
1.22884e-05
4.08444e-08
1.22677e-05
3.99327e-08
1.22475e-05
3.91557e-08
1.22275e-05
3.86232e-08
1.22077e-05
3.83417e-08
1.2188e-05
3.82669e-08
1.21681e-05
3.83387e-08
1.21483e-05
3.8504e-08
1.21283e-05
3.87237e-08
1.21081e-05
3.89734e-08
1.20878e-05
3.92414e-08
1.20674e-05
3.95235e-08
1.20469e-05
3.98205e-08
1.20261e-05
4.01359e-08
1.20052e-05
4.04739e-08
1.19841e-05
4.08388e-08
1.19628e-05
4.12348e-08
1.19413e-05
4.16652e-08
1.19196e-05
4.21328e-08
1.18975e-05
4.26402e-08
1.18752e-05
4.3189e-08
1.18526e-05
4.37808e-08
1.18297e-05
4.44173e-08
1.18064e-05
4.50993e-08
1.17827e-05
4.58285e-08
1.17586e-05
4.66061e-08
1.17341e-05
4.74336e-08
1.17092e-05
4.83134e-08
1.16837e-05
4.92481e-08
1.16578e-05
5.02407e-08
1.16313e-05
5.12953e-08
1.16042e-05
5.24168e-08
1.15765e-05
5.3611e-08
1.15482e-05
5.4885e-08
1.15192e-05
5.62471e-08
1.14894e-05
5.7707e-08
1.14588e-05
5.92762e-08
1.14273e-05
6.09679e-08
1.13949e-05
6.27978e-08
1.13614e-05
6.47841e-08
1.13269e-05
6.69481e-08
1.12911e-05
6.93144e-08
1.1254e-05
7.19122e-08
1.12154e-05
7.47758e-08
1.11752e-05
7.79457e-08
1.11332e-05
8.14701e-08
1.10892e-05
8.54064e-08
1.10429e-05
8.98242e-08
1.09941e-05
9.48074e-08
1.09423e-05
1.00458e-07
1.08873e-05
1.06904e-07
1.08285e-05
1.14301e-07
1.07654e-05
1.22846e-07
1.06972e-05
1.32791e-07
1.06231e-05
1.44455e-07
1.0542e-05
1.58257e-07
1.04527e-05
1.74745e-07
1.03534e-05
1.94652e-07
1.02419e-05
2.18971e-07
1.01156e-05
2.49063e-07
9.97087e-06
2.86819e-07
9.80287e-06
3.34903e-07
9.60535e-06
3.97093e-07
9.36995e-06
4.78768e-07
9.08579e-06
5.87529e-07
8.7393e-06
7.33784e-07
8.31549e-06
9.30878e-07
7.8036e-06
1.1943e-06
7.21998e-06
1.53337e-06
1.89691e-06
6.72894e-06
1.33213e-05
1.9961e-09
1.33193e-05
5.79713e-09
1.3315e-05
1.21467e-08
1.33076e-05
2.11646e-08
1.32963e-05
3.20028e-08
1.32812e-05
4.30501e-08
1.32626e-05
5.26022e-08
1.32415e-05
5.95088e-08
1.3219e-05
6.34604e-08
1.3196e-05
6.48743e-08
1.31731e-05
6.45603e-08
1.31506e-05
6.33703e-08
1.31285e-05
6.19729e-08
1.31069e-05
6.07746e-08
1.30856e-05
5.99473e-08
1.30644e-05
5.9505e-08
1.30433e-05
5.93808e-08
1.30222e-05
5.9484e-08
1.30009e-05
5.97329e-08
1.29796e-05
6.00675e-08
1.29581e-05
6.04504e-08
1.29365e-05
6.08627e-08
1.29147e-05
6.1298e-08
1.28928e-05
6.17573e-08
1.28707e-05
6.22459e-08
1.28484e-05
6.27701e-08
1.28259e-05
6.33365e-08
1.28032e-05
6.39511e-08
1.27802e-05
6.46192e-08
1.2757e-05
6.5345e-08
1.27335e-05
6.6132e-08
1.27097e-05
6.69834e-08
1.26856e-05
6.79014e-08
1.26611e-05
6.88879e-08
1.26363e-05
6.99451e-08
1.2611e-05
7.10747e-08
1.25854e-05
7.22789e-08
1.25592e-05
7.35603e-08
1.25326e-05
7.49221e-08
1.25055e-05
7.63683e-08
1.24778e-05
7.79037e-08
1.24496e-05
7.95346e-08
1.24207e-05
8.12684e-08
1.23912e-05
8.31141e-08
1.2361e-05
8.50821e-08
1.23301e-05
8.71857e-08
1.22984e-05
8.94393e-08
1.22658e-05
9.18605e-08
1.22323e-05
9.44697e-08
1.21978e-05
9.72907e-08
1.21622e-05
1.00351e-07
1.21255e-05
1.03683e-07
1.20875e-05
1.07324e-07
1.20481e-05
1.11318e-07
1.20071e-05
1.15717e-07
1.19645e-05
1.20582e-07
1.192e-05
1.25985e-07
1.18734e-05
1.32013e-07
1.18244e-05
1.38768e-07
1.17729e-05
1.46376e-07
1.17183e-05
1.54989e-07
1.16605e-05
1.64791e-07
1.15987e-05
1.76014e-07
1.15326e-05
1.88942e-07
1.14615e-05
2.03935e-07
1.13845e-05
2.21451e-07
1.13007e-05
2.42076e-07
1.12089e-05
2.66571e-07
1.11076e-05
2.95933e-07
1.09951e-05
3.31483e-07
1.08691e-05
3.74987e-07
1.07271e-05
4.28816e-07
1.05659e-05
4.96173e-07
1.03816e-05
5.81353e-07
1.01703e-05
6.90034e-07
9.92845e-06
8.29423e-07
9.65436e-06
1.00788e-06
9.3521e-06
1.23314e-06
9.03902e-06
1.50738e-06
8.75955e-06
1.81283e-06
2.07337e-06
8.58309e-06
1.42544e-05
2.70115e-09
1.42523e-05
7.89626e-09
1.42479e-05
1.65622e-08
1.42402e-05
2.88942e-08
1.42284e-05
4.37493e-08
1.42125e-05
5.89331e-08
1.4193e-05
7.21116e-08
1.41708e-05
8.16946e-08
1.41471e-05
8.72362e-08
1.41227e-05
8.92888e-08
1.40983e-05
8.89471e-08
1.40743e-05
8.73743e-08
1.40507e-05
8.54884e-08
1.40277e-05
8.38526e-08
1.40049e-05
8.27108e-08
1.39823e-05
8.20889e-08
1.39598e-05
8.19006e-08
1.39373e-05
8.20251e-08
1.39146e-05
8.23521e-08
1.38919e-05
8.27999e-08
1.3869e-05
8.33176e-08
1.3846e-05
8.38789e-08
1.38229e-05
8.44743e-08
1.37995e-05
8.51051e-08
1.3776e-05
8.57777e-08
1.37522e-05
8.65003e-08
1.37283e-05
8.72817e-08
1.37041e-05
8.81299e-08
1.36797e-05
8.90518e-08
1.3655e-05
9.00534e-08
1.363e-05
9.11389e-08
1.36046e-05
9.23128e-08
1.3579e-05
9.35778e-08
1.35529e-05
9.49366e-08
1.35265e-05
9.6392e-08
1.34996e-05
9.79464e-08
1.34723e-05
9.96026e-08
1.34445e-05
1.01364e-07
1.34162e-05
1.03236e-07
1.33873e-05
1.05222e-07
1.33579e-05
1.0733e-07
1.33278e-05
1.09568e-07
1.32972e-05
1.11946e-07
1.32658e-05
1.14477e-07
1.32337e-05
1.17174e-07
1.32008e-05
1.20054e-07
1.31671e-05
1.23139e-07
1.31326e-05
1.26451e-07
1.3097e-05
1.30018e-07
1.30604e-05
1.33872e-07
1.30227e-05
1.38049e-07
1.29838e-05
1.42592e-07
1.29436e-05
1.47553e-07
1.29019e-05
1.52988e-07
1.28587e-05
1.58967e-07
1.28137e-05
1.65571e-07
1.27668e-05
1.72894e-07
1.27177e-05
1.81049e-07
1.26663e-05
1.9017e-07
1.26123e-05
2.00421e-07
1.25553e-05
2.11994e-07
1.24949e-05
2.25128e-07
1.24308e-05
2.40113e-07
1.23625e-05
2.57306e-07
1.22893e-05
2.77151e-07
1.22105e-05
3.00206e-07
1.21254e-05
3.27172e-07
1.2033e-05
3.58941e-07
1.19323e-05
3.96654e-07
1.1822e-05
4.41778e-07
1.17008e-05
4.96203e-07
1.15673e-05
5.62361e-07
1.14201e-05
6.43352e-07
1.12584e-05
7.43047e-07
1.10823e-05
8.66074e-07
1.08943e-05
1.01749e-06
1.07004e-05
1.20175e-06
1.05134e-05
1.42014e-06
1.03551e-05
1.66569e-06
1.02546e-05
1.91336e-06
2.10525e-06
1.02227e-05
1.52529e-05
3.42421e-09
1.52507e-05
1.00514e-08
1.52462e-05
2.10928e-08
1.52383e-05
3.68423e-08
1.52261e-05
5.58693e-08
1.52097e-05
7.53921e-08
1.51894e-05
9.2425e-08
1.51662e-05
1.0491e-07
1.51412e-05
1.12238e-07
1.51154e-05
1.15077e-07
1.50895e-05
1.14806e-07
1.5064e-05
1.129e-07
1.50389e-05
1.1054e-07
1.50143e-05
1.08459e-07
1.49901e-05
1.06983e-07
1.4966e-05
1.06158e-07
1.4942e-05
1.05884e-07
1.4918e-05
1.06013e-07
1.4894e-05
1.06406e-07
1.48698e-05
1.06961e-07
1.48455e-05
1.07612e-07
1.48211e-05
1.08324e-07
1.47965e-05
1.09085e-07
1.47717e-05
1.09895e-07
1.47467e-05
1.10762e-07
1.47215e-05
1.11696e-07
1.46961e-05
1.12707e-07
1.46704e-05
1.13805e-07
1.46444e-05
1.14998e-07
1.46182e-05
1.16293e-07
1.45916e-05
1.17698e-07
1.45647e-05
1.19214e-07
1.45375e-05
1.20848e-07
1.45098e-05
1.22601e-07
1.44817e-05
1.24478e-07
1.44532e-05
1.26481e-07
1.44242e-05
1.28614e-07
1.43947e-05
1.30881e-07
1.43646e-05
1.33288e-07
1.4334e-05
1.35841e-07
1.43028e-05
1.3855e-07
1.42709e-05
1.41423e-07
1.42384e-05
1.44474e-07
1.42051e-05
1.47719e-07
1.41711e-05
1.51175e-07
1.41363e-05
1.54863e-07
1.41007e-05
1.5881e-07
1.40641e-05
1.63043e-07
1.40265e-05
1.67599e-07
1.39878e-05
1.72515e-07
1.3948e-05
1.77838e-07
1.3907e-05
1.83621e-07
1.38646e-05
1.89926e-07
1.38208e-05
1.96825e-07
1.37754e-05
2.04402e-07
1.37282e-05
2.12753e-07
1.36791e-05
2.21996e-07
1.36279e-05
2.32265e-07
1.35743e-05
2.43721e-07
1.35182e-05
2.56555e-07
1.34592e-05
2.70997e-07
1.3397e-05
2.87322e-07
1.33312e-05
3.05862e-07
1.32615e-05
3.27022e-07
1.31874e-05
3.51297e-07
1.31083e-05
3.79294e-07
1.30237e-05
4.11761e-07
1.2933e-05
4.49624e-07
1.28356e-05
4.94033e-07
1.2731e-05
5.46408e-07
1.26187e-05
6.08497e-07
1.24986e-05
6.82427e-07
1.23713e-05
7.70722e-07
1.22381e-05
8.7625e-07
1.21022e-05
1.00199e-06
1.19691e-05
1.1505e-06
1.18482e-05
1.3227e-06
1.17526e-05
1.51576e-06
1.16986e-05
1.71966e-06
1.16994e-05
1.91252e-06
2.0571e-06
1.17476e-05
1.63213e-05
4.16211e-09
1.63191e-05
1.22398e-08
1.63146e-05
2.56831e-08
1.63065e-05
4.49083e-08
1.62941e-05
6.82193e-08
1.62773e-05
9.2256e-08
1.62563e-05
1.1337e-07
1.62322e-05
1.29008e-07
1.62061e-05
1.3836e-07
1.6179e-05
1.42186e-07
1.61517e-05
1.42126e-07
1.61246e-05
1.39974e-07
1.6098e-05
1.37178e-07
1.60718e-05
1.34653e-07
1.60459e-05
1.32824e-07
1.60203e-05
1.3177e-07
1.59948e-05
1.31381e-07
1.59693e-05
1.31489e-07
1.59438e-05
1.3193e-07
1.59182e-05
1.32579e-07
1.58925e-05
1.33356e-07
1.58666e-05
1.34219e-07
1.58405e-05
1.3515e-07
1.58142e-05
1.36147e-07
1.57878e-05
1.37219e-07
1.57611e-05
1.38377e-07
1.57342e-05
1.39632e-07
1.5707e-05
1.40996e-07
1.56795e-05
1.42479e-07
1.56517e-05
1.44088e-07
1.56236e-05
1.4583e-07
1.55951e-05
1.4771e-07
1.55662e-05
1.49734e-07
1.55369e-05
1.51904e-07
1.55072e-05
1.54225e-07
1.54769e-05
1.567e-07
1.54462e-05
1.59333e-07
1.5415e-05
1.62129e-07
1.53832e-05
1.65095e-07
1.53508e-05
1.68239e-07
1.53177e-05
1.71571e-07
1.52841e-05
1.75103e-07
1.52497e-05
1.78851e-07
1.52146e-05
1.82833e-07
1.51787e-05
1.8707e-07
1.51419e-05
1.91588e-07
1.51043e-05
1.96418e-07
1.50658e-05
2.01592e-07
1.50262e-05
2.07153e-07
1.49856e-05
2.13147e-07
1.49438e-05
2.19627e-07
1.49008e-05
2.26656e-07
1.48564e-05
2.34306e-07
1.48106e-05
2.4266e-07
1.47632e-05
2.51814e-07
1.4714e-05
2.61882e-07
1.4663e-05
2.72992e-07
1.461e-05
2.85299e-07
1.45547e-05
2.98982e-07
1.4497e-05
3.14253e-07
1.44367e-05
3.31361e-07
1.43734e-05
3.50602e-07
1.43069e-05
3.7233e-07
1.4237e-05
3.96965e-07
1.41633e-05
4.2501e-07
1.40855e-05
4.5707e-07
1.40034e-05
4.93866e-07
1.39167e-05
5.36264e-07
1.38255e-05
5.85294e-07
1.37297e-05
6.4217e-07
1.36299e-05
7.08302e-07
1.35271e-05
7.85286e-07
1.34229e-05
8.74841e-07
1.33205e-05
9.78669e-07
1.32244e-05
1.09815e-06
1.31411e-05
1.23379e-06
1.30794e-05
1.38433e-06
1.30499e-05
1.54529e-06
1.30623e-05
1.70727e-06
1.31205e-05
1.85434e-06
1.96435e-06
1.32132e-05
1.74646e-05
4.91084e-09
1.74624e-05
1.44373e-08
1.74578e-05
3.02704e-08
1.74497e-05
5.29784e-08
1.74373e-05
8.06346e-08
1.74203e-05
1.09325e-07
1.73989e-05
1.34741e-07
1.73741e-05
1.53802e-07
1.7347e-05
1.65462e-07
1.73187e-05
1.70526e-07
1.72899e-05
1.70873e-07
1.72613e-05
1.686e-07
1.7233e-05
1.65431e-07
1.72052e-05
1.6248e-07
1.71777e-05
1.60284e-07
1.71505e-05
1.58968e-07
1.71235e-05
1.58431e-07
1.70965e-05
1.58485e-07
1.70695e-05
1.58946e-07
1.70424e-05
1.59671e-07
1.70152e-05
1.60564e-07
1.69878e-05
1.61573e-07
1.69603e-05
1.62674e-07
1.69326e-05
1.63865e-07
1.69047e-05
1.65152e-07
1.68765e-05
1.66547e-07
1.68481e-05
1.68062e-07
1.68193e-05
1.69709e-07
1.67903e-05
1.715e-07
1.6761e-05
1.73441e-07
1.67313e-05
1.75542e-07
1.67012e-05
1.77808e-07
1.66707e-05
1.80243e-07
1.66397e-05
1.82851e-07
1.66083e-05
1.85637e-07
1.65764e-05
1.88604e-07
1.6544e-05
1.91758e-07
1.6511e-05
1.95104e-07
1.64774e-05
1.98649e-07
1.64433e-05
2.02402e-07
1.64085e-05
2.06376e-07
1.6373e-05
2.10585e-07
1.63368e-05
2.15046e-07
1.62998e-05
2.19779e-07
1.62621e-05
2.24811e-07
1.62235e-05
2.30169e-07
1.61841e-05
2.35888e-07
1.61436e-05
2.42008e-07
1.61022e-05
2.48575e-07
1.60597e-05
2.5564e-07
1.60161e-05
2.63264e-07
1.59712e-05
2.71518e-07
1.5925e-05
2.8048e-07
1.58775e-05
2.90242e-07
1.58284e-05
3.00911e-07
1.57776e-05
3.12607e-07
1.57252e-05
3.25472e-07
1.56708e-05
3.39668e-07
1.56144e-05
3.55385e-07
1.55558e-05
3.7284e-07
1.54949e-05
3.92291e-07
1.54314e-05
4.14033e-07
1.53654e-05
4.38415e-07
1.52965e-05
4.6584e-07
1.52247e-05
4.96779e-07
1.515e-05
5.31781e-07
1.50724e-05
5.71476e-07
1.49921e-05
6.16591e-07
1.49094e-05
6.67944e-07
1.48251e-05
7.26445e-07
1.47404e-05
7.93068e-07
1.46569e-05
8.68807e-07
1.45771e-05
9.54576e-07
1.45047e-05
1.05105e-06
1.44445e-05
1.1584e-06
1.44024e-05
1.27586e-06
1.43856e-05
1.40119e-06
1.44009e-05
1.52993e-06
1.44535e-05
1.65469e-06
1.45429e-05
1.76498e-06
1.84817e-06
1.4659e-05
1.8688e-05
5.6657e-09
1.86858e-05
1.66198e-08
1.86813e-05
3.47925e-08
1.86733e-05
6.09357e-08
1.8661e-05
9.29418e-08
1.86439e-05
1.26385e-07
1.86224e-05
1.56306e-07
1.85971e-05
1.79079e-07
1.85692e-05
1.93368e-07
1.85397e-05
1.99975e-07
1.85096e-05
2.00975e-07
1.84795e-05
1.98752e-07
1.84496e-05
1.95306e-07
1.84201e-05
1.91962e-07
1.8391e-05
1.8939e-07
1.83622e-05
1.87782e-07
1.83336e-05
1.87055e-07
1.83051e-05
1.87015e-07
1.82765e-05
1.87464e-07
1.8248e-05
1.8824e-07
1.82193e-05
1.89232e-07
1.81905e-05
1.90379e-07
1.81615e-05
1.9165e-07
1.81323e-05
1.93039e-07
1.81029e-05
1.9455e-07
1.80733e-05
1.96195e-07
1.80434e-05
1.97985e-07
1.80131e-05
1.99934e-07
1.79826e-05
2.0205e-07
1.79517e-05
2.04345e-07
1.79204e-05
2.06824e-07
1.78887e-05
2.09494e-07
1.78566e-05
2.1236e-07
1.7824e-05
2.15426e-07
1.7791e-05
2.18696e-07
1.77574e-05
2.22174e-07
1.77233e-05
2.25865e-07
1.76886e-05
2.29775e-07
1.76534e-05
2.33914e-07
1.76175e-05
2.3829e-07
1.75809e-05
2.42917e-07
1.75437e-05
2.47811e-07
1.75058e-05
2.5299e-07
1.74671e-05
2.58479e-07
1.74276e-05
2.64305e-07
1.73872e-05
2.70499e-07
1.7346e-05
2.77099e-07
1.73039e-05
2.84149e-07
1.72608e-05
2.91697e-07
1.72166e-05
2.99802e-07
1.71713e-05
3.08528e-07
1.71249e-05
3.1795e-07
1.70772e-05
3.28152e-07
1.70282e-05
3.39231e-07
1.69779e-05
3.51297e-07
1.6926e-05
3.64475e-07
1.68726e-05
3.7891e-07
1.68175e-05
3.94765e-07
1.67606e-05
4.12227e-07
1.67019e-05
4.31509e-07
1.66414e-05
4.52856e-07
1.65789e-05
4.76546e-07
1.65144e-05
5.02894e-07
1.6448e-05
5.32258e-07
1.63797e-05
5.65041e-07
1.63098e-05
6.01693e-07
1.62386e-05
6.42708e-07
1.61665e-05
6.88623e-07
1.60945e-05
7.40003e-07
1.60235e-05
7.97418e-07
1.59552e-05
8.61407e-07
1.58915e-05
9.32417e-07
1.58354e-05
1.01071e-06
1.57903e-05
1.09621e-06
1.57603e-05
1.18835e-06
1.57504e-05
1.28581e-06
1.57654e-05
1.38618e-06
1.58095e-05
1.48575e-06
1.58849e-05
1.57931e-06
1.59896e-05
1.66031e-06
1.72174e-06
1.6116e-05
1.9997e-05
6.4239e-09
1.99949e-05
1.87655e-08
1.99905e-05
3.91924e-08
1.99827e-05
6.86722e-08
1.99707e-05
1.04975e-07
1.99539e-05
1.43222e-07
1.99323e-05
1.7783e-07
1.99068e-05
2.04608e-07
1.98783e-05
2.21881e-07
1.98479e-05
2.30379e-07
1.98165e-05
2.32329e-07
1.97849e-05
2.3037e-07
1.97535e-05
2.26775e-07
1.97223e-05
2.23093e-07
1.96916e-05
2.20148e-07
1.96611e-05
2.18218e-07
1.96309e-05
2.17257e-07
1.96009e-05
2.1708e-07
1.95708e-05
2.17477e-07
1.95408e-05
2.18273e-07
1.95107e-05
2.19345e-07
1.94805e-05
2.20618e-07
1.94501e-05
2.22055e-07
1.94195e-05
2.23646e-07
1.93886e-05
2.25389e-07
1.93575e-05
2.27296e-07
1.93261e-05
2.29376e-07
1.92944e-05
2.31642e-07
1.92624e-05
2.34103e-07
1.92299e-05
2.36768e-07
1.91971e-05
2.39645e-07
1.91639e-05
2.42738e-07
1.91302e-05
2.46052e-07
1.9096e-05
2.49592e-07
1.90614e-05
2.5336e-07
1.90262e-05
2.57362e-07
1.89904e-05
2.61602e-07
1.89541e-05
2.66087e-07
1.89172e-05
2.70825e-07
1.88797e-05
2.75828e-07
1.88415e-05
2.81109e-07
1.88026e-05
2.86685e-07
1.8763e-05
2.92577e-07
1.87227e-05
2.9881e-07
1.86816e-05
3.05413e-07
1.86396e-05
3.1242e-07
1.85969e-05
3.1987e-07
1.85532e-05
3.2781e-07
1.85086e-05
3.36292e-07
1.8463e-05
3.45373e-07
1.84165e-05
3.55123e-07
1.83688e-05
3.65617e-07
1.832e-05
3.76941e-07
1.827e-05
3.89192e-07
1.82189e-05
4.02479e-07
1.81664e-05
4.16926e-07
1.81126e-05
4.3267e-07
1.80575e-05
4.49868e-07
1.80011e-05
4.68693e-07
1.79432e-05
4.89339e-07
1.78841e-05
5.12023e-07
1.78236e-05
5.36985e-07
1.7762e-05
5.64489e-07
1.76995e-05
5.94822e-07
1.76362e-05
6.28292e-07
1.75727e-05
6.65227e-07
1.75094e-05
7.05961e-07
1.74472e-05
7.50829e-07
1.73871e-05
8.0014e-07
1.73304e-05
8.54155e-07
1.72787e-05
9.13043e-07
1.72343e-05
9.7683e-07
1.71997e-05
1.04533e-06
1.71779e-05
1.11803e-06
1.71722e-05
1.19405e-06
1.71861e-05
1.27192e-06
1.72227e-05
1.34956e-06
1.72842e-05
1.42418e-06
1.73713e-05
1.4923e-06
1.74816e-05
1.55e-06
1.59346e-06
1.76098e-05
2.13978e-05
7.18338e-09
2.13957e-05
2.08609e-08
2.13914e-05
4.34292e-08
2.1384e-05
7.6102e-08
2.13724e-05
1.16596e-07
2.13559e-05
1.5965e-07
2.13347e-05
1.99095e-07
2.13091e-05
2.30164e-07
2.12802e-05
2.50787e-07
2.1249e-05
2.61561e-07
2.12166e-05
2.64795e-07
2.11836e-05
2.63353e-07
2.11506e-05
2.59769e-07
2.11179e-05
2.55828e-07
2.10855e-05
2.52528e-07
2.10534e-05
2.50255e-07
2.10217e-05
2.49021e-07
2.09901e-05
2.4866e-07
2.09586e-05
2.48963e-07
2.09271e-05
2.49745e-07
2.08956e-05
2.50871e-07
2.0864e-05
2.52257e-07
2.08322e-05
2.53855e-07
2.08002e-05
2.55648e-07
2.07679e-05
2.57631e-07
2.07354e-05
2.5981e-07
2.07026e-05
2.62194e-07
2.06695e-05
2.64792e-07
2.06359e-05
2.67614e-07
2.0602e-05
2.70667e-07
2.05677e-05
2.73956e-07
2.0533e-05
2.77487e-07
2.04978e-05
2.81263e-07
2.04621e-05
2.85288e-07
2.04259e-05
2.89565e-07
2.03891e-05
2.94097e-07
2.03519e-05
2.9889e-07
2.0314e-05
3.03949e-07
2.02755e-05
3.09285e-07
2.02365e-05
3.14907e-07
2.01967e-05
3.20831e-07
2.01563e-05
3.27073e-07
2.01153e-05
3.33655e-07
2.00735e-05
3.40603e-07
2.00309e-05
3.47946e-07
1.99876e-05
3.5572e-07
1.99435e-05
3.63965e-07
1.98986e-05
3.72727e-07
1.98529e-05
3.82059e-07
1.98062e-05
3.92019e-07
1.97587e-05
4.02675e-07
1.97102e-05
4.14099e-07
1.96607e-05
4.26377e-07
1.96103e-05
4.39599e-07
1.95589e-05
4.5387e-07
1.95066e-05
4.69301e-07
1.94532e-05
4.86019e-07
1.93989e-05
5.04162e-07
1.93437e-05
5.2388e-07
1.92877e-05
5.45335e-07
1.92311e-05
5.68705e-07
1.91739e-05
5.94177e-07
1.91164e-05
6.21947e-07
1.9059e-05
6.52219e-07
1.90021e-05
6.85196e-07
1.89463e-05
7.21075e-07
1.88922e-05
7.60034e-07
1.88408e-05
8.02217e-07
1.87932e-05
8.47718e-07
1.87508e-05
8.96549e-07
1.87153e-05
9.48612e-07
1.86884e-05
1.00366e-06
1.86725e-05
1.06126e-06
1.86698e-05
1.12073e-06
1.86827e-05
1.1811e-06
1.87136e-05
1.24108e-06
1.87641e-05
1.29902e-06
1.88354e-05
1.35295e-06
1.8927e-05
1.40066e-06
1.90371e-05
1.43988e-06
1.46854e-06
1.9162e-05
2.28966e-05
7.94473e-09
2.28946e-05
2.29003e-08
2.28905e-05
4.74805e-08
2.28835e-05
8.31736e-08
2.28723e-05
1.27712e-07
2.28565e-05
1.7553e-07
2.28356e-05
2.19924e-07
2.28103e-05
2.55544e-07
2.27812e-05
2.79882e-07
2.27494e-05
2.93324e-07
2.2716e-05
2.98203e-07
2.26818e-05
2.97562e-07
2.26474e-05
2.94181e-07
2.26131e-05
2.90085e-07
2.25792e-05
2.86466e-07
2.25456e-05
2.83841e-07
2.25123e-05
2.823e-07
2.24793e-05
2.81713e-07
2.24463e-05
2.81881e-07
2.24135e-05
2.82615e-07
2.23806e-05
2.83771e-07
2.23476e-05
2.85253e-07
2.23144e-05
2.87004e-07
2.22811e-05
2.88998e-07
2.22475e-05
2.91225e-07
2.22136e-05
2.93685e-07
2.21794e-05
2.96384e-07
2.21449e-05
2.99327e-07
2.211e-05
3.02523e-07
2.20747e-05
3.05976e-07
2.20389e-05
3.0969e-07
2.20027e-05
3.13669e-07
2.19661e-05
3.17915e-07
2.1929e-05
3.22429e-07
2.18913e-05
3.27216e-07
2.18531e-05
3.32277e-07
2.18144e-05
3.37617e-07
2.17751e-05
3.43241e-07
2.17352e-05
3.49159e-07
2.16948e-05
3.5538e-07
2.16537e-05
3.61919e-07
2.16119e-05
3.68793e-07
2.15696e-05
3.76024e-07
2.15265e-05
3.83636e-07
2.14828e-05
3.9166e-07
2.14384e-05
4.00129e-07
2.13933e-05
4.09083e-07
2.13475e-05
4.18567e-07
2.13009e-05
4.28631e-07
2.12536e-05
4.39332e-07
2.12055e-05
4.5073e-07
2.11567e-05
4.62897e-07
2.11072e-05
4.75906e-07
2.10569e-05
4.89843e-07
2.1006e-05
5.04796e-07
2.09545e-05
5.20863e-07
2.09023e-05
5.38151e-07
2.08497e-05
5.5677e-07
2.07968e-05
5.76839e-07
2.07436e-05
5.98483e-07
2.06905e-05
6.21827e-07
2.06377e-05
6.47e-07
2.05855e-05
6.74125e-07
2.05344e-05
7.03318e-07
2.04849e-05
7.3468e-07
2.04377e-05
7.68287e-07
2.03935e-05
8.04182e-07
2.03534e-05
8.42356e-07
2.03184e-05
8.8274e-07
2.02898e-05
9.25178e-07
2.0269e-05
9.69411e-07
2.02576e-05
1.01506e-06
2.02572e-05
1.06159e-06
2.02697e-05
1.1083e-06
2.02964e-05
1.15434e-06
2.03389e-05
1.19865e-06
2.03978e-05
1.24003e-06
2.04736e-05
1.27715e-06
2.05656e-05
1.30867e-06
2.06722e-05
1.33328e-06
1.34988e-06
2.07909e-05
2.45005e-05
8.71115e-09
2.44985e-05
2.48891e-08
2.44946e-05
5.13495e-08
2.44879e-05
8.98765e-08
2.44773e-05
1.38286e-07
2.44621e-05
1.90787e-07
2.44418e-05
2.40195e-07
2.44168e-05
2.8059e-07
2.43877e-05
3.08978e-07
2.43555e-05
3.25473e-07
2.43214e-05
3.32363e-07
2.42861e-05
3.32823e-07
2.42504e-05
3.29859e-07
2.42148e-05
3.25739e-07
2.41794e-05
3.21859e-07
2.41443e-05
3.18893e-07
2.41096e-05
3.17025e-07
2.40751e-05
3.16179e-07
2.40408e-05
3.16176e-07
2.40066e-05
3.1683e-07
2.39724e-05
3.17991e-07
2.39381e-05
3.19552e-07
2.39037e-05
3.21447e-07
2.3869e-05
3.23639e-07
2.38341e-05
3.26111e-07
2.3799e-05
3.28858e-07
2.37635e-05
3.31879e-07
2.37276e-05
3.35177e-07
2.36914e-05
3.38754e-07
2.36547e-05
3.42614e-07
2.36177e-05
3.46759e-07
2.35802e-05
3.51188e-07
2.35422e-05
3.55904e-07
2.35037e-05
3.60905e-07
2.34647e-05
3.66194e-07
2.34252e-05
3.71771e-07
2.33852e-05
3.77639e-07
2.33446e-05
3.83805e-07
2.33035e-05
3.90274e-07
2.32618e-05
3.97057e-07
2.32196e-05
4.04166e-07
2.31768e-05
4.11619e-07
2.31334e-05
4.19434e-07
2.30894e-05
4.27636e-07
2.30448e-05
4.36253e-07
2.29996e-05
4.45316e-07
2.29538e-05
4.54862e-07
2.29074e-05
4.64932e-07
2.28605e-05
4.75572e-07
2.2813e-05
4.86832e-07
2.27649e-05
4.98767e-07
2.27164e-05
5.11437e-07
2.26674e-05
5.24907e-07
2.2618e-05
5.39245e-07
2.25683e-05
5.54524e-07
2.25183e-05
5.70822e-07
2.24682e-05
5.88218e-07
2.24182e-05
6.06792e-07
2.23684e-05
6.26627e-07
2.23191e-05
6.47801e-07
2.22706e-05
6.7039e-07
2.22231e-05
6.9446e-07
2.21772e-05
7.20064e-07
2.21332e-05
7.47239e-07
2.20919e-05
7.75995e-07
2.20539e-05
8.06313e-07
2.20199e-05
8.38129e-07
2.1991e-05
8.71332e-07
2.1968e-05
9.05745e-07
2.1952e-05
9.41123e-07
2.19443e-05
9.77135e-07
2.1946e-05
1.01336e-06
2.19583e-05
1.04929e-06
2.19823e-05
1.0843e-06
2.2019e-05
1.11768e-06
2.20689e-05
1.14866e-06
2.21326e-05
1.1764e-06
2.22097e-05
1.20005e-06
2.22995e-05
1.2188e-06
2.24009e-05
1.23193e-06
1.23888e-06
2.25119e-05
2.62166e-05
9.48845e-09
2.62147e-05
2.68423e-08
2.6211e-05
5.50618e-08
2.62046e-05
9.62417e-08
2.61946e-05
1.48338e-07
2.61799e-05
2.05411e-07
2.61603e-05
2.59855e-07
2.61357e-05
3.05194e-07
2.61067e-05
3.37922e-07
2.60744e-05
3.57821e-07
2.60397e-05
3.67074e-07
2.60036e-05
3.68939e-07
2.59668e-05
3.66622e-07
2.59299e-05
3.62628e-07
2.58932e-05
3.58571e-07
2.58568e-05
3.55295e-07
2.58207e-05
3.53099e-07
2.57849e-05
3.51974e-07
2.57493e-05
3.51773e-07
2.57138e-05
3.52321e-07
2.56784e-05
3.53465e-07
2.56428e-05
3.55089e-07
2.56072e-05
3.57118e-07
2.55713e-05
3.59503e-07
2.55352e-05
3.6222e-07
2.54988e-05
3.65254e-07
2.54621e-05
3.686e-07
2.5425e-05
3.72254e-07
2.53875e-05
3.76215e-07
2.53497e-05
3.80483e-07
2.53114e-05
3.85055e-07
2.52726e-05
3.89929e-07
2.52334e-05
3.95104e-07
2.51938e-05
4.00576e-07
2.51536e-05
4.06346e-07
2.5113e-05
4.12413e-07
2.50718e-05
4.18778e-07
2.50302e-05
4.25445e-07
2.4988e-05
4.32418e-07
2.49454e-05
4.39706e-07
2.49022e-05
4.4732e-07
2.48586e-05
4.55274e-07
2.48144e-05
4.63585e-07
2.47698e-05
4.72275e-07
2.47247e-05
4.81368e-07
2.46791e-05
4.90892e-07
2.46331e-05
5.00878e-07
2.45866e-05
5.11362e-07
2.45398e-05
5.22382e-07
2.44927e-05
5.3398e-07
2.44453e-05
5.46201e-07
2.43976e-05
5.59092e-07
2.43498e-05
5.72702e-07
2.4302e-05
5.87084e-07
2.42542e-05
6.02289e-07
2.42067e-05
6.1837e-07
2.41595e-05
6.35377e-07
2.41129e-05
6.53358e-07
2.40672e-05
6.72357e-07
2.40226e-05
6.92407e-07
2.39794e-05
7.13535e-07
2.39382e-05
7.35752e-07
2.38992e-05
7.5905e-07
2.3863e-05
7.83401e-07
2.38302e-05
8.08747e-07
2.38016e-05
8.35e-07
2.37777e-05
8.62028e-07
2.37593e-05
8.8966e-07
2.37474e-05
9.1767e-07
2.37428e-05
9.45781e-07
2.37462e-05
9.73658e-07
2.37587e-05
1.00091e-06
2.37809e-05
1.02709e-06
2.38135e-05
1.05169e-06
2.3857e-05
1.0742e-06
2.39116e-05
1.09406e-06
2.39772e-05
1.11072e-06
2.40536e-05
1.12365e-06
2.41401e-05
1.13239e-06
2.42354e-05
1.13655e-06
1.13589e-06
2.43384e-05
2.8053e-05
1.02829e-08
2.80511e-05
2.87812e-08
2.80475e-05
5.86596e-08
2.80414e-05
1.02331e-07
2.80318e-05
1.57936e-07
2.80178e-05
2.19453e-07
2.79987e-05
2.78913e-07
2.79746e-05
3.29307e-07
2.79459e-05
3.66603e-07
2.79135e-05
3.90206e-07
2.78785e-05
4.02139e-07
2.78417e-05
4.05699e-07
2.78041e-05
4.04263e-07
2.77661e-05
4.00562e-07
2.77283e-05
3.96435e-07
2.76907e-05
3.92904e-07
2.76534e-05
3.90399e-07
2.76163e-05
3.88992e-07
2.75795e-05
3.8858e-07
2.75428e-05
3.89005e-07
2.75062e-05
3.90115e-07
2.74695e-05
3.91788e-07
2.74327e-05
3.93939e-07
2.73957e-05
3.9651e-07
2.73584e-05
3.99465e-07
2.73209e-05
4.02783e-07
2.7283e-05
4.0645e-07
2.72448e-05
4.10456e-07
2.72063e-05
4.14795e-07
2.71673e-05
4.1946e-07
2.71279e-05
4.24446e-07
2.70881e-05
4.29747e-07
2.70478e-05
4.35358e-07
2.70071e-05
4.41273e-07
2.6966e-05
4.4749e-07
2.69244e-05
4.54005e-07
2.68824e-05
4.60816e-07
2.68399e-05
4.67925e-07
2.6797e-05
4.75334e-07
2.67536e-05
4.83049e-07
2.67099e-05
4.91078e-07
2.66657e-05
4.99432e-07
2.66212e-05
5.08124e-07
2.65763e-05
5.17171e-07
2.6531e-05
5.26593e-07
2.64855e-05
5.36412e-07
2.64397e-05
5.46653e-07
2.63938e-05
5.57343e-07
2.63476e-05
5.6851e-07
2.63014e-05
5.80187e-07
2.62552e-05
5.92404e-07
2.62091e-05
6.05195e-07
2.61632e-05
6.18591e-07
2.61177e-05
6.32626e-07
2.60727e-05
6.47328e-07
2.60283e-05
6.62723e-07
2.59848e-05
6.78834e-07
2.59425e-05
6.95675e-07
2.59016e-05
7.13254e-07
2.58625e-05
7.31566e-07
2.58254e-05
7.50594e-07
2.57909e-05
7.70304e-07
2.57593e-05
7.90644e-07
2.57311e-05
8.11539e-07
2.5707e-05
8.32886e-07
2.56874e-05
8.54555e-07
2.56731e-05
8.76385e-07
2.56646e-05
8.9818e-07
2.56625e-05
9.19708e-07
2.56676e-05
9.40703e-07
2.56804e-05
9.60864e-07
2.57014e-05
9.79863e-07
2.57312e-05
9.97344e-07
2.57699e-05
1.01294e-06
2.58179e-05
1.02627e-06
2.5875e-05
1.03697e-06
2.5941e-05
1.0447e-06
2.60155e-05
1.04915e-06
2.60978e-05
1.05008e-06
2.6187e-05
1.04729e-06
1.04069e-06
2.62822e-05
3.0018e-05
1.11009e-08
3.00161e-05
3.07293e-08
3.00126e-05
6.21939e-08
3.00067e-05
1.08224e-07
2.99974e-05
1.67179e-07
2.99839e-05
2.33006e-07
2.99653e-05
2.97426e-07
2.99417e-05
3.52928e-07
2.99134e-05
3.94951e-07
2.98811e-05
4.22494e-07
2.98459e-05
4.37378e-07
2.98087e-05
4.42896e-07
2.97704e-05
4.42568e-07
2.97316e-05
4.39337e-07
2.96928e-05
4.35261e-07
2.96541e-05
4.31552e-07
2.96157e-05
4.28779e-07
2.95776e-05
4.27107e-07
2.95397e-05
4.26484e-07
2.95019e-05
4.26778e-07
2.94642e-05
4.27843e-07
2.94264e-05
4.29554e-07
2.93886e-05
4.31816e-07
2.93505e-05
4.34562e-07
2.93122e-05
4.37746e-07
2.92737e-05
4.41337e-07
2.92348e-05
4.45313e-07
2.91956e-05
4.49656e-07
2.91561e-05
4.54355e-07
2.91161e-05
4.59396e-07
2.90758e-05
4.64771e-07
2.90351e-05
4.70467e-07
2.8994e-05
4.76477e-07
2.89524e-05
4.82791e-07
2.89105e-05
4.89402e-07
2.88682e-05
4.96305e-07
2.88255e-05
5.03493e-07
2.87825e-05
5.10965e-07
2.87391e-05
5.18721e-07
2.86954e-05
5.26762e-07
2.86514e-05
5.35091e-07
2.86071e-05
5.43717e-07
2.85626e-05
5.52647e-07
2.85179e-05
5.61892e-07
2.8473e-05
5.71466e-07
2.8428e-05
5.81384e-07
2.8383e-05
5.91661e-07
2.8338e-05
6.02316e-07
2.82932e-05
6.13366e-07
2.82485e-05
6.2483e-07
2.82042e-05
6.36726e-07
2.81603e-05
6.49069e-07
2.81171e-05
6.61875e-07
2.80745e-05
6.75156e-07
2.80329e-05
6.88917e-07
2.79925e-05
7.03161e-07
2.79534e-05
7.17884e-07
2.79161e-05
7.3307e-07
2.78806e-05
7.48698e-07
2.78474e-05
7.64732e-07
2.78169e-05
7.81122e-07
2.77894e-05
7.97802e-07
2.77654e-05
8.14692e-07
2.77452e-05
8.31688e-07
2.77294e-05
8.48667e-07
2.77185e-05
8.65484e-07
2.77129e-05
8.81972e-07
2.77132e-05
8.97942e-07
2.77197e-05
9.13182e-07
2.77329e-05
9.27463e-07
2.77532e-05
9.4054e-07
2.7781e-05
9.52157e-07
2.78162e-05
9.62053e-07
2.78592e-05
9.6997e-07
2.79098e-05
9.75662e-07
2.79679e-05
9.789e-07
2.80331e-05
9.79486e-07
2.8105e-05
9.77256e-07
2.8183e-05
9.72094e-07
2.82663e-05
9.63929e-07
9.52746e-07
2.83543e-05
3.21207e-05
1.19478e-08
3.21187e-05
3.27079e-08
3.21152e-05
6.57132e-08
3.21094e-05
1.14005e-07
3.21004e-05
1.76174e-07
3.20872e-05
2.46181e-07
3.20692e-05
3.15479e-07
3.2046e-05
3.76089e-07
3.2018e-05
4.2293e-07
3.19859e-05
4.54581e-07
3.19507e-05
4.72629e-07
3.19133e-05
4.80331e-07
3.18745e-05
4.81321e-07
3.18351e-05
4.78736e-07
3.17955e-05
4.74845e-07
3.1756e-05
4.71052e-07
3.17167e-05
4.68071e-07
3.16777e-05