/*--------------------------------*- C++ -*----------------------------------*\
  =========                 |
  \\      /  F ield         | OpenFOAM: The Open Source CFD Toolbox
   \\    /   O peration     | Website:  https://openfoam.org
    \\  /    A nd           | Version:  7
     \\/     M anipulation  |
\*---------------------------------------------------------------------------*/
FoamFile
{
    version     2.0;
    format      ascii;
    class       volVectorField;
    location    "9.31";
    object      U;
}
// * * * * * * * * * * * * * * * * * * * * * * * * * * * * * * * * * * * * * //

dimensions      [0 1 -1 0 0 0 0];

internalField   nonuniform List<vector> 
12013
(
(0.100969 -0.000258764 0)
(0.104719 -0.000446684 0)
(0.110372 -0.000608465 0)
(0.117386 -0.000751045 0)
(0.125603 -0.000881178 0)
(0.134882 -0.00100412 0)
(0.145128 -0.00112422 0)
(0.156292 -0.00124499 0)
(0.168352 -0.00136879 0)
(0.181301 -0.00149662 0)
(0.195136 -0.00162806 0)
(0.209841 -0.0017613 0)
(0.22538 -0.00189348 0)
(0.241692 -0.00202108 0)
(0.258687 -0.00214038 0)
(0.276251 -0.0022479 0)
(0.294252 -0.00234073 0)
(0.312543 -0.00241673 0)
(0.330977 -0.00247457 0)
(0.349403 -0.00251374 0)
(0.367683 -0.00253443 0)
(0.385687 -0.0025374 0)
(0.403301 -0.00252384 0)
(0.420427 -0.00249518 0)
(0.436984 -0.00245304 0)
(0.452905 -0.00239906 0)
(0.46814 -0.0023349 0)
(0.482651 -0.0022621 0)
(0.496412 -0.00218213 0)
(0.50941 -0.00209632 0)
(0.521639 -0.00200586 0)
(0.5331 -0.00191181 0)
(0.543802 -0.0018151 0)
(0.553759 -0.00171654 0)
(0.562989 -0.00161682 0)
(0.571512 -0.00151653 0)
(0.579352 -0.00141619 0)
(0.586535 -0.00131622 0)
(0.593089 -0.00121697 0)
(0.59904 -0.00111874 0)
(0.604418 -0.00102179 0)
(0.609253 -0.000926289 0)
(0.613572 -0.000832408 0)
(0.617407 -0.000740265 0)
(0.620784 -0.00064995 0)
(0.623735 -0.00056151 0)
(0.626285 -0.000474966 0)
(0.628465 -0.000390309 0)
(0.6303 -0.000307495 0)
(0.631818 -0.000226442 0)
(0.633044 -0.000147023 0)
(0.634005 -6.9061e-05 0)
(0.634723 7.63888e-06 0)
(0.635223 8.32604e-05 0)
(0.635528 0.000157986 0)
(0.635661 0.000232098 0)
(0.635643 0.000305975 0)
(0.635495 0.000380082 0)
(0.635238 0.000454984 0)
(0.634888 0.000531361 0)
(0.634464 0.000610046 0)
(0.63398 0.00069205 0)
(0.63345 0.000778615 0)
(0.632884 0.000871274 0)
(0.63229 0.000971937 0)
(0.631674 0.00108301 0)
(0.631034 0.00120757 0)
(0.630365 0.00134962 0)
(0.629653 0.00151445 0)
(0.628874 0.00170924 0)
(0.62799 0.00194402 0)
(0.626942 0.00223322 0)
(0.62564 0.00259841 0)
(0.623949 0.00307325 0)
(0.621656 0.00371292 0)
(0.618425 0.00461274 0)
(0.613698 0.00594766 0)
(0.606488 0.00806532 0)
(0.595016 0.011787 0)
(0.57614 0.02005 0)
(0.557348 0.053412 0)
(0.100879 -0.000787977 0)
(0.104607 -0.00136683 0)
(0.110227 -0.00186225 0)
(0.117213 -0.00229812 0)
(0.125404 -0.00269568 0)
(0.13466 -0.00307098 0)
(0.144885 -0.00343738 0)
(0.156029 -0.00380563 0)
(0.168073 -0.00418294 0)
(0.181011 -0.00457242 0)
(0.19484 -0.00497274 0)
(0.209545 -0.00537842 0)
(0.225092 -0.0057807 0)
(0.241421 -0.00616887 0)
(0.258441 -0.00653165 0)
(0.276039 -0.00685849 0)
(0.29408 -0.00714058 0)
(0.312418 -0.00737145 0)
(0.330902 -0.00754713 0)
(0.349383 -0.00766612 0)
(0.367717 -0.00772903 0)
(0.385776 -0.0077382 0)
(0.403445 -0.00769718 0)
(0.420624 -0.00761038 0)
(0.43723 -0.00748264 0)
(0.453198 -0.00731898 0)
(0.468476 -0.00712434 0)
(0.483027 -0.00690344 0)
(0.496825 -0.00666067 0)
(0.509856 -0.00640005 0)
(0.522114 -0.00612518 0)
(0.533602 -0.00583928 0)
(0.544327 -0.00554513 0)
(0.554304 -0.0052452 0)
(0.563551 -0.00494159 0)
(0.572089 -0.00463609 0)
(0.579941 -0.00433025 0)
(0.587134 -0.00402537 0)
(0.593695 -0.00372254 0)
(0.599652 -0.00342265 0)
(0.605034 -0.00312647 0)
(0.60987 -0.00283459 0)
(0.614189 -0.00254749 0)
(0.618021 -0.00226555 0)
(0.621395 -0.00198903 0)
(0.62434 -0.00171809 0)
(0.626883 -0.00145281 0)
(0.629053 -0.00119316 0)
(0.630878 -0.000939008 0)
(0.632383 -0.000690101 0)
(0.633594 -0.000446059 0)
(0.634538 -0.00020635 0)
(0.635237 2.96098e-05 0)
(0.635716 0.000262332 0)
(0.635999 0.000492346 0)
(0.636106 0.0007205 0)
(0.63606 0.000947948 0)
(0.635882 0.00117611 0)
(0.635591 0.00140672 0)
(0.635205 0.00164184 0)
(0.634741 0.00188401 0)
(0.634214 0.00213631 0)
(0.633638 0.00240247 0)
(0.633023 0.00268714 0)
(0.632378 0.00299603 0)
(0.631708 0.00333636 0)
(0.631014 0.00371728 0)
(0.63029 0.00415064 0)
(0.629527 0.00465198 0)
(0.628704 0.00524225 0)
(0.627789 0.0059503 0)
(0.626735 0.00681707 0)
(0.62547 0.00790256 0)
(0.623891 0.00929802 0)
(0.621851 0.0111477 0)
(0.619135 0.0136896 0)
(0.615441 0.0173328 0)
(0.610341 0.022812 0)
(0.603286 0.0315238 0)
(0.594177 0.0462034 0)
(0.591042 0.0720498 0)
(0.100776 -0.00133352 0)
(0.104444 -0.00234023 0)
(0.109992 -0.00319424 0)
(0.116917 -0.00394513 0)
(0.125054 -0.00462992 0)
(0.134261 -0.00527621 0)
(0.144442 -0.0059072 0)
(0.155549 -0.00654159 0)
(0.167561 -0.00719196 0)
(0.180477 -0.00786379 0)
(0.194296 -0.00855486 0)
(0.209006 -0.00925571 0)
(0.224575 -0.00995121 0)
(0.240943 -0.0106227 0)
(0.25802 -0.0112506 0)
(0.275691 -0.0118166 0)
(0.29382 -0.0123053 0)
(0.312258 -0.0127053 0)
(0.33085 -0.0130099 0)
(0.349444 -0.0132163 0)
(0.367893 -0.0133257 0)
(0.386067 -0.0133421 0)
(0.403848 -0.0132717 0)
(0.421134 -0.0131221 0)
(0.437842 -0.0129017 0)
(0.453905 -0.0126192 0)
(0.469272 -0.0122832 0)
(0.483903 -0.0119019 0)
(0.497775 -0.0114828 0)
(0.510872 -0.0110329 0)
(0.523189 -0.0105585 0)
(0.534729 -0.010065 0)
(0.5455 -0.00955729 0)
(0.555517 -0.00903964 0)
(0.564798 -0.00851566 0)
(0.573364 -0.00798845 0)
(0.581241 -0.00746066 0)
(0.588453 -0.00693452 0)
(0.595029 -0.0064119 0)
(0.600997 -0.00589436 0)
(0.606386 -0.00538318 0)
(0.611226 -0.00487939 0)
(0.615546 -0.00438382 0)
(0.619374 -0.00389708 0)
(0.622742 -0.00341961 0)
(0.625677 -0.00295171 0)
(0.628207 -0.00249348 0)
(0.630362 -0.00204485 0)
(0.632167 -0.00160559 0)
(0.63365 -0.00117525 0)
(0.634836 -0.000753179 0)
(0.63575 -0.000338446 0)
(0.636417 6.99211e-05 0)
(0.636861 0.000472807 0)
(0.637104 0.000871208 0)
(0.637168 0.00126663 0)
(0.637076 0.00166106 0)
(0.636847 0.00205694 0)
(0.6365 0.00245721 0)
(0.636055 0.00286543 0)
(0.635526 0.00328586 0)
(0.634931 0.00372369 0)
(0.634282 0.0041852 0)
(0.633591 0.00467813 0)
(0.632866 0.00521198 0)
(0.632115 0.00579861 0)
(0.631339 0.00645298 0)
(0.630538 0.00719417 0)
(0.629704 0.00804699 0)
(0.628826 0.00904424 0)
(0.627884 0.0102301 0)
(0.626846 0.0116658 0)
(0.625673 0.0134374 0)
(0.624313 0.01567 0)
(0.622703 0.0185495 0)
(0.620784 0.0223579 0)
(0.618527 0.027531 0)
(0.616016 0.0347484 0)
(0.613626 0.0450769 0)
(0.612482 0.0601103 0)
(0.616499 0.081295 0)
(0.100666 -0.00188768 0)
(0.10425 -0.0033611 0)
(0.109694 -0.00460059 0)
(0.116527 -0.00569089 0)
(0.124582 -0.00668486 0)
(0.133715 -0.00762276 0)
(0.14383 -0.00853868 0)
(0.154879 -0.00946009 0)
(0.166847 -0.0104057 0)
(0.179734 -0.0113836 0)
(0.193544 -0.0123909 0)
(0.208271 -0.0134138 0)
(0.223884 -0.01443 0)
(0.240326 -0.0154121 0)
(0.257506 -0.0163311 0)
(0.275307 -0.0171598 0)
(0.293587 -0.0178755 0)
(0.312194 -0.0184615 0)
(0.330966 -0.0189076 0)
(0.349746 -0.01921 0)
(0.368384 -0.0193703 0)
(0.386742 -0.0193944 0)
(0.4047 -0.0192916 0)
(0.422156 -0.0190731 0)
(0.439023 -0.0187513 0)
(0.455234 -0.0183389 0)
(0.470735 -0.0178487 0)
(0.485489 -0.0172925 0)
(0.499471 -0.0166814 0)
(0.512667 -0.0160257 0)
(0.525071 -0.0153344 0)
(0.536688 -0.0146155 0)
(0.547526 -0.0138762 0)
(0.557601 -0.0131226 0)
(0.566931 -0.0123599 0)
(0.575539 -0.0115927 0)
(0.583449 -0.0108248 0)
(0.590688 -0.0100593 0)
(0.597285 -0.00929906 0)
(0.603268 -0.00854626 0)
(0.608666 -0.00780272 0)
(0.613509 -0.00706993 0)
(0.617828 -0.00634904 0)
(0.621652 -0.00564095 0)
(0.625009 -0.00494626 0)
(0.627929 -0.00426536 0)
(0.630442 -0.00359837 0)
(0.632573 -0.00294518 0)
(0.634351 -0.00230542 0)
(0.635803 -0.00167845 0)
(0.636954 -0.00106327 0)
(0.637829 -0.00045855 0)
(0.638452 0.000137069 0)
(0.638848 0.000724871 0)
(0.63904 0.00130643 0)
(0.639048 0.00188399 0)
(0.638895 0.00246043 0)
(0.638601 0.00303925 0)
(0.638185 0.00362465 0)
(0.637665 0.00422163 0)
(0.637058 0.00483621 0)
(0.636379 0.00547564 0)
(0.635643 0.00614864 0)
(0.634862 0.00686582 0)
(0.634046 0.00764016 0)
(0.633204 0.00848763 0)
(0.632341 0.00942809 0)
(0.631462 0.0104865 0)
(0.630566 0.0116948 0)
(0.62965 0.0130938 0)
(0.62871 0.0147372 0)
(0.627737 0.0166961 0)
(0.626727 0.0190662 0)
(0.625677 0.0219774 0)
(0.624604 0.0256071 0)
(0.623564 0.0301975 0)
(0.622691 0.0360729 0)
(0.62227 0.0436495 0)
(0.622847 0.0534099 0)
(0.625368 0.0657596 0)
(0.631465 0.0804567 0)
(0.100552 -0.00244866 0)
(0.104044 -0.00442475 0)
(0.109359 -0.00607773 0)
(0.116073 -0.00753346 0)
(0.124021 -0.00886043 0)
(0.133056 -0.0101124 0)
(0.143085 -0.0113356 0)
(0.154062 -0.0125674 0)
(0.165975 -0.0138334 0)
(0.178833 -0.0151453 0)
(0.192645 -0.016499 0)
(0.207412 -0.0178762 0)
(0.223108 -0.0192465 0)
(0.239677 -0.0205723 0)
(0.257026 -0.0218139 0)
(0.275034 -0.022934 0)
(0.293551 -0.0239013 0)
(0.312417 -0.0246929 0)
(0.331461 -0.0252951 0)
(0.350516 -0.0257027 0)
(0.369427 -0.0259181 0)
(0.388051 -0.0259495 0)
(0.406262 -0.0258098 0)
(0.423954 -0.0255142 0)
(0.44104 -0.0250799 0)
(0.457451 -0.0245242 0)
(0.473133 -0.023864 0)
(0.48805 -0.0231157 0)
(0.502177 -0.0222943 0)
(0.5155 -0.0214134 0)
(0.528016 -0.0204853 0)
(0.53973 -0.0195208 0)
(0.550651 -0.0185293 0)
(0.560796 -0.0175189 0)
(0.570185 -0.0164969 0)
(0.578841 -0.015469 0)
(0.58679 -0.0144405 0)
(0.594059 -0.0134155 0)
(0.600677 -0.0123977 0)
(0.606674 -0.01139 0)
(0.61208 -0.0103947 0)
(0.616924 -0.00941389 0)
(0.621238 -0.00844897 0)
(0.62505 -0.0075011 0)
(0.628391 -0.00657105 0)
(0.631291 -0.00565929 0)
(0.633776 -0.00476595 0)
(0.635877 -0.00389084 0)
(0.637619 -0.00303345 0)
(0.63903 -0.00219288 0)
(0.640135 -0.00136783 0)
(0.64096 -0.000556507 0)
(0.64153 0.000242816 0)
(0.641867 0.00103186 0)
(0.641995 0.00181286 0)
(0.641937 0.00258889 0)
(0.641712 0.00336376 0)
(0.641341 0.00414202 0)
(0.640844 0.00492908 0)
(0.64024 0.00573139 0)
(0.639544 0.0065566 0)
(0.638773 0.00741383 0)
(0.637943 0.00831398 0)
(0.637067 0.00927015 0)
(0.636157 0.0102981 0)
(0.635225 0.011417 0)
(0.63428 0.0126503 0)
(0.633333 0.0140266 0)
(0.63239 0.0155816 0)
(0.631461 0.0173599 0)
(0.630556 0.0194171 0)
(0.629689 0.0218239 0)
(0.628883 0.024669 0)
(0.628176 0.0280641 0)
(0.627634 0.0321473 0)
(0.627369 0.0370833 0)
(0.627561 0.0430568 0)
(0.628495 0.0502468 0)
(0.63059 0.0587667 0)
(0.634407 0.0685402 0)
(0.640605 0.0790753 0)
(0.100435 -0.00301591 0)
(0.103836 -0.00552765 0)
(0.109008 -0.00762294 0)
(0.115583 -0.00947142 0)
(0.123402 -0.0111571 0)
(0.132322 -0.0127478 0)
(0.142249 -0.0143034 0)
(0.153143 -0.0158723 0)
(0.164999 -0.0174886 0)
(0.177836 -0.0191678 0)
(0.191675 -0.0209053 0)
(0.206524 -0.0226771 0)
(0.222365 -0.0244436 0)
(0.239139 -0.0261549 0)
(0.256752 -0.0277586 0)
(0.275072 -0.0292051 0)
(0.293938 -0.0304535 0)
(0.313176 -0.0314738 0)
(0.332602 -0.0322481 0)
(0.35204 -0.0327702 0)
(0.371322 -0.0330436 0)
(0.390299 -0.0330798 0)
(0.40884 -0.0328956 0)
(0.426837 -0.0325115 0)
(0.444201 -0.0319496 0)
(0.460861 -0.0312328 0)
(0.476765 -0.0303831 0)
(0.491878 -0.0294215 0)
(0.506176 -0.0283674 0)
(0.519648 -0.0272382 0)
(0.532292 -0.0260497 0)
(0.544114 -0.0248155 0)
(0.555126 -0.0235478 0)
(0.565347 -0.0222569 0)
(0.574797 -0.0209517 0)
(0.583501 -0.0196398 0)
(0.591487 -0.0183275 0)
(0.598782 -0.0170202 0)
(0.605418 -0.0157224 0)
(0.611423 -0.0144377 0)
(0.616829 -0.0131691 0)
(0.621666 -0.011919 0)
(0.625966 -0.0106891 0)
(0.629759 -0.00948098 0)
(0.633075 -0.00829544 0)
(0.635943 -0.00713301 0)
(0.638392 -0.00599383 0)
(0.64045 -0.00487761 0)
(0.642146 -0.00378364 0)
(0.643505 -0.0027108 0)
(0.644554 -0.00165742 0)
(0.645318 -0.000621314 0)
(0.645822 0.000399668 0)
(0.64609 0.0014077 0)
(0.646144 0.00240579 0)
(0.646007 0.00339786 0)
(0.645701 0.00438865 0)
(0.645244 0.00538373 0)
(0.644658 0.00638968 0)
(0.64396 0.0074142 0)
(0.643169 0.00846639 0)
(0.642301 0.00955694 0)
(0.641373 0.0106985 0)
(0.6404 0.0119059 0)
(0.639398 0.0131969 0)
(0.638381 0.0145926 0)
(0.637363 0.016118 0)
(0.636359 0.0178032 0)
(0.635386 0.019684 0)
(0.634463 0.0218037 0)
(0.633613 0.0242135 0)
(0.632867 0.0269747 0)
(0.632266 0.0301588 0)
(0.631871 0.0338472 0)
(0.631766 0.038129 0)
(0.632072 0.0430935 0)
(0.63295 0.0488159 0)
(0.634615 0.0553312 0)
(0.637329 0.0625931 0)
(0.641371 0.0704153 0)
(0.64697 0.0784075 0)
(0.100317 -0.0035899 0)
(0.103635 -0.00666779 0)
(0.108658 -0.00923471 0)
(0.11508 -0.0115042 0)
(0.122758 -0.0135761 0)
(0.131548 -0.0155329 0)
(0.141363 -0.0174491 0)
(0.152171 -0.0193866 0)
(0.163979 -0.0213891 0)
(0.17682 -0.0234773 0)
(0.19073 -0.0256459 0)
(0.205729 -0.0278642 0)
(0.221804 -0.0300804 0)
(0.238896 -0.0322302 0)
(0.2569 -0.0342448 0)
(0.275669 -0.0360605 0)
(0.295023 -0.0376243 0)
(0.314768 -0.0388984 0)
(0.334705 -0.0398609 0)
(0.35464 -0.0405048 0)
(0.374395 -0.0408358 0)
(0.393814 -0.0408695 0)
(0.412761 -0.0406281 0)
(0.431124 -0.0401382 0)
(0.448814 -0.0394282 0)
(0.465762 -0.0385271 0)
(0.481918 -0.0374627 0)
(0.497249 -0.0362613 0)
(0.511733 -0.0349471 0)
(0.525363 -0.0335419 0)
(0.538139 -0.0320649 0)
(0.55007 -0.0305333 0)
(0.561171 -0.0289616 0)
(0.571461 -0.0273627 0)
(0.580966 -0.0257474 0)
(0.58971 -0.0241248 0)
(0.597723 -0.0225027 0)
(0.605034 -0.0208876 0)
(0.611675 -0.0192847 0)
(0.617676 -0.0176986 0)
(0.623071 -0.0161327 0)
(0.627889 -0.0145898 0)
(0.632163 -0.0130721 0)
(0.635924 -0.0115812 0)
(0.639201 -0.010118 0)
(0.642025 -0.00868324 0)
(0.644426 -0.00727687 0)
(0.64643 -0.00589853 0)
(0.648067 -0.00454733 0)
(0.649362 -0.00322187 0)
(0.650343 -0.00192017 0)
(0.651035 -0.000639619 0)
(0.651463 0.000622335 0)
(0.651651 0.00186839 0)
(0.651622 0.00310236 0)
(0.651398 0.00432906 0)
(0.651 0.00555409 0)
(0.65045 0.00678396 0)
(0.649768 0.00802625 0)
(0.648971 0.00928971 0)
(0.64808 0.0105846 0)
(0.647112 0.0119226 0)
(0.646085 0.0133176 0)
(0.645017 0.0147855 0)
(0.643925 0.0163447 0)
(0.642828 0.0180169 0)
(0.641745 0.0198268 0)
(0.640695 0.0218031 0)
(0.639701 0.0239791 0)
(0.638791 0.0263923 0)
(0.637997 0.0290852 0)
(0.637358 0.0321047 0)
(0.636926 0.0355005 0)
(0.636765 0.0393228 0)
(0.636957 0.0436173 0)
(0.637604 0.0484168 0)
(0.638827 0.0537292 0)
(0.640764 0.0595209 0)
(0.643553 0.0656968 0)
(0.647311 0.0720806 0)
(0.65208 0.0784084 0)
(0.100196 -0.00417226 0)
(0.103446 -0.00784472 0)
(0.108322 -0.0109129 0)
(0.114586 -0.0136327 0)
(0.122113 -0.0161201 0)
(0.130768 -0.0184728 0)
(0.140469 -0.0207822 0)
(0.151197 -0.0231259 0)
(0.162979 -0.0255596 0)
(0.175868 -0.0281101 0)
(0.189921 -0.030771 0)
(0.205172 -0.0335026 0)
(0.221611 -0.0362376 0)
(0.239172 -0.038892 0)
(0.257731 -0.0413773 0)
(0.277115 -0.0436115 0)
(0.29712 -0.0455283 0)
(0.317524 -0.0470812 0)
(0.338104 -0.0482448 0)
(0.358651 -0.0490127 0)
(0.378976 -0.0493942 0)
(0.398913 -0.0494108 0)
(0.418324 -0.0490918 0)
(0.437098 -0.0484712 0)
(0.455145 -0.047585 0)
(0.472402 -0.0464691 0)
(0.488821 -0.0451582 0)
(0.504372 -0.0436844 0)
(0.51904 -0.0420772 0)
(0.532821 -0.0403629 0)
(0.545718 -0.0385649 0)
(0.557745 -0.0367034 0)
(0.568919 -0.0347962 0)
(0.579264 -0.0328582 0)
(0.588805 -0.0309025 0)
(0.597571 -0.0289397 0)
(0.605593 -0.026979 0)
(0.612902 -0.0250279 0)
(0.619531 -0.0230927 0)
(0.625513 -0.0211784 0)
(0.630879 -0.0192891 0)
(0.635662 -0.017428 0)
(0.639895 -0.0155975 0)
(0.643608 -0.0137993 0)
(0.646833 -0.0120347 0)
(0.6496 -0.0103041 0)
(0.651938 -0.00860748 0)
(0.653876 -0.00694441 0)
(0.655443 -0.00531376 0)
(0.656664 -0.00371385 0)
(0.657566 -0.0021424 0)
(0.658175 -0.000596503 0)
(0.658519 0.000926885 0)
(0.658619 0.00243106 0)
(0.658498 0.00392067 0)
(0.65818 0.00540135 0)
(0.657686 0.00687948 0)
(0.657037 0.00836236 0)
(0.656254 0.00985831 0)
(0.655356 0.0113769 0)
(0.654363 0.0129289 0)
(0.653295 0.0145269 0)
(0.652171 0.0161849 0)
(0.651011 0.0179191 0)
(0.649834 0.0197475 0)
(0.648663 0.0216907 0)
(0.647519 0.0237716 0)
(0.646427 0.0260156 0)
(0.645414 0.0284505 0)
(0.644511 0.0311062 0)
(0.643755 0.034014 0)
(0.643189 0.0372052 0)
(0.642863 0.0407092 0)
(0.642835 0.0445498 0)
(0.643173 0.0487413 0)
(0.643953 0.0532817 0)
(0.645252 0.0581459 0)
(0.647148 0.0632772 0)
(0.6497 0.0685809 0)
(0.652942 0.0739213 0)
(0.656845 0.079132 0)
(0.100071 -0.00476553 0)
(0.103268 -0.00905955 0)
(0.108008 -0.0126592 0)
(0.114113 -0.0158592 0)
(0.12149 -0.0187934 0)
(0.130009 -0.0215754 0)
(0.139603 -0.0243162 0)
(0.150273 -0.0271124 0)
(0.162072 -0.0300347 0)
(0.175082 -0.0331172 0)
(0.189386 -0.0363509 0)
(0.205033 -0.0396828 0)
(0.222009 -0.0430241 0)
(0.24023 -0.0462645 0)
(0.259541 -0.0492898 0)
(0.279732 -0.0519966 0)
(0.300561 -0.0543034 0)
(0.321773 -0.0561555 0)
(0.343122 -0.0575255 0)
(0.36438 -0.0584099 0)
(0.385347 -0.0588245 0)
(0.405854 -0.0587988 0)
(0.425762 -0.0583712 0)
(0.444963 -0.0575851 0)
(0.463372 -0.0564853 0)
(0.480931 -0.0551161 0)
(0.497599 -0.0535193 0)
(0.513352 -0.0517338 0)
(0.52818 -0.0497947 0)
(0.542085 -0.0477331 0)
(0.555075 -0.0455766 0)
(0.567169 -0.0433489 0)
(0.578388 -0.0410708 0)
(0.588757 -0.0387595 0)
(0.598307 -0.0364301 0)
(0.607069 -0.0340948 0)
(0.615074 -0.0317643 0)
(0.622357 -0.0294469 0)
(0.628951 -0.0271499 0)
(0.63489 -0.0248788 0)
(0.640208 -0.0226382 0)
(0.644938 -0.0204317 0)
(0.649112 -0.0182619 0)
(0.652762 -0.0161306 0)
(0.65592 -0.0140391 0)
(0.658617 -0.0119878 0)
(0.660881 -0.00997664 0)
(0.662742 -0.00800492 0)
(0.664228 -0.00607132 0)
(0.665366 -0.00417394 0)
(0.666183 -0.00231021 0)
(0.666703 -0.000477083 0)
(0.666956 0.00132904 0)
(0.666963 0.00311222 0)
(0.666748 0.00487791 0)
(0.666333 0.00663242 0)
(0.665741 0.00838274 0)
(0.664993 0.0101367 0)
(0.664109 0.0119032 0)
(0.663112 0.013692 0)
(0.66202 0.0155144 0)
(0.660856 0.0173828 0)
(0.659639 0.0193109 0)
(0.658392 0.0213141 0)
(0.657136 0.0234091 0)
(0.655895 0.0256142 0)
(0.654694 0.0279491 0)
(0.653559 0.0304344 0)
(0.65252 0.0330916 0)
(0.651609 0.0359419 0)
(0.650863 0.0390056 0)
(0.650322 0.0423002 0)
(0.650028 0.0458385 0)
(0.650031 0.0496261 0)
(0.65038 0.0536577 0)
(0.651124 0.0579144 0)
(0.652308 0.0623596 0)
(0.653966 0.0669366 0)
(0.656118 0.0715682 0)
(0.658756 0.0761592 0)
(0.661832 0.0806082 0)
(0.0999387 -0.00537293 0)
(0.103104 -0.0103148 0)
(0.107721 -0.0144767 0)
(0.113673 -0.0181882 0)
(0.120903 -0.0216029 0)
(0.129297 -0.0248521 0)
(0.138803 -0.0280705 0)
(0.149453 -0.0313783 0)
(0.161338 -0.0348648 0)
(0.174581 -0.0385721 0)
(0.189291 -0.0424848 0)
(0.205527 -0.0465291 0)
(0.223261 -0.0505849 0)
(0.242371 -0.0545068 0)
(0.262654 -0.058148 0)
(0.28385 -0.0613803 0)
(0.305668 -0.0641069 0)
(0.327819 -0.0662673 0)
(0.350032 -0.0678354 0)
(0.372063 -0.0688145 0)
(0.393709 -0.0692301 0)
(0.414799 -0.069123 0)
(0.435199 -0.0685434 0)
(0.454807 -0.0675456 0)
(0.473548 -0.0661848 0)
(0.491372 -0.0645147 0)
(0.508247 -0.0625851 0)
(0.524156 -0.0604418 0)
(0.539098 -0.0581261 0)
(0.55308 -0.055674 0)
(0.566119 -0.0531174 0)
(0.578235 -0.0504836 0)
(0.589455 -0.047796 0)
(0.599809 -0.0450745 0)
(0.60933 -0.0423358 0)
(0.61805 -0.0395939 0)
(0.626006 -0.0368604 0)
(0.633232 -0.0341449 0)
(0.639764 -0.0314551 0)
(0.645635 -0.0287974 0)
(0.650882 -0.0261765 0)
(0.655537 -0.0235963 0)
(0.659635 -0.0210597 0)
(0.663207 -0.0185684 0)
(0.666284 -0.0161237 0)
(0.668898 -0.013726 0)
(0.671079 -0.011375 0)
(0.672855 -0.0090699 0)
(0.674254 -0.00680913 0)
(0.675304 -0.00459053 0)
(0.676032 -0.00241126 0)
(0.676461 -0.000268434 0)
(0.676624 0.00184209 0)
(0.676538 0.00392549 0)
(0.67623 0.00598793 0)
(0.675721 0.00803616 0)
(0.675035 0.0100775 0)
(0.674192 0.0121202 0)
(0.673214 0.0141732 0)
(0.672124 0.0162463 0)
(0.670942 0.0183506 0)
(0.669689 0.0204978 0)
(0.668389 0.0227007 0)
(0.667064 0.0249732 0)
(0.665737 0.0273298 0)
(0.664432 0.0297858 0)
(0.663176 0.0323567 0)
(0.661995 0.0350581 0)
(0.66092 0.0379049 0)
(0.65998 0.0409102 0)
(0.65921 0.0440849 0)
(0.658642 0.0474359 0)
(0.658314 0.0509646 0)
(0.658258 0.0546653 0)
(0.65851 0.0585237 0)
(0.659097 0.0625147 0)
(0.660042 0.0666023 0)
(0.661354 0.0707389 0)
(0.663031 0.074867 0)
(0.665049 0.078923 0)
(0.667362 0.0828464 0)
(0.0997972 -0.00599813 0)
(0.10295 -0.0116146 0)
(0.107463 -0.0163703 0)
(0.113272 -0.0206264 0)
(0.120367 -0.0245584 0)
(0.128653 -0.0283197 0)
(0.138106 -0.0320737 0)
(0.148801 -0.0359711 0)
(0.160881 -0.0401235 0)
(0.174516 -0.0445799 0)
(0.189843 -0.0493106 0)
(0.206916 -0.0542081 0)
(0.225669 -0.0591067 0)
(0.245921 -0.0638145 0)
(0.267399 -0.0681457 0)
(0.289778 -0.0719462 0)
(0.312718 -0.0751066 0)
(0.335895 -0.0775653 0)
(0.359018 -0.0793033 0)
(0.381836 -0.0803358 0)
(0.404145 -0.0807025 0)
(0.425783 -0.080459 0)
(0.446626 -0.0796696 0)
(0.466582 -0.0784019 0)
(0.48559 -0.0767226 0)
(0.503609 -0.0746952 0)
(0.52062 -0.0723786 0)
(0.536616 -0.0698257 0)
(0.551603 -0.0670837 0)
(0.565597 -0.064194 0)
(0.578619 -0.0611924 0)
(0.590698 -0.0581097 0)
(0.601864 -0.054972 0)
(0.612152 -0.0518014 0)
(0.621596 -0.0486164 0)
(0.630232 -0.0454324 0)
(0.638099 -0.0422621 0)
(0.645233 -0.0391158 0)
(0.651669 -0.0360019 0)
(0.657445 -0.032927 0)
(0.662596 -0.0298964 0)
(0.667156 -0.0269141 0)
(0.671158 -0.0239827 0)
(0.674636 -0.0211044 0)
(0.67762 -0.01828 0)
(0.680142 -0.01551 0)
(0.682231 -0.0127939 0)
(0.683916 -0.0101306 0)
(0.685226 -0.00751841 0)
(0.686188 -0.00495495 0)
(0.686827 -0.00243712 0)
(0.687171 3.78899e-05 0)
(0.687246 0.00247469 0)
(0.687075 0.00487953 0)
(0.68668 0.00725911 0)
(0.686086 0.00962042 0)
(0.685315 0.011971 0)
(0.684388 0.014319 0)
(0.683329 0.0166732 0)
(0.682158 0.0190431 0)
(0.680899 0.021439 0)
(0.679572 0.0238717 0)
(0.678202 0.0263523 0)
(0.67681 0.0288928 0)
(0.675422 0.031505 0)
(0.674061 0.0342007 0)
(0.672753 0.0369915 0)
(0.671525 0.0398877 0)
(0.670402 0.0428984 0)
(0.669414 0.0460303 0)
(0.668589 0.0492871 0)
(0.667952 0.0526685 0)
(0.667532 0.0561693 0)
(0.667352 0.0597785 0)
(0.667432 0.0634786 0)
(0.667787 0.0672455 0)
(0.668424 0.0710484 0)
(0.66934 0.0748508 0)
(0.670523 0.0786123 0)
(0.671947 0.0822915 0)
(0.673571 0.0858532 0)
(0.0996439 -0.00664519 0)
(0.102806 -0.0129641 0)
(0.107236 -0.018347 0)
(0.112917 -0.0231833 0)
(0.119894 -0.0276748 0)
(0.128103 -0.0320028 0)
(0.137559 -0.0363686 0)
(0.148398 -0.0409613 0)
(0.160831 -0.0459186 0)
(0.175079 -0.0512898 0)
(0.191295 -0.0570159 0)
(0.209501 -0.0629353 0)
(0.229561 -0.0688185 0)
(0.251204 -0.0744146 0)
(0.274071 -0.0794956 0)
(0.297766 -0.0838845 0)
(0.321903 -0.0874664 0)
(0.34613 -0.0901868 0)
(0.370145 -0.0920412 0)
(0.393702 -0.093063 0)
(0.416605 -0.093311 0)
(0.438706 -0.0928592 0)
(0.459897 -0.0917885 0)
(0.480103 -0.090181 0)
(0.499277 -0.0881161 0)
(0.517393 -0.0856679 0)
(0.534443 -0.0829039 0)
(0.550433 -0.0798846 0)
(0.565377 -0.0766631 0)
(0.5793 -0.0732855 0)
(0.59223 -0.0697918 0)
(0.6042 -0.0662159 0)
(0.615246 -0.0625863 0)
(0.625406 -0.0589271 0)
(0.634718 -0.0552585 0)
(0.643221 -0.0515969 0)
(0.650954 -0.0479558 0)
(0.657955 -0.0443464 0)
(0.664261 -0.0407772 0)
(0.669911 -0.0372554 0)
(0.674939 -0.0337862 0)
(0.67938 -0.0303737 0)
(0.683268 -0.0270205 0)
(0.686636 -0.0237286 0)
(0.689515 -0.0204988 0)
(0.691936 -0.0173313 0)
(0.693928 -0.0142255 0)
(0.69552 -0.01118 0)
(0.696741 -0.00819301 0)
(0.697616 -0.00526197 0)
(0.698172 -0.00238379 0)
(0.698437 0.000444999 0)
(0.698434 0.00322948 0)
(0.698187 0.00597632 0)
(0.697719 0.00869249 0)
(0.697053 0.0113851 0)
(0.696212 0.0140616 0)
(0.695219 0.0167299 0)
(0.694095 0.0193984 0)
(0.692862 0.0220759 0)
(0.691543 0.0247715 0)
(0.690161 0.0274945 0)
(0.688737 0.0302545 0)
(0.687296 0.033061 0)
(0.68586 0.035923 0)
(0.684453 0.0388491 0)
(0.683099 0.0418468 0)
(0.681822 0.0449225 0)
(0.680646 0.0480804 0)
(0.679595 0.0513224 0)
(0.678691 0.0546477 0)
(0.677956 0.0580518 0)
(0.677407 0.0615264 0)
(0.677061 0.0650591 0)
(0.676927 0.0686332 0)
(0.677012 0.0722282 0)
(0.677315 0.07582 0)
(0.677827 0.0793821 0)
(0.678532 0.0828873 0)
(0.679408 0.0863092 0)
(0.680422 0.089628 0)
(0.0994757 -0.00731855 0)
(0.10267 -0.0143701 0)
(0.10704 -0.0204158 0)
(0.112611 -0.0258722 0)
(0.119499 -0.0309732 0)
(0.127678 -0.0359387 0)
(0.137225 -0.0410199 0)
(0.148357 -0.0464546 0)
(0.161364 -0.0524054 0)
(0.176516 -0.0589076 0)
(0.19395 -0.0658459 0)
(0.213613 -0.0729763 0)
(0.235261 -0.0799842 0)
(0.258507 -0.086552 0)
(0.282896 -0.0924123 0)
(0.307967 -0.0973747 0)
(0.333296 -0.101331 0)
(0.358521 -0.104243 0)
(0.383342 -0.106132 0)
(0.407527 -0.107055 0)
(0.4309 -0.107095 0)
(0.453332 -0.106347 0)
(0.474738 -0.104911 0)
(0.495061 -0.102884 0)
(0.514271 -0.100358 0)
(0.53236 -0.0974193 0)
(0.549333 -0.0941432 0)
(0.565206 -0.0905973 0)
(0.580004 -0.0868406 0)
(0.59376 -0.0829237 0)
(0.606509 -0.07889 0)
(0.618289 -0.0747762 0)
(0.62914 -0.0706131 0)
(0.639105 -0.0664264 0)
(0.648224 -0.0622375 0)
(0.656538 -0.0580637 0)
(0.664088 -0.0539193 0)
(0.670913 -0.0498155 0)
(0.677051 -0.0457615 0)
(0.682541 -0.0417643 0)
(0.687418 -0.0378292 0)
(0.691717 -0.03396 0)
(0.695471 -0.0301595 0)
(0.698714 -0.0264292 0)
(0.701476 -0.0227699 0)
(0.703788 -0.0191814 0)
(0.705678 -0.0156628 0)
(0.707176 -0.0122128 0)
(0.708308 -0.00882925 0)
(0.709102 -0.00550953 0)
(0.709581 -0.00225054 0)
(0.709776 0.000951917 0)
(0.709707 0.00410349 0)
(0.709397 0.0072109 0)
(0.708871 0.0102811 0)
(0.708152 0.0133212 0)
(0.707261 0.0163383 0)
(0.70622 0.0193399 0)
(0.705053 0.0223336 0)
(0.70378 0.0253272 0)
(0.702424 0.0283287 0)
(0.701007 0.0313457 0)
(0.699551 0.034386 0)
(0.698077 0.0374565 0)
(0.69661 0.0405638 0)
(0.695169 0.0437136 0)
(0.693778 0.0469103 0)
(0.692457 0.0501567 0)
(0.691226 0.0534539 0)
(0.690106 0.0568009 0)
(0.689113 0.0601941 0)
(0.688263 0.0636272 0)
(0.687568 0.0670915 0)
(0.687037 0.0705752 0)
(0.686676 0.0740643 0)
(0.686484 0.0775425 0)
(0.686457 0.0809923 0)
(0.686585 0.0843954 0)
(0.686853 0.0877336 0)
(0.687241 0.090991 0)
(0.687724 0.0941571 0)
(0.0992895 -0.00802313 0)
(0.10254 -0.0158412 0)
(0.106876 -0.0225888 0)
(0.112364 -0.0287117 0)
(0.119201 -0.0344855 0)
(0.127423 -0.0401842 0)
(0.137192 -0.046126 0)
(0.148827 -0.052606 0)
(0.162708 -0.0598027 0)
(0.17912 -0.0677064 0)
(0.198138 -0.0761049 0)
(0.21958 -0.0846369 0)
(0.243051 -0.0928858 0)
(0.268035 -0.100469 0)
(0.293988 -0.107091 0)
(0.3204 -0.112566 0)
(0.346831 -0.116807 0)
(0.372923 -0.119808 0)
(0.398397 -0.12162 0)
(0.423044 -0.122334 0)
(0.446715 -0.122058 0)
(0.469308 -0.120912 0)
(0.490761 -0.119015 0)
(0.511041 -0.116481 0)
(0.530137 -0.113414 0)
(0.548056 -0.109911 0)
(0.564817 -0.106055 0)
(0.58045 -0.101921 0)
(0.594988 -0.0975727 0)
(0.608471 -0.0930649 0)
(0.620942 -0.0884439 0)
(0.632443 -0.0837487 0)
(0.64302 -0.0790119 0)
(0.652717 -0.0742605 0)
(0.661577 -0.0695167 0)
(0.669644 -0.0647983 0)
(0.676958 -0.06012 0)
(0.683561 -0.0554933 0)
(0.689491 -0.0509272 0)
(0.694786 -0.0464286 0)
(0.699482 -0.0420027 0)
(0.703614 -0.0376531 0)
(0.707215 -0.0333823 0)
(0.710316 -0.0291914 0)
(0.71295 -0.025081 0)
(0.715145 -0.0210506 0)
(0.716929 -0.0170991 0)
(0.718332 -0.0132248 0)
(0.719379 -0.0094255 0)
(0.720096 -0.00569848 0)
(0.720508 -0.00204059 0)
(0.720643 0.00155295 0)
(0.72052 0.00508818 0)
(0.720164 0.00857184 0)
(0.719598 0.0120107 0)
(0.718844 0.0154116 0)
(0.717923 0.0187812 0)
(0.716858 0.0221262 0)
(0.71567 0.0254536 0)
(0.71438 0.0287699 0)
(0.71301 0.0320816 0)
(0.711581 0.0353951 0)
(0.710114 0.0387159 0)
(0.708629 0.0420491 0)
(0.707147 0.0453992 0)
(0.705688 0.0487693 0)
(0.704271 0.0521615 0)
(0.702914 0.0555765 0)
(0.701634 0.0590132 0)
(0.700447 0.062469 0)
(0.699365 0.0659393 0)
(0.698399 0.0694178 0)
(0.697558 0.0728964 0)
(0.696846 0.0763652 0)
(0.696264 0.0798133 0)
(0.695811 0.0832287 0)
(0.695481 0.0865992 0)
(0.695264 0.0899125 0)
(0.695147 0.0931573 0)
(0.695115 0.0963241 0)
(0.695148 0.0994084 0)
(0.0990814 -0.0087646 0)
(0.102415 -0.017388 0)
(0.106749 -0.0248822 0)
(0.112187 -0.0317285 0)
(0.11903 -0.0382596 0)
(0.127404 -0.044826 0)
(0.137584 -0.0518342 0)
(0.150014 -0.0596391 0)
(0.165145 -0.0684069 0)
(0.183226 -0.0780303 0)
(0.204194 -0.0881458 0)
(0.22768 -0.0982424 0)
(0.253117 -0.107797 0)
(0.279867 -0.116378 0)
(0.307319 -0.123686 0)
(0.33494 -0.129561 0)
(0.362297 -0.133956 0)
(0.389057 -0.136907 0)
(0.414972 -0.138506 0)
(0.439867 -0.138879 0)
(0.463626 -0.138165 0)
(0.486179 -0.136509 0)
(0.507488 -0.134048 0)
(0.527545 -0.130913 0)
(0.546359 -0.127221 0)
(0.563952 -0.123077 0)
(0.580357 -0.118573 0)
(0.595616 -0.11379 0)
(0.609771 -0.108794 0)
(0.62287 -0.103646 0)
(0.63496 -0.0983921 0)
(0.64609 -0.0930745 0)
(0.656308 -0.0877267 0)
(0.665661 -0.0823763 0)
(0.674194 -0.077046 0)
(0.681952 -0.0717541 0)
(0.688976 -0.0665149 0)
(0.695309 -0.06134 0)
(0.700989 -0.0562381 0)
(0.706054 -0.0512158 0)
(0.710538 -0.046278 0)
(0.714477 -0.0414278 0)
(0.717904 -0.0366673 0)
(0.720848 -0.0319973 0)
(0.723341 -0.0274179 0)
(0.725411 -0.0229283 0)
(0.727086 -0.0185271 0)
(0.728393 -0.0142124 0)
(0.729357 -0.00998173 0)
(0.730004 -0.0058323 0)
(0.730358 -0.00176092 0)
(0.730444 0.0022376 0)
(0.730282 0.0061696 0)
(0.729896 0.0100417 0)
(0.729308 0.0138605 0)
(0.728539 0.0176321 0)
(0.72761 0.0213628 0)
(0.726542 0.0250585 0)
(0.725356 0.028725 0)
(0.724073 0.0323681 0)
(0.722712 0.0359928 0)
(0.721294 0.0396038 0)
(0.719837 0.0432054 0)
(0.718361 0.0468009 0)
(0.716884 0.0503929 0)
(0.715423 0.053983 0)
(0.713995 0.0575717 0)
(0.712615 0.0611583 0)
(0.711297 0.0647409 0)
(0.710053 0.0683161 0)
(0.708892 0.0718796 0)
(0.707821 0.0754257 0)
(0.706847 0.0789477 0)
(0.705972 0.082438 0)
(0.705195 0.0858887 0)
(0.704512 0.0892914 0)
(0.70392 0.092638 0)
(0.703408 0.0959208 0)
(0.702967 0.0991331 0)
(0.702585 0.102269 0)
(0.702248 0.10533 0)
(0.0988474 -0.00954966 0)
(0.102294 -0.0190244 0)
(0.106662 -0.0273187 0)
(0.112097 -0.0349623 0)
(0.11903 -0.0423684 0)
(0.127714 -0.0499965 0)
(0.138572 -0.0583618 0)
(0.152179 -0.0678643 0)
(0.169003 -0.0785994 0)
(0.189171 -0.0902839 0)
(0.212398 -0.102345 0)
(0.238089 -0.114106 0)
(0.265511 -0.124955 0)
(0.293932 -0.134441 0)
(0.322707 -0.142294 0)
(0.351312 -0.148404 0)
(0.379347 -0.15278 0)
(0.406516 -0.155512 0)
(0.432614 -0.156739 0)