/*--------------------------------*- C++ -*----------------------------------*\
  =========                 |
  \\      /  F ield         | OpenFOAM: The Open Source CFD Toolbox
   \\    /   O peration     | Website:  https://openfoam.org
    \\  /    A nd           | Version:  7
     \\/     M anipulation  |
\*---------------------------------------------------------------------------*/
FoamFile
{
    version     2.0;
    format      ascii;
    class       volVectorField;
    location    "0.15";
    object      U;
}
// * * * * * * * * * * * * * * * * * * * * * * * * * * * * * * * * * * * * * //

dimensions      [0 1 -1 0 0 0 0];

internalField   nonuniform List<vector> 
12013
(
(0.0998684 3.23313e-05 0)
(0.099433 4.17184e-05 0)
(0.09903 2.9603e-05 0)
(0.0988162 1.65497e-05 0)
(0.0986957 1.14456e-05 0)
(0.0985897 1.17245e-05 0)
(0.098469 1.36909e-05 0)
(0.098331 1.55911e-05 0)
(0.0981806 1.70151e-05 0)
(0.0980227 1.80285e-05 0)
(0.0978605 1.87791e-05 0)
(0.097696 1.93765e-05 0)
(0.0975301 1.9889e-05 0)
(0.0973636 2.03532e-05 0)
(0.0971968 2.07927e-05 0)
(0.0970298 2.12212e-05 0)
(0.0968629 2.16498e-05 0)
(0.096696 2.20862e-05 0)
(0.0965291 2.25371e-05 0)
(0.0963621 2.30083e-05 0)
(0.096195 2.35063e-05 0)
(0.0960277 2.40354e-05 0)
(0.0958598 2.46009e-05 0)
(0.0956914 2.52063e-05 0)
(0.0955222 2.58529e-05 0)
(0.095352 2.65404e-05 0)
(0.0951806 2.72686e-05 0)
(0.095008 2.80348e-05 0)
(0.0948341 2.88353e-05 0)
(0.0946587 2.96671e-05 0)
(0.0944819 3.0526e-05 0)
(0.0943035 3.14086e-05 0)
(0.0941237 3.23121e-05 0)
(0.0939424 3.32333e-05 0)
(0.0937596 3.41683e-05 0)
(0.0935755 3.51155e-05 0)
(0.0933902 3.60738e-05 0)
(0.0932035 3.70436e-05 0)
(0.0930158 3.80246e-05 0)
(0.0928269 3.90169e-05 0)
(0.092637 4.00202e-05 0)
(0.0924462 4.1036e-05 0)
(0.0922544 4.20649e-05 0)
(0.0920618 4.31099e-05 0)
(0.0918683 4.41746e-05 0)
(0.0916741 4.52639e-05 0)
(0.091479 4.63841e-05 0)
(0.091283 4.75418e-05 0)
(0.0910862 4.87453e-05 0)
(0.0908883 5.00056e-05 0)
(0.0906894 5.1336e-05 0)
(0.0904891 5.27527e-05 0)
(0.0902873 5.42758e-05 0)
(0.0900837 5.59292e-05 0)
(0.089878 5.77418e-05 0)
(0.0896696 5.97495e-05 0)
(0.089458 6.19976e-05 0)
(0.0892425 6.45431e-05 0)
(0.0890223 6.74585e-05 0)
(0.0887963 7.08359e-05 0)
(0.0885632 7.47955e-05 0)
(0.0883213 7.94927e-05 0)
(0.0880686 8.51307e-05 0)
(0.0878024 9.19799e-05 0)
(0.0875193 0.000100401 0)
(0.087215 0.000110885 0)
(0.0868839 0.000124107 0)
(0.0865185 0.000141014 0)
(0.086109 0.000162949 0)
(0.085642 0.000191863 0)
(0.0850991 0.000230646 0)
(0.0844544 0.000283666 0)
(0.0836712 0.00035768 0)
(0.0826955 0.000463372 0)
(0.0814474 0.000617974 0)
(0.0798056 0.000849764 0)
(0.0775831 0.00120585 0)
(0.0744741 0.00176777 0)
(0.0699918 0.00269879 0)
(0.0635363 0.0044465 0)
(0.0561473 0.00900225 0)
(0.0998794 9.80437e-05 0)
(0.0994553 0.000127321 0)
(0.0990567 9.0863e-05 0)
(0.0988396 5.11429e-05 0)
(0.0987146 3.5486e-05 0)
(0.0986051 3.62256e-05 0)
(0.0984825 4.21439e-05 0)
(0.0983438 4.78946e-05 0)
(0.0981934 5.22169e-05 0)
(0.0980358 5.53006e-05 0)
(0.0978741 5.759e-05 0)
(0.0977102 5.94145e-05 0)
(0.097545 6.09825e-05 0)
(0.0973792 6.24043e-05 0)
(0.097213 6.37514e-05 0)
(0.0970468 6.50662e-05 0)
(0.0968805 6.63817e-05 0)
(0.0967143 6.77214e-05 0)
(0.096548 6.91062e-05 0)
(0.0963817 7.05543e-05 0)
(0.0962152 7.20837e-05 0)
(0.0960485 7.37088e-05 0)
(0.0958812 7.54457e-05 0)
(0.0957134 7.73043e-05 0)
(0.0955447 7.92889e-05 0)
(0.095375 8.1399e-05 0)
(0.0952043 8.36321e-05 0)
(0.0950322 8.59824e-05 0)
(0.0948588 8.84372e-05 0)
(0.094684 9.09877e-05 0)
(0.0945078 9.36213e-05 0)
(0.09433 9.63263e-05 0)
(0.0941508 9.90953e-05 0)
(0.0939701 0.000101919 0)
(0.093788 0.000104784 0)
(0.0936046 0.000107686 0)
(0.0934199 0.000110622 0)
(0.093234 0.000113593 0)
(0.093047 0.000116598 0)
(0.0928589 0.000119637 0)
(0.0926698 0.00012271 0)
(0.0924798 0.000125819 0)
(0.0922889 0.000128969 0)
(0.0920972 0.000132167 0)
(0.0919046 0.000135424 0)
(0.0917113 0.000138757 0)
(0.0915173 0.000142182 0)
(0.0913224 0.000145721 0)
(0.0911266 0.0001494 0)
(0.09093 0.000153249 0)
(0.0907323 0.000157311 0)
(0.0905333 0.000161636 0)
(0.090333 0.000166283 0)
(0.0901309 0.000171324 0)
(0.0899268 0.000176848 0)
(0.0897202 0.000182963 0)
(0.0895105 0.000189806 0)
(0.0892973 0.00019755 0)
(0.0890795 0.000206413 0)
(0.0888563 0.000216673 0)
(0.0886263 0.000228692 0)
(0.088388 0.000242935 0)
(0.0881395 0.000260013 0)
(0.0878782 0.000280733 0)
(0.0876011 0.000306168 0)
(0.0873043 0.000337774 0)
(0.0869825 0.000377545 0)
(0.0866291 0.000428248 0)
(0.0862355 0.000493798 0)
(0.08579 0.000579813 0)
(0.0852772 0.00069452 0)
(0.084676 0.000850189 0)
(0.0839578 0.00106547 0)
(0.0830825 0.00136919 0)
(0.0819947 0.00180656 0)
(0.0806179 0.00244883 0)
(0.0788481 0.00340735 0)
(0.0765425 0.00485238 0)
(0.0735359 0.00703598 0)
(0.0698706 0.0102541 0)
(0.0668581 0.0144013 0)
(0.099895 0.000163426 0)
(0.0995012 0.000215768 0)
(0.0991144 0.000156207 0)
(0.0988903 8.96069e-05 0)
(0.0987546 6.27073e-05 0)
(0.0986374 6.34091e-05 0)
(0.0985109 7.30469e-05 0)
(0.0983708 8.25815e-05 0)
(0.0982204 8.98136e-05 0)
(0.0980636 9.50091e-05 0)
(0.0979031 9.88885e-05 0)
(0.0977404 0.000101994 0)
(0.0975767 0.000104671 0)
(0.0974123 0.000107106 0)
(0.0972476 0.000109417 0)
(0.0970828 0.000111677 0)
(0.096918 0.000113941 0)
(0.0967532 0.000116248 0)
(0.0965884 0.000118636 0)
(0.0964234 0.000121133 0)
(0.0962582 0.00012377 0)
(0.0960927 0.000126572 0)
(0.0959267 0.000129564 0)
(0.09576 0.000132765 0)
(0.0955925 0.00013618 0)
(0.095424 0.000139809 0)
(0.0952544 0.000143647 0)
(0.0950835 0.000147684 0)
(0.0949113 0.000151898 0)
(0.0947377 0.000156275 0)
(0.0945627 0.000160794 0)
(0.0943862 0.000165432 0)
(0.0942082 0.00017018 0)
(0.0940289 0.000175019 0)
(0.0938482 0.00017993 0)
(0.0936662 0.000184902 0)
(0.093483 0.000189932 0)
(0.0932986 0.000195019 0)
(0.0931131 0.000200162 0)
(0.0929267 0.000205362 0)
(0.0927393 0.000210619 0)
(0.092551 0.000215934 0)
(0.0923619 0.000221318 0)
(0.092172 0.000226781 0)
(0.0919814 0.000232342 0)
(0.0917901 0.000238027 0)
(0.0915982 0.000243867 0)
(0.0914055 0.000249896 0)
(0.0912121 0.000256157 0)
(0.0910179 0.000262703 0)
(0.0908228 0.000269604 0)
(0.0906266 0.000276942 0)
(0.0904291 0.000284819 0)
(0.0902302 0.000293354 0)
(0.0900295 0.000302694 0)
(0.0898266 0.000313021 0)
(0.089621 0.000324564 0)
(0.0894121 0.000337607 0)
(0.0891993 0.000352513 0)
(0.0889815 0.000369744 0)
(0.0887578 0.000389892 0)
(0.0885266 0.000413723 0)
(0.0882863 0.000442234 0)
(0.0880348 0.000476731 0)
(0.0877693 0.000518946 0)
(0.0874865 0.0005712 0)
(0.0871821 0.00063664 0)
(0.0868508 0.00071958 0)
(0.0864858 0.000826019 0)
(0.0860785 0.000964408 0)
(0.0856178 0.00114682 0)
(0.0850901 0.00139074 0)
(0.0844782 0.00172181 0)
(0.0837612 0.00217795 0)
(0.0829156 0.0028153 0)
(0.0819182 0.00371599 0)
(0.0807546 0.00499545 0)
(0.0794354 0.00680271 0)
(0.0780403 0.00929701 0)
(0.07685 0.0125219 0)
(0.0765903 0.0159002 0)
(0.0999146 0.000224854 0)
(0.099567 0.000304351 0)
(0.0991995 0.000225444 0)
(0.098966 0.000133406 0)
(0.098815 9.46714e-05 0)
(0.0986867 9.43462e-05 0)
(0.0985545 0.000107012 0)
(0.0984124 0.000119977 0)
(0.0982621 0.000129976 0)
(0.0981065 0.000137246 0)
(0.0979478 0.000142725 0)
(0.0977872 0.000147143 0)
(0.0976256 0.000150971 0)
(0.0974635 0.000154466 0)
(0.0973011 0.000157795 0)
(0.0971386 0.000161058 0)
(0.096976 0.000164335 0)
(0.0968134 0.00016768 0)
(0.0966507 0.000171144 0)
(0.0964878 0.000174769 0)
(0.0963247 0.000178598 0)
(0.0961611 0.000182663 0)
(0.0959969 0.000187002 0)
(0.0958321 0.000191638 0)
(0.0956664 0.00019658 0)
(0.0954997 0.000201826 0)
(0.0953318 0.000207367 0)
(0.0951627 0.000213191 0)
(0.0949923 0.000219267 0)
(0.0948206 0.000225573 0)
(0.0946474 0.000232078 0)
(0.0944728 0.000238754 0)
(0.0942969 0.000245581 0)
(0.0941196 0.000252538 0)
(0.093941 0.000259597 0)
(0.0937612 0.000266741 0)
(0.0935802 0.000273965 0)
(0.0933981 0.000281267 0)
(0.093215 0.000288646 0)
(0.0930311 0.000296101 0)
(0.0928462 0.000303633 0)
(0.0926606 0.000311245 0)
(0.0924742 0.000318949 0)
(0.0922872 0.000326761 0)
(0.0920996 0.000334706 0)
(0.0919115 0.000342819 0)
(0.0917227 0.000351144 0)
(0.0915334 0.000359727 0)
(0.0913436 0.000368628 0)
(0.0911531 0.000377921 0)
(0.0909619 0.000387701 0)
(0.0907699 0.000398084 0)
(0.090577 0.000409208 0)
(0.0903829 0.000421239 0)
(0.0901873 0.000434379 0)
(0.0899901 0.00044888 0)
(0.0897906 0.000465054 0)
(0.0895885 0.000483293 0)
(0.0893832 0.000504091 0)
(0.0891739 0.000528076 0)
(0.0889596 0.000556052 0)
(0.0887393 0.000589047 0)
(0.0885115 0.000628392 0)
(0.0882746 0.000675813 0)
(0.0880265 0.000733579 0)
(0.0877647 0.000804686 0)
(0.0874861 0.000893133 0)
(0.0871871 0.0010043 0)
(0.0868634 0.00114551 0)
(0.08651 0.00132677 0)
(0.0861212 0.00156191 0)
(0.0856914 0.00187017 0)
(0.0852156 0.00227836 0)
(0.0846915 0.00282377 0)
(0.084123 0.00355746 0)
(0.0835276 0.0045469 0)
(0.0829477 0.00587397 0)
(0.082468 0.00761978 0)
(0.0822413 0.00981893 0)
(0.0825136 0.0123415 0)
(0.0835829 0.0146298 0)
(0.0999363 0.00027923 0)
(0.0996446 0.000389975 0)
(0.0993031 0.000298016 0)
(0.0990607 0.000183635 0)
(0.0988922 0.000132711 0)
(0.0987508 0.000129967 0)
(0.0986117 0.000144533 0)
(0.0984672 0.000160278 0)
(0.0983172 0.000172733 0)
(0.0981633 0.00018195 0)
(0.0980068 0.000188992 0)
(0.0978489 0.000194725 0)
(0.0976903 0.000199729 0)
(0.0975311 0.000204326 0)
(0.0973718 0.000208723 0)
(0.0972123 0.000213049 0)
(0.0970527 0.000217407 0)
(0.0968931 0.000221865 0)
(0.0967332 0.000226489 0)
(0.096573 0.00023133 0)
(0.0964125 0.000236444 0)
(0.0962515 0.000241871 0)
(0.0960899 0.000247656 0)
(0.0959274 0.000253829 0)
(0.0957641 0.000260398 0)
(0.0955997 0.000267363 0)
(0.0954342 0.000274709 0)
(0.0952675 0.000282419 0)
(0.0950995 0.000290456 0)
(0.0949301 0.000298787 0)
(0.0947594 0.000307376 0)
(0.0945874 0.000316183 0)
(0.0944141 0.000325183 0)
(0.0942395 0.000334348 0)
(0.0940637 0.000343644 0)
(0.0938867 0.000353049 0)
(0.0937087 0.000362554 0)
(0.0935297 0.000372155 0)
(0.0933498 0.000381848 0)
(0.0931691 0.000391632 0)
(0.0929877 0.000401509 0)
(0.0928056 0.000411484 0)
(0.0926229 0.000421569 0)
(0.0924397 0.000431784 0)
(0.092256 0.00044216 0)
(0.0920719 0.000452742 0)
(0.0918875 0.000463579 0)
(0.0917027 0.000474733 0)
(0.0915176 0.000486277 0)
(0.0913321 0.000498304 0)
(0.0911461 0.000510932 0)
(0.0909597 0.000524303 0)
(0.0907727 0.00053859 0)
(0.090585 0.000553999 0)
(0.0903964 0.000570781 0)
(0.0902066 0.000589247 0)
(0.0900154 0.000609782 0)
(0.0898224 0.000632868 0)
(0.0896271 0.00065911 0)
(0.089429 0.000689272 0)
(0.0892274 0.000724324 0)
(0.0890215 0.000765497 0)
(0.0888105 0.000814369 0)
(0.088593 0.00087296 0)
(0.0883679 0.000943886 0)
(0.0881337 0.00103054 0)
(0.0878887 0.00113737 0)
(0.0876312 0.00127019 0)
(0.0873595 0.00143667 0)
(0.0870725 0.00164696 0)
(0.0867697 0.00191446 0)
(0.0864526 0.00225684 0)
(0.0861261 0.0026972 0)
(0.0858014 0.0032652 0)
(0.0854995 0.00399755 0)
(0.085258 0.0049365 0)
(0.0851387 0.00612296 0)
(0.0852365 0.00757849 0)
(0.0856833 0.00926716 0)
(0.0866316 0.011027 0)
(0.0881764 0.0124802 0)
(0.0999574 0.000324236 0)
(0.0997241 0.000469905 0)
(0.0994135 0.000373016 0)
(0.0991654 0.000240774 0)
(0.0989805 0.000177696 0)
(0.0988258 0.000170953 0)
(0.0986795 0.000185981 0)
(0.0985327 0.000203612 0)
(0.0983831 0.000218056 0)
(0.0982311 0.000229001 0)
(0.0980775 0.000237516 0)
(0.0979228 0.00024454 0)
(0.0977676 0.00025073 0)
(0.0976121 0.000256461 0)
(0.0974564 0.000261975 0)
(0.0973005 0.000267426 0)
(0.0971445 0.00027294 0)
(0.0969883 0.000278595 0)
(0.0968319 0.000284473 0)
(0.096675 0.000290631 0)
(0.0965177 0.000297136 0)
(0.0963598 0.000304037 0)
(0.0962011 0.000311379 0)
(0.0960416 0.000319199 0)
(0.0958812 0.000327507 0)
(0.0957197 0.000336299 0)
(0.095557 0.000345556 0)
(0.0953932 0.000355253 0)
(0.095228 0.00036535 0)
(0.0950616 0.000375802 0)
(0.094894 0.000386565 0)
(0.094725 0.000397592 0)
(0.0945549 0.000408851 0)
(0.0943836 0.000420306 0)
(0.0942112 0.000431918 0)
(0.0940377 0.00044366 0)
(0.0938633 0.000455518 0)
(0.0936881 0.000467484 0)
(0.093512 0.000479552 0)
(0.0933353 0.00049172 0)
(0.093158 0.000503989 0)
(0.0929802 0.000516367 0)
(0.092802 0.000528864 0)
(0.0926234 0.000541505 0)
(0.0924446 0.000554325 0)
(0.0922655 0.000567371 0)
(0.0920864 0.000580703 0)
(0.0919071 0.000594389 0)
(0.0917277 0.000608515 0)
(0.0915483 0.000623189 0)
(0.0913688 0.000638545 0)
(0.0911893 0.000654747 0)
(0.0910096 0.000671992 0)
(0.0908298 0.000690519 0)
(0.0906497 0.000710616 0)
(0.0904692 0.000732638 0)
(0.0902881 0.000757024 0)
(0.0901062 0.00078432 0)
(0.0899233 0.000815209 0)
(0.0897391 0.000850544 0)
(0.0895532 0.000891401 0)
(0.0893651 0.000939127 0)
(0.0891745 0.000995424 0)
(0.0889808 0.00106244 0)
(0.0887837 0.0011429 0)
(0.0885826 0.00124027 0)
(0.0883775 0.00135896 0)
(0.0881684 0.00150455 0)
(0.0879563 0.00168414 0)
(0.0877431 0.0019067 0)
(0.0875326 0.00218343 0)
(0.0873314 0.00252812 0)
(0.0871508 0.00295738 0)
(0.0870084 0.00349032 0)
(0.0869317 0.00414737 0)
(0.0869612 0.00494696 0)
(0.0871539 0.00589854 0)
(0.0875844 0.00698932 0)
(0.0883389 0.0081625 0)
(0.0894927 0.00928867 0)
(0.0910576 0.0101469 0)
(0.0999757 0.000358981 0)
(0.0997972 0.000542487 0)
(0.0995201 0.000449383 0)
(0.0992713 0.00030462 0)
(0.0990735 0.000229964 0)
(0.0989073 0.000217771 0)
(0.0987546 0.000231738 0)
(0.0986056 0.000250228 0)
(0.0984567 0.000266086 0)
(0.098307 0.00027847 0)
(0.0981565 0.00028832 0)
(0.0980055 0.000296582 0)
(0.0978542 0.000303953 0)
(0.0977026 0.000310842 0)
(0.097551 0.000317518 0)
(0.0973992 0.000324158 0)
(0.0972472 0.000330906 0)
(0.0970949 0.00033785 0)
(0.0969423 0.00034508 0)
(0.0967892 0.000352664 0)
(0.0966355 0.000360675 0)
(0.0964811 0.000369167 0)
(0.0963259 0.000378186 0)
(0.0961697 0.000387771 0)
(0.0960126 0.000397933 0)
(0.0958543 0.000408663 0)
(0.095695 0.000419935 0)
(0.0955344 0.00043172 0)
(0.0953726 0.00044397 0)
(0.0952096 0.000456632 0)
(0.0950454 0.000469652 0)
(0.0948801 0.000482977 0)
(0.0947136 0.000496565 0)
(0.0945461 0.000510373 0)
(0.0943776 0.000524361 0)
(0.0942082 0.000538495 0)
(0.094038 0.000552755 0)
(0.0938671 0.000567128 0)
(0.0936956 0.000581605 0)
(0.0935235 0.000596182 0)
(0.093351 0.000610859 0)
(0.0931782 0.000625644 0)
(0.0930052 0.000640549 0)
(0.092832 0.000655596 0)
(0.0926588 0.000670822 0)
(0.0924856 0.000686277 0)
(0.0923126 0.000702023 0)
(0.0921397 0.000718134 0)
(0.0919671 0.000734702 0)
(0.0917948 0.000751843 0)
(0.0916229 0.000769701 0)
(0.0914514 0.000788452 0)
(0.0912804 0.000808307 0)
(0.0911098 0.000829523 0)
(0.0909397 0.00085241 0)
(0.0907701 0.000877346 0)
(0.0906009 0.000904798 0)
(0.0904322 0.000935342 0)
(0.0902639 0.000969693 0)
(0.0900959 0.00100874 0)
(0.0899282 0.00105357 0)
(0.0897608 0.00110555 0)
(0.0895939 0.00116637 0)
(0.0894275 0.00123812 0)
(0.0892621 0.00132337 0)
(0.0890983 0.00142531 0)
(0.0889372 0.00154786 0)
(0.0887805 0.00169582 0)
(0.0886312 0.00187494 0)
(0.0884935 0.00209213 0)
(0.0883737 0.00235536 0)
(0.0882813 0.00267361 0)
(0.0882297 0.00305641 0)
(0.0882378 0.0035129 0)
(0.0883314 0.00405005 0)
(0.0885443 0.00466958 0)
(0.0889185 0.00536309 0)
(0.0895019 0.00610478 0)
(0.0903402 0.0068424 0)
(0.0914615 0.00748949 0)
(0.0928488 0.00792793 0)
(0.09999 0.000383934 0)
(0.0998587 0.000607099 0)
(0.0996157 0.000525929 0)
(0.0993717 0.000374233 0)
(0.0991661 0.000289195 0)
(0.0989914 0.000270511 0)
(0.0988337 0.000282029 0)
(0.0986832 0.000300348 0)
(0.0985353 0.000316992 0)
(0.098388 0.000330472 0)
(0.0982409 0.000341482 0)
(0.0980938 0.000350906 0)
(0.0979466 0.000359435 0)
(0.0977994 0.000367497 0)
(0.0976521 0.000375376 0)
(0.0975047 0.000383267 0)
(0.097357 0.000391327 0)
(0.0972089 0.000399651 0)
(0.0970604 0.000408336 0)
(0.0969114 0.000417458 0)
(0.0967616 0.000427092 0)
(0.096611 0.000437294 0)
(0.0964596 0.00044811 0)
(0.0963071 0.000459578 0)
(0.0961536 0.000471705 0)
(0.0959991 0.000484479 0)
(0.0958433 0.000497867 0)
(0.0956864 0.00051183 0)
(0.0955284 0.000526316 0)
(0.0953692 0.000541262 0)
(0.0952089 0.000556606 0)
(0.0950476 0.000572289 0)
(0.0948853 0.000588256 0)
(0.094722 0.000604461 0)
(0.0945579 0.000620859 0)
(0.0943931 0.000637411 0)
(0.0942277 0.000654093 0)
(0.0940616 0.000670884 0)
(0.0938952 0.000687771 0)
(0.0937284 0.000704748 0)
(0.0935613 0.000721813 0)
(0.0933942 0.000738971 0)
(0.093227 0.000756232 0)
(0.0930599 0.000773615 0)
(0.0928931 0.000791154 0)
(0.0927265 0.000808897 0)
(0.0925604 0.000826905 0)
(0.0923948 0.000845252 0)
(0.0922299 0.00086403 0)
(0.0920658 0.000883353 0)
(0.0919025 0.000903367 0)
(0.0917402 0.000924247 0)
(0.0915789 0.000946205 0)
(0.0914189 0.0009695 0)
(0.0912602 0.00099444 0)
(0.091103 0.0010214 0)
(0.0909474 0.00105085 0)
(0.0907935 0.00108334 0)
(0.0906415 0.00111958 0)
(0.0904918 0.0011604 0)
(0.0903446 0.00120685 0)
(0.0902002 0.00126017 0)
(0.0900594 0.00132191 0)
(0.0899228 0.00139388 0)
(0.0897916 0.00147831 0)
(0.0896673 0.00157781 0)
(0.0895519 0.00169547 0)
(0.0894485 0.00183487 0)
(0.0893609 0.00200004 0)
(0.0892948 0.0021954 0)
(0.0892575 0.00242555 0)
(0.0892589 0.00269485 0)
(0.0893119 0.0030068 0)
(0.0894329 0.00336301 0)
(0.0896422 0.00376168 0)
(0.0899637 0.00419554 0)
(0.0904236 0.00464934 0)
(0.0910477 0.005097 0)
(0.0918552 0.0054995 0)
(0.09285 0.00580515 0)
(0.0940094 0.00595576 0)
(0.1 0.000400312 0)
(0.099907 0.000663733 0)
(0.0996966 0.000601456 0)
(0.0994624 0.000448227 0)
(0.0992544 0.00035455 0)
(0.0990749 0.000328848 0)
(0.098914 0.000336794 0)
(0.098763 0.000353997 0)
(0.0986164 0.0003708 0)
(0.098472 0.000385007 0)
(0.0983284 0.000396975 0)
(0.0981853 0.000407463 0)
(0.0980425 0.000417114 0)
(0.0978998 0.000426355 0)
(0.097757 0.000435474 0)
(0.0976141 0.000444676 0)
(0.0974709 0.000454125 0)
(0.0973272 0.00046392 0)
(0.0971831 0.000474164 0)
(0.0970382 0.000484935 0)
(0.0968926 0.000496308 0)
(0.0967462 0.000508338 0)
(0.0965987 0.000521068 0)
(0.0964503 0.000534531 0)
(0.0963007 0.000548731 0)
(0.0961501 0.000563647 0)
(0.0959984 0.000579241 0)
(0.0958455 0.000595463 0)
(0.0956916 0.000612254 0)
(0.0955366 0.000629543 0)
(0.0953806 0.000647261 0)
(0.0952237 0.000665343 0)
(0.095066 0.000683725 0)
(0.0949074 0.000702352 0)
(0.0947482 0.000721175 0)
(0.0945885 0.000740154 0)
(0.0944282 0.000759255 0)
(0.0942676 0.00077845 0)
(0.0941067 0.000797722 0)
(0.0939457 0.000817058 0)
(0.0937847 0.000836454 0)
(0.0936238 0.000855908 0)
(0.0934632 0.000875425 0)
(0.0933029 0.00089502 0)
(0.0931431 0.000914718 0)
(0.0929839 0.00093456 0)
(0.0928255 0.0009546 0)
(0.0926681 0.000974905 0)
(0.0925117 0.000995557 0)
(0.0923566 0.00101666 0)
(0.0922029 0.00103835 0)
(0.0920508 0.00106079 0)
(0.0919005 0.00108418 0)
(0.0917523 0.00110874 0)
(0.0916063 0.00113478 0)
(0.0914627 0.00116263 0)
(0.091322 0.0011927 0)
(0.0911845 0.00122551 0)
(0.0910506 0.00126168 0)
(0.0909207 0.00130193 0)
(0.0907955 0.00134716 0)
(0.0906758 0.0013984 0)
(0.0905626 0.0014569 0)
(0.0904572 0.00152409 0)
(0.0903611 0.00160161 0)
(0.0902765 0.00169135 0)
(0.0902061 0.00179536 0)
(0.0901534 0.00191585 0)
(0.0901228 0.00205502 0)
(0.0901202 0.00221495 0)
(0.0901527 0.00239725 0)
(0.090229 0.00260264 0)
(0.0903598 0.00283038 0)
(0.0905575 0.00307744 0)
(0.090836 0.00333761 0)
(0.0912101 0.00360047 0)
(0.0916938 0.00385053 0)
(0.0922981 0.0040669 0)
(0.0930278 0.00422403 0)
(0.093877 0.00429408 0)
(0.0948256 0.00425166 0)
(0.100006 0.000409677 0)
(0.0999425 0.000712833 0)
(0.0997622 0.000674989 0)
(0.0995416 0.000525163 0)
(0.0993361 0.000424957 0)
(0.0991555 0.000392214 0)
(0.0989936 0.000395809 0)
(0.098843 0.000411106 0)
(0.0986984 0.000427484 0)
(0.0985569 0.000442048 0)
(0.0984171 0.000454762 0)
(0.0982782 0.000466202 0)
(0.0981397 0.00047693 0)
(0.0980016 0.000487349 0)
(0.0978634 0.000497743 0)
(0.0977251 0.000508314 0)
(0.0975865 0.000519227 0)
(0.0974474 0.000530585 0)
(0.0973077 0.000542489 0)
(0.0971673 0.000555018 0)
(0.097026 0.000568243 0)
(0.0968838 0.000582217 0)
(0.0967406 0.000596974 0)
(0.0965964 0.000612539 0)
(0.0964511 0.000628909 0)
(0.0963047 0.000646059 0)
(0.0961572 0.000663939 0)
(0.0960087 0.00068249 0)
(0.0958593 0.000701643 0)
(0.0957088 0.000721321 0)
(0.0955576 0.000741451 0)
(0.0954055 0.000761957 0)
(0.0952527 0.000782771 0)
(0.0950994 0.000803828 0)
(0.0949455 0.000825076 0)
(0.0947912 0.000846467 0)
(0.0946367 0.000867959 0)
(0.094482 0.000889516 0)
(0.0943272 0.000911111 0)
(0.0941726 0.000932726 0)
(0.0940181 0.000954347 0)
(0.0938641 0.000975968 0)
(0.0937105 0.000997584 0)
(0.0935576 0.0010192 0)
(0.0934055 0.00104082 0)
(0.0932545 0.00106249 0)
(0.0931046 0.00108424 0)
(0.092956 0.00110612 0)
(0.0928091 0.00112819 0)
(0.0926639 0.00115054 0)
(0.0925207 0.00117329 0)
(0.0923799 0.00119655 0)
(0.0922415 0.0012205 0)
(0.0921061 0.00124532 0)
(0.0919738 0.00127126 0)
(0.0918452 0.0012986 0)
(0.0917206 0.00132766 0)
(0.0916006 0.00135886 0)
(0.0914858 0.00139266 0)
(0.0913769 0.00142965 0)
(0.0912748 0.00147047 0)
(0.0911806 0.00151587 0)
(0.0910956 0.00156669 0)
(0.0910212 0.00162389 0)
(0.0909596 0.00168845 0)
(0.0909131 0.00176143 0)
(0.0908846 0.00184382 0)
(0.0908777 0.0019365 0)
(0.0908967 0.00204009 0)
(0.0909468 0.00215473 0)
(0.0910341 0.0022798 0)
(0.0911655 0.00241362 0)
(0.0913488 0.00255298 0)
(0.0915924 0.00269274 0)
(0.0919047 0.00282535 0)
(0.0922935 0.00294062 0)
(0.0927647 0.00302581 0)
(0.0933214 0.00306634 0)
(0.0939615 0.00304731 0)
(0.0946769 0.00295586 0)
(0.0954514 0.00278404 0)
(0.10001 0.00041371 0)
(0.0999671 0.000755187 0)
(0.0998136 0.000745837 0)
(0.0996091 0.000603689 0)
(0.0994101 0.000499233 0)
(0.0992317 0.000459903 0)
(0.0990708 0.000458746 0)
(0.0989217 0.000471551 0)
(0.0987796 0.00048701 0)
(0.0986414 0.000501589 0)
(0.0985055 0.000514839 0)
(0.0983708 0.000527114 0)
(0.0982368 0.000538867 0)
(0.0981032 0.000550462 0)
(0.0979697 0.000562162 0)
(0.0978361 0.000574156 0)
(0.0977021 0.000586606 0)
(0.0975676 0.000599617 0)
(0.0974324 0.000613281 0)
(0.0972965 0.000627671 0)
(0.0971597 0.000642856 0)
(0.097022 0.000658882 0)
(0.0968832 0.000675771 0)
(0.0967434 0.000693535 0)
(0.0966026 0.000712163 0)
(0.0964607 0.000731624 0)
(0.0963178 0.00075186 0)
(0.096174 0.000772797 0)
(0.0960293 0.000794356 0)
(0.0958838 0.000816456 0)
(0.0957376 0.000839015 0)
(0.0955908 0.000861951 0)
(0.0954434 0.000885187 0)
(0.0952956 0.000908652 0)
(0.0951475 0.000932286 0)
(0.0949992 0.000956033 0)
(0.0948508 0.000979842 0)
(0.0947024 0.00100367 0)
(0.0945543 0.00102747 0)
(0.0944064 0.00105122 0)
(0.0942591 0.00107491 0)
(0.0941124 0.0010985 0)
(0.0939666 0.00112198 0)
(0.0938217 0.00114534 0)
(0.093678 0.00116858 0)
(0.0935357 0.0011917 0)
(0.093395 0.00121472 0)
(0.0932561 0.00123767 0)
(0.0931194 0.00126059 0)
(0.0929849 0.00128352 0)
(0.0928532 0.00130655 0)
(0.0927244 0.00132974 0)
(0.0925989 0.00135322 0)
(0.0924772 0.0013771 0)
(0.0923596 0.00140155 0)
(0.0922467 0.00142676 0)
(0.0921392 0.00145293 0)
(0.0920375 0.00148033 0)
(0.0919425 0.00150926 0)
(0.0918552 0.00154006 0)
(0.0917765 0.00157309 0)
(0.0917077 0.00160877 0)
(0.0916502 0.0016475 0)
(0.0916058 0.00168969 0)
(0.0915766 0.00173569 0)
(0.0915648 0.00178575 0)
(0.0915734 0.00183993 0)
(0.0916055 0.00189802 0)
(0.091665 0.00195938 0)
(0.091756 0.00202281 0)
(0.0918831 0.00208631 0)
(0.0920513 0.0021469 0)
(0.0922658 0.00220039 0)
(0.0925314 0.00224116 0)
(0.0928525 0.00226212 0)
(0.0932323 0.00225483 0)
(0.0936723 0.00221003 0)
(0.0941716 0.00211861 0)
(0.0947259 0.00197313 0)
(0.0953275 0.00176967 0)
(0.0959645 0.00150941 0)
(0.100011 0.000413988 0)
(0.099983 0.00079173 0)
(0.0998527 0.00081355 0)
(0.0996655 0.000682582 0)
(0.099476 0.000576178 0)
(0.0993023 0.000531117 0)
(0.0991444 0.000525167 0)
(0.0989981 0.000535116 0)
(0.098859 0.000549281 0)
(0.0987244 0.000563589 0)
(0.0985925 0.00057718 0)
(0.0984621 0.000590174 0)
(0.0983327 0.000602903 0)
(0.0982037 0.000615671 0)
(0.0980748 0.000628705 0)
(0.0979458 0.000642176 0)
(0.0978165 0.000656234 0)
(0.0976866 0.000670985 0)
(0.097556 0.000686502 0)
(0.0974247 0.000702851 0)
(0.0972925 0.000720093 0)
(0.0971593 0.000738268 0)
(0.0970251 0.000757381 0)
(0.09689 0.000777426 0)
(0.0967538 0.000798384 0)
(0.0966167 0.000820214 0)
(0.0964787 0.000842848 0)
(0.0963399 0.000866201 0)
(0.0962003 0.000890185 0)
(0.0960601 0.000914712 0)
(0.0959193 0.000939691 0)
(0.095778 0.00096503 0)
(0.0956364 0.000990643 0)
(0.0954945 0.00101645 0)
(0.0953526 0.00104239 0)
(0.0952106 0.0010684 0)
(0.0950688 0.0010944 0)
(0.0949273 0.00112035 0)
(0.0947862 0.0011462 0)
(0.0946457 0.00117191 0)
(0.094506 0.00119743 0)
(0.0943673 0.00122273 0)
(0.0942297 0.00124779 0)
(0.0940934 0.00127255 0)
(0.0939587 0.001297 0)
(0.0938258 0.00132112 0)
(0.093695 0.00134489 0)
(0.0935665 0.00136831 0)
(0.0934406 0.00139138 0)
(0.0933176 0.00141409 0)
(0.093198 0.00143648 0)
(0.093082 0.00145855 0)
(0.0929701 0.00148034 0)
(0.0928628 0.0015019 0)
(0.0927606 0.00152328 0)
(0.0926641 0.00154455 0)
(0.092574 0.00156577 0)
(0.092491 0.00158703 0)
(0.0924161 0.00160842 0)
(0.0923501 0.00163002 0)
(0.0922944 0.00165191 0)
(0.09225 0.00167412 0)
(0.0922186 0.00169664 0)
(0.0922018 0.00171936 0)
(0.0922016 0.00174207 0)
(0.0922202 0.00176433 0)
(0.0922599 0.00178547 0)
(0.0923234 0.0018045 0)
(0.0924138 0.00181995 0)
(0.092534 0.00182985 0)
(0.0926874 0.00183154 0)
(0.0928769 0.00182162 0)
(0.0931056 0.00179581 0)
(0.093376 0.00174902 0)
(0.0936896 0.00167537 0)
(0.0940472 0.00156855 0)
(0.0944479 0.0014224 0)
(0.0948894 0.00123189 0)
(0.0953671 0.000994458 0)
(0.0958746 0.000711304 0)
(0.0964034 0.000388437 0)
(0.100011 0.000411862 0)
(0.0999925 0.000823472 0)
(0.0998817 0.000877943 0)
(0.0997119 0.000760872 0)
(0.0995337 0.000654744 0)
(0.099367 0.000605082 0)
(0.0992138 0.000594593 0)
(0.0990711 0.000601546 0)
(0.0989358 0.00061418 0)
(0.0988051 0.000627998 0)
(0.0986774 0.000641765 0)
(0.0985514 0.000655379 0)
(0.0984264 0.000669046 0)
(0.098302 0.000682987 0)
(0.0981778 0.000697385 0)
(0.0980535 0.000712386 0)
(0.0979288 0.000728123 0)
(0.0978035 0.000744689 0)
(0.0976776 0.000762144 0)
(0.0975509 0.000780539 0)
(0.0974234 0.000799921 0)
(0.0972949 0.000820317 0)
(0.0971655 0.000841719 0)
(0.0970352 0.000864104 0)
(0.096904 0.000887437 0)
(0.0967719 0.000911664 0)
(0.096639 0.000936707 0)
(0.0965055 0.000962472 0)
(0.0963713 0.000988863 0)
(0.0962367 0.00101578 0)
(0.0961016 0.00104313 0)
(0.0959663 0.00107081 0)
(0.0958308 0.00109873 0)
(0.0956953 0.0011268 0)
(0.0955599 0.00115493 0)
(0.0954247 0.00118306 0)
(0.0952899 0.00121112 0)
(0.0951556 0.00123902 0)
(0.0950221 0.00126671 0)
(0.0948894 0.00129413 0)
(0.0947578 0.00132121 0)
(0.0946275 0.0013479 0)
(0.0944987 0.00137414 0)
(0.0943716 0.00139987 0)
(0.0942464 0.00142503 0)
(0.0941235 0.00144958 0)
(0.0940031 0.00147345 0)
(0.0938856 0.0014966 0)
(0.0937711 0.00151898 0)
(0.0936602 0.00154053 0)
(0.0935532 0.00156121 0)
(0.0934506 0.00158096 0)
(0.0933528 0.00159972 0)
(0.0932603 0.00161743 0)
(0.0931738 0.00163402 0)
(0.0930939 0.00164942 0)
(0.0930214 0.00166354 0)
(0.092957 0.00167627 0)
(0.0929017 0.00168748 0)
(0.0928565 0.00169699 0)
(0.0928224 0.00170458 0)
(0.0928008 0.00170996 0)
(0.0927931 0.00171273 0)
(0.0928007 0.00171237 0)
(0.0928254 0.00170818 0)
(0.0928689 0.00169925 0)
(0.0929332 0.00168442 0)
(0.0930204 0.00166218 0)
(0.0931325 0.00163068 0)
(0.0932716 0.0015876 0)
(0.0934396 0.00153017 0)
(0.0936383 0.0014551 0)
(0.093869 0.0013586 0)
(0.0941325 0.00123645 0)
(0.094429 0.00108418 0)
(0.0947579 0.000897371 0)
(0.0951173 0.000672296 0)
(0.0955045 0.000406743 0)
(0.0959155 0.000101429 0)
(0.0963451 -0.000239163 0)
(0.0967874 -0.000606388 0)
(0.10001 0.000408433 0)
(0.0999974 0.000851459 0)
(0.0999027 0.000939065 0)
(0.0997496 0.000837904 0)
(0.0995839 0.000734088 0)
(0.0994256 0.000681072 0)
(0.0992783 0.00066654 0)
(0.0991404 0.000670573 0)
(0.0990094 0.000681576 0)
(0.098883 0.000694754 0)
(0.0987596 0.000708579 0)
(0.0986381 0.000722748 0)
(0.0985177 0.000737323 0)
(0.0983979 0.000752438 0)
(0.0982783 0.000768228 0)
(0.0981586 0.000784811 0)
(0.0980386 0.000802286 0)
(0.0979181 0.000820729 0)
(0.0977969 0.000840185 0)
(0.0976749 0.00086069 0)
(0.0975522 0.00088227 0)
(0.0974285 0.000904933 0)
(0.0973041 0.00092866 0)
(0.0971787 0.000953413 0)
(0.0970527 0.00097914 0)
(0.0969258 0.00100577 0)
(0.0967984 0.00103321 0)
(0.0966704 0.00106136 0)
(0.096542 0.00109011 0)
(0.0964132 0.00111937 0)
(0.0962843 0.00114901 0)
(0.0961552 0.00117893 0)
(0.0960262 0.00120904 0)
(0.0958974 0.00123923 0)
(0.0957689 0.00126941 0)
(0.0956408 0.00129948 0)
(0.0955134 0.00132937 0)
(0.0953868 0.00135898 0)
(0.0952612 0.00138822 0)
(0.0951368 0.00141702 0)
(0.0950138 0.00144529 0)
(0.0948924 0.00147294 0)
(0.0947728 0.0014999 0)
(0.0946553 0.00152607 0)
(0.0945402 0.00155135 0)
(0.0944278 0.00157566 0)
(0.0943183 0.00159889 0)
(0.0942121 0.00162094 0)
(0.0941096 0.0016417 0)
(0.0940112 0.00166104 0)
(0.0939172 0.00167883 0)
(0.0938283 0.00169493 0)
(0.0937448 0.00170919 0)
(0.0936673 0.00172143 0)
(0.0935965 0.00173145 0)
(0.0935331 0.00173902 0)
(0.0934778 0.00174391 0)
(0.0934313 0.0017458 0)
(0.0933946 0.00174435 0)
(0.0933686 0.00173915 0)
(0.0933545 0.00172972 0)
(0.0933532 0.00171548 0)
(0.0933661 0.00169573 0)
(0.0933943 0.00166963 0)
(0.0934392 0.00163618 0)
(0.0935023 0.00159416 0)
(0.0935849 0.00154214 0)
(0.0936884 0.00147841 0)
(0.0938142 0.00140099 0)
(0.0939633 0.00130759 0)
(0.0941369 0.00119562 0)
(0.0943356 0.0010622 0)
(0.0945598 0.000904203 0)
(0.0948094 0.000718364 0)
(0.0950836 0.000501456 0)
(0.0953813 0.000250625 0)
(0.0957004 -3.58529e-05 0)
(0.0960381 -0.00035805 0)
(0.0963915 -0.000713665 0)
(0.0967567 -0.00109689 0)
(0.0971297 -0.00149801 0)
(0.100008 0.00040456 0)
(0.0999991 0.00087664 0)
(0.0999174 0.000997071 0)
(0.0997799 0.000913226 0)
(0.0996271 0.000813455 0)
(0.0994783 0.000758344 0)
(0.099338 0.000740455 0)
(0.0992056 0.000741828 0)
(0.0990795 0.000751219 0)
(0.0989578 0.00076369 0)
(0.0988389 0.000777517 0)
(0.098722 0.000792202 0)
(0.0986063 0.000807664 0)
(0.0984911 0.000823956 0)
(0.0983762 0.000841163 0)
(0.0982612 0.000859362 0)
(0.0981459 0.000878616 0)
(0.0980301 0.000898974 0)