/*--------------------------------*- C++ -*----------------------------------*\
  =========                 |
  \\      /  F ield         | OpenFOAM: The Open Source CFD Toolbox
   \\    /   O peration     | Website:  https://openfoam.org
    \\  /    A nd           | Version:  7
     \\/     M anipulation  |
\*---------------------------------------------------------------------------*/
FoamFile
{
    version     2.0;
    format      ascii;
    class       volVectorField;
    location    "0.2";
    object      cellDisplacement;
}
// * * * * * * * * * * * * * * * * * * * * * * * * * * * * * * * * * * * * * //

dimensions      [0 1 0 0 0 0 0];

internalField   nonuniform List<vector> 
2790
(
(0.00119664 0 3.15836e-07)
(0.00344769 0 9.21881e-07)
(0.00543533 0 1.4908e-06)
(0.00718388 0 2.04654e-06)
(0.00871558 0 2.61281e-06)
(0.0100502 0 3.21504e-06)
(0.011205 0 3.88247e-06)
(0.0121954 0 4.65038e-06)
(0.0130344 0 5.56272e-06)
(0.0137334 0 6.6753e-06)
(0.0143017 0 8.05996e-06)
(0.0147469 0 9.80978e-06)
(0.0150748 0 1.2046e-05)
(0.0152894 0 1.49266e-05)
(0.0153927 0 1.86578e-05)
(0.0153847 0 2.35076e-05)
(0.0152635 0 2.98238e-05)
(0.0150248 0 3.80553e-05)
(0.014662 0 4.87769e-05)
(0.0141661 0 6.27196e-05)
(0.0135262 0 8.08022e-05)
(0.01273 0 0.000104166)
(0.011765 0 0.000134203)
(0.0106211 0 0.000172577)
(0.00929481 0 0.00022121)
(0.0077964 0 0.000282187)
(0.00616195 0 0.000357453)
(0.00447501 0 0.000447849)
(0.00291035 0 0.000549811)
(0.00185612 0 0.000643128)
(0.0011968 0 9.45113e-07)
(0.00344825 0 2.75832e-06)
(0.00543643 0 4.45957e-06)
(0.0071857 0 6.12008e-06)
(0.00871834 0 7.81016e-06)
(0.0100541 0 9.60508e-06)
(0.0112106 0 1.15913e-05)
(0.012203 0 1.38727e-05)
(0.0130446 0 1.65786e-05)
(0.0137468 0 1.98729e-05)
(0.0143193 0 2.39661e-05)
(0.0147697 0 2.91303e-05)
(0.0151042 0 3.57192e-05)
(0.0153272 0 4.41931e-05)
(0.0154413 0 5.51505e-05)
(0.0154471 0 6.93686e-05)
(0.0153438 0 8.78525e-05)
(0.015128 0 0.000111895)
(0.0147949 0 0.000143145)
(0.0143375 0 0.000183693)
(0.0137475 0 0.000236144)
(0.0130155 0 0.000303709)
(0.0121331 0 0.000390252)
(0.0110949 0 0.000500289)
(0.00990328 0 0.000638832)
(0.00857529 0 0.000810883)
(0.00715526 0 0.00102007)
(0.0057356 0 0.00126498)
(0.00449307 0 0.00152897)
(0.00376084 0 0.00175003)
(0.00119721 0 1.56631e-06)
(0.00344959 0 4.57026e-06)
(0.00543892 0 7.38605e-06)
(0.00718967 0 1.01301e-05)
(0.00872422 0 1.2917e-05)
(0.0100625 0 1.58689e-05)
(0.0112221 0 1.91252e-05)
(0.0122184 0 2.28533e-05)
(0.0130651 0 2.72601e-05)
(0.0137737 0 3.26071e-05)
(0.0143541 0 3.92284e-05)
(0.0148147 0 4.75546e-05)
(0.0151621 0 5.81428e-05)
(0.0154015 0 7.17143e-05)
(0.0155364 0 8.92032e-05)
(0.0155691 0 0.000111816)
(0.0155 0 0.000141104)
(0.0153285 0 0.000179048)
(0.0150524 0 0.000228161)
(0.0146685 0 0.000291585)
(0.0141731 0 0.0003732)
(0.0135628 0 0.000477689)
(0.0128359 0 0.000610542)
(0.0119954 0 0.000777887)
(0.0110522 0 0.000985982)
(0.0100327 0 0.00123997)
(0.0089873 0 0.00154101)
(0.00800483 0 0.00187997)
(0.00722767 0 0.00222316)
(0.00686981 0 0.00248125)
(0.00119783 0 2.1732e-06)
(0.00345158 0 6.33918e-06)
(0.00544261 0 1.02389e-05)
(0.00719554 0 1.40306e-05)
(0.00873288 0 1.78692e-05)
(0.0100747 0 2.19187e-05)
(0.0112389 0 2.63654e-05)
(0.012241 0 3.14311e-05)
(0.013095 0 3.73885e-05)
(0.0138129 0 4.45794e-05)
(0.014405 0 5.34385e-05)
(0.0148802 0 6.45218e-05)
(0.0152461 0 7.85438e-05)
(0.015509 0 9.64235e-05)
(0.0156737 0 0.000119342)
(0.0157443 0 0.00014881)
(0.0157237 0 0.000186757)
(0.0156143 0 0.000235617)
(0.0154177 0 0.000298439)
(0.0151357 0 0.000378982)
(0.0147707 0 0.000481787)
(0.0143265 0 0.000612183)
(0.0138101 0 0.000776149)
(0.0132336 0 0.000979891)
(0.0126173 0 0.00122887)
(0.0119936 0 0.00152581)
(0.0114116 0 0.00186679)
(0.0109399 0 0.0022339)
(0.0106619 0 0.00258216)
(0.0106573 0 0.00281855)
(0.00119864 0 2.76013e-06)
(0.00345418 0 8.04816e-06)
(0.0054474 0 1.29895e-05)
(0.00720311 0 1.77795e-05)
(0.00874404 0 2.26081e-05)
(0.0100905 0 2.7675e-05)
(0.0112605 0 3.32048e-05)
(0.0122701 0 3.94621e-05)
(0.0131335 0 4.67697e-05)
(0.0138631 0 5.55285e-05)
(0.0144699 0 6.62431e-05)
(0.0149637 0 7.95536e-05)
(0.0153529 0 9.6274e-05)
(0.015645 0 0.000117441)
(0.0158467 0 0.000144372)
(0.015964 0 0.000178733)
(0.0160027 0 0.00022262)
(0.0159684 0 0.000278642)
(0.0158674 0 0.000350006)
(0.0157066 0 0.000440575)
(0.015495 0 0.000554884)
(0.0152442 0 0.000698037)
(0.0149696 0 0.000875395)
(0.0146917 0 0.0010919)
(0.0144375 0 0.00135075)
(0.0142409 0 0.00165101)
(0.0141409 0 0.00198359)
(0.0141742 0 0.00232496)
(0.0143546 0 0.00262838)
(0.0146367 0 0.00281451)
(0.00119962 0 3.32184e-06)
(0.0034573 0 9.68157e-06)
(0.00545312 0 1.56115e-05)
(0.00721215 0 2.13384e-05)
(0.00875735 0 2.70812e-05)
(0.0101093 0 3.30675e-05)
(0.0112863 0 3.95502e-05)
(0.0123047 0 4.68239e-05)
(0.0131792 0 5.52431e-05)
(0.0139226 0 6.52429e-05)
(0.0145468 0 7.73643e-05)
(0.0150621 0 9.22843e-05)
(0.0154782 0 0.000110853)
(0.0158039 0 0.000134137)
(0.0160475 0 0.000163471)
(0.0162175 0 0.000200516)
(0.0163221 0 0.000247318)
(0.0163706 0 0.000306373)
(0.0163733 0 0.000380668)
(0.0163426 0 0.000473684)
(0.0162932 0 0.000589339)
(0.0162437 0 0.000731768)
(0.0162162 0 0.000904884)
(0.0162376 0 0.00111154)
(0.0163378 0 0.00135207)
(0.0165471 0 0.00162206)
(0.0168886 0 0.00190906)
(0.017362 0 0.00218857)
(0.0179152 0 0.00242047)
(0.0184013 0 0.00254837)
(0.00120074 0 3.85369e-06)
(0.00346082 0 1.12256e-05)
(0.00545957 0 1.80818e-05)
(0.00722232 0 2.46743e-05)
(0.00877234 0 3.1244e-05)
(0.0101305 0 3.80383e-05)
(0.0113153 0 4.53276e-05)
(0.0123437 0 5.34223e-05)
(0.0132305 0 6.26895e-05)
(0.0139894 0 7.3573e-05)
(0.0146327 0 8.66151e-05)
(0.0151717 0 0.000102483)
(0.0156171 0 0.000121999)
(0.0159789 0 0.000146175)
(0.0162673 0 0.000176248)
(0.0164925 0 0.000213721)
(0.0166655 0 0.000260397)
(0.0167985 0 0.0003184)
(0.0169055 0 0.000390174)
(0.0170029 0 0.000478428)
(0.0171103 0 0.000585998)
(0.017251 0 0.000715567)
(0.0174517 0 0.000869153)
(0.0177421 0 0.00104728)
(0.0181515 0 0.00124768)
(0.0187029 0 0.00146356)
(0.0194009 0 0.00168155)
(0.0202115 0 0.00188015)
(0.0210299 0 0.00203051)
(0.0216401 0 0.00210154)
(0.00120194 0 4.35181e-06)
(0.00346461 0 1.26689e-05)
(0.00546648 0 2.03817e-05)
(0.00723325 0 2.77609e-05)
(0.00878847 0 3.50624e-05)
(0.0101533 0 4.25445e-05)
(0.0113467 0 5.04847e-05)
(0.0123858 0 5.91949e-05)
(0.0132859 0 6.90367e-05)
(0.0140613 0 8.04376e-05)
(0.0147248 0 9.39089e-05)
(0.0152886 0 0.000110065)
(0.0157643 0 0.000129642)
(0.0161632 0 0.000153523)
(0.0164967 0 0.000182751)
(0.0167769 0 0.000218549)
(0.0170166 0 0.000262315)
(0.0172303 0 0.000315613)
(0.0174347 0 0.000380117)
(0.0176488 0 0.000457506)
(0.0178951 0 0.000549283)
(0.018199 0 0.000656472)
(0.0185889 0 0.000779146)
(0.0190939 0 0.000915763)
(0.0197393 0 0.00106226)
(0.0205391 0 0.00121105)
(0.021481 0 0.00135017)
(0.022505 0 0.00146362)
(0.0234728 0 0.00153463)
(0.0241341 0 0.00155456)
(0.00120316 0 4.81315e-06)
(0.00346846 0 1.40025e-05)
(0.00547355 0 2.2497e-05)
(0.00724448 0 3.05792e-05)
(0.00880514 0 3.85129e-05)
(0.010177 0 4.65592e-05)
(0.0113793 0 5.49926e-05)
(0.0124295 0 6.41134e-05)
(0.0133434 0 7.4261e-05)
(0.0141357 0 8.58254e-05)
(0.0148198 0 9.92588e-05)
(0.0154086 0 0.000115086)
(0.0159145 0 0.000133915)
(0.0163497 0 0.00015644)
(0.0167267 0 0.000183441)
(0.0170587 0 0.000215772)
(0.0173599 0 0.000254334)
(0.0176461 0 0.000300017)
(0.0179352 0 0.000353612)
(0.0182473 0 0.000415675)
(0.0186052 0 0.000486325)
(0.0190342 0 0.00056498)
(0.0195609 0 0.000650018)
(0.0202107 0 0.000738399)
(0.0210031 0 0.000825307)
(0.0219426 0 0.000903959)
(0.0230046 0 0.000965872)
(0.0241142 0 0.00100219)
(0.0251189 0 0.00100749)
(0.0257649 0 0.000989247)
(0.00120434 0 5.23562e-06)
(0.0034722 0 1.52205e-05)
(0.00548043 0 2.44185e-05)
(0.00725551 0 3.31178e-05)
(0.00882166 0 4.15834e-05)
(0.0102006 0 5.0072e-05)
(0.0114119 0 5.88456e-05)
(0.0124734 0 6.81823e-05)
(0.0134012 0 7.83857e-05)
(0.0142103 0 8.97909e-05)
(0.0149148 0 0.00010277)
(0.0155279 0 0.000117734)
(0.0160627 0 0.00013513)
(0.016532 0 0.000155429)
(0.0169491 0 0.000179111)
(0.0173276 0 0.000206624)
(0.0176824 0 0.00023833)
(0.0180295 0 0.000274428)
(0.0183867 0 0.000314831)
(0.0187733 0 0.000359019)
(0.0192106 0 0.000405859)
(0.0197208 0 0.000453408)
(0.0203262 0 0.000498755)
(0.0210461 0 0.000537989)
(0.0218927 0 0.000566433)
(0.0228628 0 0.000579336)
(0.0239258 0 0.000573168)
(0.025005 0 0.000547595)
(0.0259545 0 0.000508258)
(0.0265413 0 0.000472136)
(0.0012054 0 5.61802e-06)
(0.00347557 0 1.63196e-05)
(0.00548676 0 2.6142e-05)
(0.00726584 0 3.53731e-05)
(0.00883734 0 4.42732e-05)
(0.0102233 0 5.3088e-05)
(0.0114435 0 6.20601e-05)
(0.0125161 0 7.14368e-05)
(0.0134574 0 8.14755e-05)
(0.0142828 0 9.24454e-05)
(0.0150067 0 0.000104626)
(0.0156428 0 0.000118299)
(0.0162043 0 0.000133737)
(0.0167045 0 0.000151179)
(0.0171568 0 0.000170796)
(0.0175751 0 0.000192636)
(0.0179739 0 0.000216553)
(0.0183685 0 0.000242108)
(0.0187754 0 0.000268444)
(0.0192116 0 0.000294141)
(0.0196951 0 0.000317073)
(0.020243 0 0.000334293)
(0.020871 0 0.000342045)
(0.0215908 0 0.000336028)
(0.0224064 0 0.000312132)
(0.023309 0 0.000267895)
(0.0242687 0 0.00020483)
(0.0252213 0 0.000131224)
(0.026049 0 6.37291e-05)
(0.0265591 0 2.48289e-05)
(0.00120625 0 5.96009e-06)
(0.00347835 0 1.72996e-05)
(0.00549214 0 2.76683e-05)
(0.0072749 0 3.73487e-05)
(0.00885148 0 4.65916e-05)
(0.0102441 0 5.56267e-05)
(0.0114729 0 6.46717e-05)
(0.012556 0 7.39375e-05)
(0.0135102 0 8.36295e-05)
(0.014351 0 9.39451e-05)
(0.015093 0 0.000105066)
(0.0157499 0 0.000117143)
(0.0163354 0 0.000130277)
(0.0168625 0 0.000144484)
(0.0173446 0 0.000159652)
(0.017795 0 0.000175473)
(0.0182275 0 0.00019137)
(0.0186559 0 0.000206389)
(0.0190943 0 0.000219085)
(0.0195567 0 0.0002274)
(0.020056 0 0.000228557)
(0.0206033 0 0.000219023)
(0.0212066 0 0.000194623)
(0.0218686 0 0.00015096)
(0.0225849 0 8.43581e-05)
(0.0233416 0 -6.3143e-06)
(0.0241131 0 -0.00011661)
(0.0248575 0 -0.000232451)
(0.0255042 0 -0.000327608)
(0.0259221 0 -0.000371497)
(0.00120681 0 6.26236e-06)
(0.00348028 0 1.81624e-05)
(0.00549617 0 2.90021e-05)
(0.00728217 0 3.90543e-05)
(0.00886337 0 4.85565e-05)
(0.0102622 0 5.77189e-05)
(0.011499 0 6.67311e-05)
(0.012592 0 7.57646e-05)
(0.0135581 0 8.49712e-05)
(0.014413 0 9.44761e-05)
(0.0151712 0 0.000104366)
(0.0158467 0 0.00011467)
(0.0164528 0 0.000125332)
(0.0170024 0 0.000136175)
(0.0175085 0 0.00014685)
(0.0179834 0 0.000156769)
(0.0184395 0 0.000165034)
(0.0188888 0 0.000170342)
(0.0193427 0 0.000170888)
(0.019811 0 0.00016428)
(0.0203017 0 0.000147481)
(0.0208195 0 0.00011682)
(0.0213641 0 6.815e-05)
(0.0219295 0 -2.76756e-06)
(0.0225023 0 -9.94765e-05)
(0.0230622 0 -0.000223348)
(0.023585 0 -0.000370866)
(0.0240485 0 -0.000528834)
(0.0244369 0 -0.000667607)
(0.0247149 0 -0.000740907)
(0.00120699 0 6.52601e-06)
(0.00348111 0 1.89121e-05)
(0.00549847 0 3.01516e-05)
(0.0072871 0 4.05047e-05)
(0.00887233 0 5.01927e-05)
(0.0102768 0 5.94042e-05)
(0.0115207 0 6.82997e-05)
(0.0126227 0 7.70112e-05)
(0.0135996 0 8.56386e-05)
(0.014467 0 9.42399e-05)
(0.0152395 0 0.000102816)
(0.0159308 0 0.000111291)
(0.0165541 0 0.000119479)
(0.0171219 0 0.00012705)
(0.0176461 0 0.000133481)
(0.0181382 0 0.000137998)
(0.0186089 0 0.000139509)
(0.0190682 0 0.000136542)
(0.0195242 0 0.000127172)
(0.0199833 0 0.000108986)
(0.0204485 0 7.90724e-05)
(0.0209186 0 3.40913e-05)
(0.0213867 0 -2.95679e-05)
(0.0218389 0 -0.000115497)
(0.0222539 0 -0.00022685)
(0.0226035 0 -0.000365771)
(0.0228574 0 -0.000532437)
(0.0229948 0 -0.000722323)
(0.0230286 0 -0.000916538)
(0.0230371 0 -0.0010552)
(0.00120669 0 6.75273e-06)
(0.00348058 0 1.95541e-05)
(0.00549863 0 3.11275e-05)
(0.00728918 0 4.17179e-05)
(0.00887772 0 5.15292e-05)
(0.0102869 0 6.07276e-05)
(0.0115373 0 6.94449e-05)
(0.0126471 0 7.77763e-05)
(0.0136334 0 8.57747e-05)
(0.0145117 0 9.34394e-05)
(0.0152963 0 0.000100701)
(0.0160008 0 0.000107398)
(0.0166379 0 0.00011325)
(0.0172193 0 0.000117824)
(0.0177564 0 0.000120491)
(0.0182592 0 0.000120383)
(0.0187369 0 0.000116351)
(0.0191973 0 0.000106918)
(0.0196459 0 9.02626e-05)
(0.0200857 0 6.42236e-05)
(0.0205161 0 2.63574e-05)
(0.0209314 0 -2.59337e-05)
(0.0213204 0 -9.51915e-05)
(0.0216647 0 -0.000183617)
(0.0219387 0 -0.000292772)
(0.02211 0 -0.000423525)
(0.0221421 0 -0.000576719)
(0.0220016 0 -0.000755405)
(0.0216808 0 -0.000965769)
(0.0212914 0 -0.00117693)
(0.00193224 0 -0.000595529)
(0.00317923 0 -0.000531719)
(0.0049796 0 -0.000443615)
(0.0069033 0 -0.000357531)
(0.0087319 0 -0.000281682)
(0.0103679 0 -0.000218068)
(0.0117778 0 -0.000166262)
(0.0129607 0 -0.000124911)
(0.0139307 0 -9.23967e-05)
(0.0147073 0 -6.71366e-05)
(0.0153106 0 -4.77122e-05)
(0.0157587 0 -3.29132e-05)
(0.0160667 0 -2.17395e-05)
(0.0162462 0 -1.33827e-05)
(0.0163058 0 -7.19988e-06)
(0.0162509 0 -2.68649e-06)
(0.0160842 0 5.49629e-07)
(0.0158062 0 2.81058e-06)
(0.0154147 0 4.32741e-06)
(0.0149061 0 5.27556e-06)
(0.0142745 0 5.78725e-06)
(0.0135123 0 5.96122e-06)
(0.0126102 0 5.87028e-06)
(0.0115571 0 5.5671e-06)
(0.0103403 0 5.08863e-06)
(0.00894501 0 4.45942e-06)
(0.00735465 0 3.69409e-06)
(0.00555068 0 2.79922e-06)
(0.00351253 0 1.77484e-06)
(0.00121709 0 6.15499e-07)
(0.00374238 0 -0.00164167)
(0.00476232 0 -0.00148108)
(0.00627898 0 -0.00124906)
(0.00793917 0 -0.00101462)
(0.00954388 0 -0.00080384)
(0.0109975 0 -0.000624816)
(0.0122624 0 -0.000477788)
(0.013332 0 -0.000359727)
(0.0142145 0 -0.000266478)
(0.0149239 0 -0.000193776)
(0.0154759 0 -0.00013771)
(0.015885 0 -9.48933e-05)
(0.0161633 0 -6.25016e-05)
(0.0163202 0 -3.82364e-05)
(0.0163626 0 -2.02609e-05)
(0.0162945 0 -7.12724e-06)
(0.0161177 0 2.29349e-06)
(0.0158318 0 8.87346e-06)
(0.0154344 0 1.32814e-05)
(0.014921 0 1.60261e-05)
(0.0142858 0 1.74918e-05)
(0.0135207 0 1.7966e-05)
(0.0126164 0 1.76607e-05)
(0.0115617 0 1.67295e-05)
(0.0103436 0 1.52801e-05)
(0.00894731 0 1.33839e-05)
(0.00735622 0 1.10831e-05)
(0.00555171 0 8.39644e-06)
(0.00351314 0 5.32305e-06)
(0.00121731 0 1.84584e-06)
(0.00676275 0 -0.00236316)
(0.00750656 0 -0.00216004)
(0.00859811 0 -0.00184847)
(0.00982325 0 -0.00151941)
(0.0110396 0 -0.00121477)
(0.012168 0 -0.000950804)
(0.01317 0 -0.000730905)
(0.0140317 0 -0.000552436)
(0.0147519 0 -0.000410298)
(0.0153361 0 -0.000298739)
(0.0157919 0 -0.000212231)
(0.0161274 0 -0.000145862)
(0.0163494 0 -9.54598e-05)
(0.0164633 0 -5.75828e-05)
(0.0164727 0 -2.9454e-05)
(0.0163793 0 -8.86704e-06)
(0.016183 0 5.91007e-06)
(0.0158821 0 1.62232e-05)
(0.015473 0 2.31092e-05)
(0.0149506 0 2.73609e-05)
(0.0143082 0 2.95787e-05)
(0.0135377 0 3.02135e-05)
(0.0126291 0 2.95986e-05)
(0.0115711 0 2.79756e-05)
(0.0103504 0 2.55139e-05)
(0.00895214 0 2.23253e-05)
(0.00735957 0 1.84749e-05)
(0.00555394 0 1.39902e-05)
(0.00351446 0 8.86696e-06)
(0.00121776 0 3.07432e-06)
(0.0104983 0 -0.00274181)
(0.0109393 0 -0.00252694)
(0.0115531 0 -0.00218983)
(0.0122664 0 -0.00182194)
(0.0130084 0 -0.00147191)
(0.0137282 0 -0.00116196)
(0.0143928 0 -0.000899276)
(0.0149831 0 -0.00068312)
(0.0154889 0 -0.000509018)
(0.0159055 0 -0.000371086)
(0.0162314 0 -0.000263283)
(0.0164665 0 -0.000180023)
(0.0166112 0 -0.000116435)
(0.0166656 0 -6.84274e-05)
(0.0166291 0 -3.2647e-05)
(0.0165003 0 -6.39774e-06)
(0.0162765 0 1.24579e-05)
(0.0159543 0 2.55957e-05)
(0.0155285 0 3.43167e-05)
(0.0149931 0 3.9622e-05)
(0.0143406 0 4.22747e-05)
(0.0135621 0 4.28498e-05)
(0.0126474 0 4.17742e-05)
(0.0115845 0 3.93578e-05)
(0.0103601 0 3.58176e-05)
(0.00895905 0 3.12954e-05)
(0.00736435 0 2.58725e-05)
(0.00555708 0 1.95793e-05)
(0.00351629 0 1.24045e-05)
(0.00121838 0 4.30005e-06)
(0.0144677 0 -0.00279942)
(0.0146063 0 -0.00259379)
(0.0147533 0 -0.00227116)
(0.0149552 0 -0.00191133)
(0.0152097 0 -0.00156083)
(0.0154985 0 -0.00124371)
(0.015799 0 -0.000969867)
(0.0160908 0 -0.000740885)
(0.0163566 0 -0.000553903)
(0.0165828 0 -0.000404012)
(0.0167591 0 -0.000285666)
(0.0168773 0 -0.000193461)
(0.0169308 0 -0.000122518)
(0.0169143 0 -6.86297e-05)
(0.0168226 0 -2.82796e-05)
(0.0166507 0 1.40717e-06)
(0.0163934 0 2.27422e-05)
(0.0160448 0 3.75602e-05)
(0.0155984 0 4.73006e-05)
(0.0150468 0 5.30815e-05)
(0.0143816 0 5.57619e-05)
(0.013593 0 5.59932e-05)
(0.0126704 0 5.42612e-05)
(0.0116014 0 5.09193e-05)
(0.0103723 0 4.62137e-05)
(0.00896767 0 4.03041e-05)
(0.00737025 0 3.32779e-05)
(0.00556093 0 2.51625e-05)
(0.00351852 0 1.59337e-05)
(0.00121913 0 5.52217e-06)
(0.0182539 0 -0.00257862)
(0.0181178 0 -0.00239884)
(0.017855 0 -0.00212009)
(0.0176026 0 -0.00180424)
(0.0174142 0 -0.00148976)
(0.0173014 0 -0.00119884)
(0.0172543 0 -0.000942389)
(0.0172546 0 -0.000723958)
(0.0172812 0 -0.00054265)
(0.0173142 0 -0.000395194)
(0.0173359 0 -0.000277285)
(0.0173313 0 -0.000184402)
(0.0172877 0 -0.000112264)
(0.0171945 0 -5.70475e-05)
(0.0170424 0 -1.54696e-05)
(0.0168228 0 1.52158e-05)
(0.0165279 0 3.72599e-05)
(0.0161495 0 5.24793e-05)
(0.0156796 0 6.23204e-05)
(0.0151093 0 6.79207e-05)
(0.0144293 0 7.01635e-05)
(0.0136291 0 6.97242e-05)
(0.0126972 0 6.71095e-05)
(0.0116211 0 6.26881e-05)
(0.0103864 0 5.6716e-05)
(0.00897754 0 4.93557e-05)
(0.00737694 0 4.06906e-05)
(0.00556524 0 3.07369e-05)
(0.00352098 0 1.94519e-05)
(0.00121994 0 6.73959e-06)
(0.0215265 0 -0.00213034)
(0.0211691 0 -0.00199297)
(0.0205868 0 -0.00178061)
(0.019976 0 -0.00153446)
(0.0194295 0 -0.00128257)
(0.0189826 0 -0.00104319)
(0.0186383 0 -0.000826864)
(0.0183823 0 -0.000638391)
(0.0181932 0 -0.000478731)
(0.0180476 0 -0.000346493)
(0.0179232 0 -0.00023903)
(0.0178001 0 -0.000153177)
(0.0176609 0 -8.57008e-05)
(0.0174909 0 -3.35618e-05)
(0.0172772 0 5.95904e-06)
(0.0170083 0 3.52118e-05)
(0.0166738 0 5.61771e-05)
(0.0162638 0 7.04912e-05)
(0.0157685 0 7.9484e-05)
(0.015178 0 8.42192e-05)
(0.0144818 0 8.55348e-05)
(0.0136687 0 8.40785e-05)
(0.0127267 0 8.03393e-05)
(0.0116426 0 7.46735e-05)
(0.0104017 0 6.73262e-05)
(0.00898814 0 5.84473e-05)
(0.00738402 0 4.81055e-05)
(0.00556972 0 3.62973e-05)
(0.00352349 0 2.29551e-05)
(0.00122077 0 7.95079e-06)
(0.0240521 0 -0.00151886)
(0.0235491 0 -0.00143855)
(0.02276 0 -0.00130718)
(0.0219094 0 -0.00114588)
(0.0211134 0 -0.000972652)
(0.020424 0 -0.000801167)
(0.0198551 0 -0.000640552)
(0.0193982 0 -0.000496093)
(0.0190337 0 -0.000370184)
(0.0187379 0 -0.000263222)
(0.0184867 0 -0.000174345)
(0.0182577 0 -0.000101972)
(0.0180309 0 -4.41883e-05)
(0.0177888 0 1.00155e-06)
(0.0175159 0 3.55176e-05)
(0.0171987 0 6.1114e-05)
(0.0168249 0 7.93368e-05)
(0.0163829 0 9.15109e-05)
(0.0158617 0 9.87459e-05)
(0.0152502 0 0.000101952)
(0.0145371 0 0.00010186)
(0.0137104 0 9.9044e-05)
(0.0127576 0 9.39394e-05)
(0.011665 0 8.68641e-05)
(0.0104175 0 7.80323e-05)
(0.00899891 0 6.75674e-05)
(0.00739107 0 5.5512e-05)
(0.00557407 0 4.1835e-05)
(0.00352586 0 2.64375e-05)
(0.00122153 0 9.1537e-06)
(0.025703 0 -0.000831261)
(0.0251461 0 -0.000809753)
(0.0242712 0 -0.000760185)
(0.0233066 0 -0.000686627)
(0.0223784 0 -0.000597659)
(0.0215488 0 -0.000501539)
(0.0208395 0 -0.000404928)
(0.0202479 0 -0.000312714)
(0.0197585 0 -0.000228167)
(0.0193497 0 -0.000153189)
(0.0189985 0 -8.86005e-05)
(0.0186825 0 -3.44291e-05)
(0.0183808 0 9.83542e-06)
(0.018075 0 4.50285e-05)
(0.0177485 0 7.21474e-05)
(0.0173865 0 9.2233e-05)
(0.0169753 0 0.000106292)
(0.0165024 0 0.000115249)
(0.0159557 0 0.000119917)
(0.0153233 0 0.000120994)
(0.0145931 0 0.000119055)
(0.0137526 0 0.000114561)
(0.0127887 0 0.000107866)
(0.0116873 0 9.92262e-05)
(0.010433 0 8.88078e-05)
(0.00900926 0 7.66945e-05)
(0.00739764 0 6.28932e-05)
(0.00557797 0 4.73375e-05)
(0.00352791 0 2.98912e-05)
(0.00122217 0 1.03456e-05)
(0.0264861 0 -0.000154317)
(0.0259537 0 -0.0001766)
(0.0250997 0 -0.000195843)
(0.0241375 0 -0.000202634)
(0.0231903 0 -0.000194948)
(0.0223218 0 -0.000174082)
(0.0215578 0 -0.000143081)
(0.0209007 0 -0.000105686)
(0.0203404 0 -6.55336e-05)
(0.0198597 0 -2.56781e-05)
(0.019439 0 1.16071e-05)
(0.019058 0 4.48301e-05)
(0.0186973 0 7.31693e-05)
(0.0183391 0 9.63219e-05)
(0.0179666 0 0.000114351)
(0.0175649 0 0.000127554)
(0.0171198 0 0.000136358)
(0.0166181 0 0.000141241)
(0.0160472 0 0.000142685)
(0.0153946 0 0.000141132)
(0.0146478 0 0.000136972)
(0.0137937 0 0.000130526)
(0.0128187 0 0.000122044)
(0.0117085 0 0.000111705)
(0.0104475 0 9.96114e-05)
(0.0090186 0 8.57975e-05)
(0.0074033 0 7.02257e-05)
(0.00558112 0 5.27882e-05)
(0.00352943 0 3.33059e-05)
(0.00122262 0 1.15229e-05)
(0.0265043 0 0.000465996)
(0.0260409 0 0.000417292)
(0.0252881 0 0.000343994)
(0.0244273 0 0.000267331)
(0.0235618 0 0.000201427)
(0.0227465 0 0.000152795)
(0.0220065 0 0.00012227)
(0.0213487 0 0.000107421)
(0.020769 0 0.000104475)
(0.0202565 0 0.000109529)
(0.0197968 0 0.000119167)
(0.0193739 0 0.000130703)
(0.0189713 0 0.000142189)
(0.0185729 0 0.00015233)
(0.0181634 0 0.000160344)
(0.0177283 0 0.000165835)
(0.0172537 0 0.000168671)
(0.0167263 0 0.000168892)
(0.0161333 0 0.000166633)
(0.0154619 0 0.000162075)
(0.0146992 0 0.000155406)
(0.013832 0 0.000146794)
(0.0128465 0 0.000136371)
(0.0117278 0 0.000124224)
(0.0104601 0 0.000110387)
(0.00902635 0 9.48349e-05)
(0.0074076 0 7.74793e-05)
(0.00558319 0 5.8166e-05)
(0.00353025 0 3.66692e-05)
(0.00122281 0 1.26815e-05)
(0.025867 0 0.00102322)
(0.0255019 0 0.000952398)
(0.0249189 0 0.000829602)
(0.0242453 0 0.000690627)
(0.0235465 0 0.000561042)
(0.0228604 0 0.000453188)
(0.0222092 0 0.000370208)
(0.0216045 0 0.000310262)
(0.0210491 0 0.000269369)
(0.0205399 0 0.000243044)
(0.0200689 0 0.000227116)
(0.0196255 0 0.000218079)
(0.0191973 0 0.000213182)
(0.0187714 0 0.000210374)
(0.0183342 0 0.000208208)
(0.0178725 0 0.000205709)
(0.0173733 0 0.000202262)
(0.0168238 0 0.000197512)
(0.0162112 0 0.000191275)
(0.0155228 0 0.000183479)
(0.0147457 0 0.000174113)
(0.0138663 0 0.000163188)
(0.0128708 0 0.000150717)
(0.0117441 0 0.000136691)
(0.0104703 0 0.000121066)
(0.00903192 0 0.000103756)
(0.00741009 0 8.46172e-05)
(0.00558387 0 6.34458e-05)
(0.00353016 0 3.99659e-05)
(0.00122269 0 1.38162e-05)
(0.0246632 0 0.00151844)
(0.024447 0 0.00140924)
(0.0241141 0 0.00122999)
(0.023704 0 0.00103539)
(0.0232353 0 0.000856165)
(0.0227305 0 0.000704586)
(0.0222119 0 0.000582981)
(0.0216974 0 0.000489015)
(0.0211981 0 0.000418474)
(0.0207188 0 0.000366689)
(0.0202587 0 0.000329239)
(0.019813 0 0.000302282)
(0.0193739 0 0.000282655)
(0.0189318 0 0.000267872)
(0.0184758 0 0.000256045)
(0.0179945 0 0.00024579)
(0.017476 0 0.000236125)
(0.0169082 0 0.000226374)
(0.016279 0 0.000216085)
(0.0155757 0 0.000204962)
(0.0147856 0 0.000192814)
(0.0138953 0 0.000179507)
(0.0128906 0 0.000164935)
(0.0117566 0 0.000148995)
(0.0104771 0 0.000131568)
(0.00903476 0 0.000112501)
(0.00741036 0 9.15969e-05)
(0.00558287 0 6.85983e-05)
(0.00352899 0 4.31788e-05)
(0.00122218 0 1.49212e-05)
(0.0229944 0 0.00190708)
(0.0230507 0 0.00173429)
(0.0230624 0 0.00149862)
(0.0229645 0 0.00126769)
(0.022751 0 0.00106313)
(0.0224447 0 0.000890046)
(0.022075 0 0.000747873)
(0.0216675 0 0.000633781)
(0.0212415 0 0.000543943)
(0.0208088 0 0.000474224)
(0.0203751 0 0.000420607)
(0.0199408 0 0.000379451)
(0.0195025 0 0.000347624)
(0.019054 0 0.000322538)
(0.0185872 0 0.000302124)
(0.0180926 0 0.000284779)
(0.0175598 0 0.00026929)
(0.0169777 0 0.000254758)
(0.0163348 0 0.000240531)
(0.015619 0 0.000226134)
(0.0148177 0 0.000211223)
(0.0139177 0 0.000195539)
(0.0129049 0 0.000178868)
(0.0117645 0 0.000161022)
(0.0104801 0 0.000141807)
(0.00903434 0 0.000121008)
(0.00740798 0 9.83722e-05)
(0.00557988 0 7.35919e-05)
(0.00352655 0 4.62889e-05)
(0.00122123 0 1.59903e-05)
(0.0212659 0 0.00205019)
(0.0217061 0 0.00181885)
(0.0220588 0 0.00157665)
(0.0222303 0 0.00136043)
(0.0222316 0 0.00116912)
(0.0220972 0 0.00100211)
(0.0218626 0 0.000859296)
(0.0215585 0 0.000739721)
(0.0212085 0 0.000641436)
(0.020829 0 0.000561805)
(0.0204299 0 0.000497898)
(0.0200157 0 0.000446796)
(0.0195866 0 0.000405799)
(0.0191394 0 0.000372532)
(0.0186685 0 0.000344994)
(0.0181662 0 0.000321547)
(0.0176236 0 0.000300889)
(0.017031 0 0.000282005)
(0.0163774 0 0.000264113)
(0.0156514 0 0.000246617)
(0.0148408 0 0.000229057)
(0.0139326 0 0.000211071)
(0.012913 0 0.000192358)
(0.011767 0 0.000172651)
(0.0104786 0 0.000151693)
(0.00903015 0 0.000129209)
(0.00740257 0 0.000104895)
(0.00557461 0 7.83937e-05)
(0.00352266 0 4.92769e-05)
(0.00121978 0 1.70168e-05)
(0.00120579 0 6.9484e-06)
(0.00347838 0 2.0106e-05)
(0.00549623 0 3.19589e-05)
(0.00728789 0 4.2735e-05)
(0.00887896 0 5.26197e-05)
(0.0102922 0 6.17575e-05)
(0.011548 0 7.02528e-05)
(0.0126647 0 7.81675e-05)
(0.0136591 0 8.55137e-05)
(0.0145467 0 9.22429e-05)
(0.0153415 0 9.82302e-05)
(0.0160566 0 0.000103254)
(0.0167043 0 0.000106974)
(0.0172958 0 0.000108899)
(0.0178411 0 0.000108362)
(0.0183494 0 0.000104491)
(0.0188281 0 9.61864e-05)
(0.0192831 0 8.21173e-05)
(0.0197178 0 6.0737e-05)
(0.0201327 0 3.03445e-05)
(0.0205245 0 -1.07949e-05)
(0.0208854 0 -6.42446e-05)
(0.0212024 0 -0.000131095)
(0.0214568 0 -0.000211524)
(0.0216244 0 -0.000304115)
(0.0216775 0 -0.000404829)
(0.0215874 0 -0.000504721)
(0.0213315 0 -0.000584302)
(0.0209025 0 -0.000601975)
(0.0203493 0 -0.000475725)
(0.00120415 0 7.116e-06)
(0.0034741 0 2.05769e-05)
(0.00549063 0 3.26613e-05)
(0.00728242 0 4.35792e-05)
(0.00887512 0 5.34974e-05)
(0.0102914 0 6.25393e-05)
(0.0115517 0 7.07848e-05)
(0.0126742 0 7.82673e-05)
(0.0136755 0 8.49661e-05)
(0.0145707 0 9.07966e-05)
(0.0153737 0 9.55967e-05)
(0.0160971 0 9.91103e-05)
(0.0167526 0 0.000100969)
(0.0173506 0 0.000100674)
(0.0179004 0 9.75769e-05)
(0.0184097 0 9.08784e-05)
(0.0188847 0 7.96254e-05)
(0.0193297 0 6.27373e-05)
(0.0197464 0 3.90626e-05)
(0.020134 0 7.48292e-06)
(0.0204878 0 -3.29189e-05)
(0.0207996 0 -8.25859e-05)
(0.021057 0 -0.000141124)
(0.0212447 0 -0.000206805)
(0.0213438 0 -0.000275592)
(0.021337 0 -0.000340148)
(0.0212114 0 -0.000387961)
(0.0209681 0 -0.000398295)
(0.0206329 0 -0.0003405)
(0.0202571 0 -0.0001701)
(0.00120165 0 7.25578e-06)
(0.0034674 0 2.09681e-05)
(0.00548131 0 3.32395e-05)
(0.00727209 0 4.42612e-05)
(0.00886533 0 5.41826e-05)
(0.0102837 0 6.31081e-05)
(0.0115472 0 7.10972e-05)
(0.0126742 0 7.81607e-05)
(0.0136809 0 8.42549e-05)
(0.0145821 0 8.92724e-05)
(0.0153912 0 9.30323e-05)
(0.0161206 0 9.52688e-05)
(0.0167811 0 9.56196e-05)
(0.0173826 0 9.3617e-05)
(0.0179336 0 8.86821e-05)
(0.0184405 0 8.0144e-05)
(0.0189085 0 6.72576e-05)
(0.0193408 0 4.92538e-05)
(0.0197382 0 2.54248e-05)
(0.0200989 0 -4.74709e-06)
(0.0204186 0 -4.14139e-05)
(0.0206898 0 -8.40372e-05)
(0.0209023 0 -0.000131022)
(0.0210453 0 -0.000179452)
(0.0211076 0 -0.000224122)
(0.0210814 0 -0.00025689)
(0.0209671 0 -0.00026635)
(0.0207783 0 -0.000237371)
(0.020543 0 -0.00014943)
(0.0203038 0 2.86932e-05)
(0.00119816 0 7.36957e-06)
(0.00345794 0 2.12856e-05)
(0.00546775 0 3.37046e-05)
(0.00725623 0 4.47999e-05)
(0.0088488 0 5.47045e-05)
(0.0102679 0 6.35072e-05)
(0.0115336 0 7.12517e-05)
(0.0126637 0 7.79335e-05)
(0.0136742 0 8.34952e-05)
(0.0145797 0 8.78204e-05)
(0.0153931 0 9.07272e-05)
(0.0161261 0 9.1962e-05)
(0.0167891 0 9.11971e-05)
(0.0173917 0 8.80303e-05)
(0.0179412 0 8.19799e-05)
(0.0184433 0 7.25431e-05)
(0.0189024 0 5.92109e-05)
(0.0193209 0 4.15396e-05)
(0.0196991 0 1.92514e-05)
(0.0200353 0 -7.6228e-06)
(0.0203263 0 -3.86502e-05)
(0.0205663 0 -7.26066e-05)
(0.0207478 0 -0.000107183)
(0.0208644 0 -0.000138866)
(0.0209118 0 -0.000162582)
(0.0208894 0 -0.000171254)
(0.0208035 0 -0.000155977)
(0.0206698 0 -0.000106033)
(0.0205131 0 -8.51921e-06)
(0.0203685 0 0.000151715)
(0.00119358 0 7.45956e-06)
(0.00344541 0 2.15364e-05)
(0.00544949 0 3.40694e-05)
(0.00723422 0 4.52155e-05)
(0.00882479 0 5.50936e-05)
(0.0102434 0 6.37804e-05)
(0.0115099 0 7.13089e-05)
(0.0126416 0 7.76663e-05)
(0.0136545 0 8.27916e-05)
(0.0145626 0 8.65716e-05)
(0.0153784 0 8.88385e-05)
(0.0161132 0 8.93697e-05)
(0.0167763 0 8.78926e-05)
(0.0173777 0 8.40824e-05)
(0.0179241 0 7.75906e-05)
(0.0184198 0 6.80941e-05)
(0.018869 0 5.53168e-05)
(0.0192737 0 3.91148e-05)
(0.0196345 0 1.95708e-05)
(0.0199501 0 -2.8828e-06)
(0.0202181 0 -2.73267e-05)
(0.0204351 0 -5.21773e-05)
(0.0205968 0 -7.49644e-05)
(0.0207007 0 -9.22605e-05)
(0.0207464 0 -9.95778e-05)
(0.0207372 0 -9.13512e-05)
(0.0206819 0 -6.11844e-05)
(0.0205948 0 -2.19084e-06)
(0.0204962 0 9.23814e-05)
(0.0204116 0 0.00022701)
(0.00118779 0 7.52829e-06)
(0.00342948 0 2.17284e-05)
(0.00542602 0 3.43481e-05)
(0.0072054 0 4.55296e-05)
(0.00879252 0 5.53808e-05)
(0.0102093 0 6.39696e-05)
(0.0114751 0 7.13237e-05)
(0.0126071 0 7.74293e-05)
(0.0136209 0 8.22301e-05)
(0.01453 0 8.56269e-05)
(0.0153466 0 8.74785e-05)
(0.0160815 0 8.7606e-05)
(0.016744 0 8.58007e-05)
(0.0173426 0 8.18356e-05)
(0.0178836 0 7.55063e-05)
(0.0183718 0 6.6652e-05)
(0.0188107 0 5.5211e-05)
(0.0192025 0 4.1289e-05)
(0.019548 0 2.52423e-05)
(0.0198468 0 7.77379e-06)
(0.0200977 0 -9.9641e-06)
(0.020299 0 -2.62631e-05)
(0.0204493 0 -3.87698e-05)
(0.0205488 0 -4.44766e-05)
(0.0205994 0 -3.97655e-05)
(0.0206064 0 -2.05572e-05)
(0.0205786 0 1.73758e-05)
(0.0205283 0 7.7909e-05)
(0.020471 0 0.000163659)
(0.0204238 0 0.000274125)
(0.00118075 0 7.57845e-06)
(0.00341003 0 2.18694e-05)
(0.00539707 0 3.45538e-05)
(0.00716942 0 4.57619e-05)
(0.00875153 0 5.55933e-05)
(0.0101649 0 6.41113e-05)
(0.0114286 0 7.13432e-05)
(0.0125595 0 7.72802e-05)
(0.0135726 0 8.18783e-05)
(0.0144813 0 8.50606e-05)
(0.0152972 0 8.67214e-05)
(0.0160308 0 8.67342e-05)
(0.016691 0 8.49636e-05)
(0.0172856 0 8.12845e-05)
(0.0178207 0 7.56135e-05)
(0.0183011 0 6.79415e-05)
(0.0187302 0 5.83817e-05)
(0.0191104 0 4.72263e-05)
(0.019443 0 3.50117e-05)
(0.0197285 0 2.25846e-05)
(0.0199669 0 1.11643e-05)
(0.0201582 0 2.38854e-06)
(0.0203028 0 -1.67391e-06)
(0.0204027 0 1.42871e-06)
(0.0204611 0 1.44178e-05)
(0.020484 0 4.00814e-05)
(0.0204792 0 8.09517e-05)
(0.0204568 0 0.000138823)
(0.0204282 0 0.00021402)
(0.0204046 0 0.000304346)
(0.00117242 0 7.61188e-06)
(0.00338689 0 2.19651e-05)
(0.00536242 0 3.46968e-05)
(0.00712596 0 4.59278e-05)
(0.00870147 0 5.57529e-05)
(0.01011 0 6.42344e-05)
(0.0113702 0 7.14036e-05)
(0.0124985 0 7.72618e-05)
(0.0135096 0 8.1783e-05)
(0.0144164 0 8.49182e-05)
(0.0152303 0 8.66024e-05)