/*--------------------------------*- C++ -*----------------------------------*\
  =========                 |
  \\      /  F ield         | OpenFOAM: The Open Source CFD Toolbox
   \\    /   O peration     | Website:  https://openfoam.org
    \\  /    A nd           | Version:  7
     \\/     M anipulation  |
\*---------------------------------------------------------------------------*/
FoamFile
{
    version     2.0;
    format      ascii;
    class       volVectorField;
    location    "0.2";
    object      Force;
}
// * * * * * * * * * * * * * * * * * * * * * * * * * * * * * * * * * * * * * //

dimensions      [1 1 -2 0 0 0 0];

internalField   uniform (0 0 0);

boundaryField
{
    inlet
    {
        type            calculated;
        value           uniform (0 0 0);
    }
    outlet
    {
        type            calculated;
        value           uniform (0 0 0);
    }
    flap
    {
        type            calculated;
        value           nonuniform List<vector> 
33
(
(2.25268 1.60208e-21 -0.0517506)
(2.23755 1.69148e-18 -0.0922285)
(2.21503 1.66297e-18 -0.121578)
(2.18562 -1.47476e-18 -0.130822)
(2.15198 -1.45776e-18 -0.125182)
(2.11352 1.61094e-18 -0.108326)
(2.06954 -2.30181e-18 -0.0832552)
(2.01848 1.59347e-18 -0.053949)
(1.95707 1.59338e-18 -0.0240262)
(1.87905 -1.58802e-18 0.00247462)
(1.77589 1.60709e-18 0.022216)
(1.63072 -1.61549e-18 0.0307586)
(1.41552 -3.24017e-18 0.0340151)
(1.07291 1.81009e-18 0.0350633)
(0.402969 1.35633e-19 0.0200881)
(-0.0473424 1.59025e-18 1.77657)
(-0.0487734 5.37189e-19 1.57256)
(-0.0349467 -1.51125e-18 1.2665)
(1.87618 1.55022e-18 -0.0412048)
(1.88873 -6.46316e-19 -0.0784344)
(1.90844 2.64211e-22 -0.104747)
(1.93814 1.62698e-18 -0.115908)
(1.9789 1.64388e-18 -0.11468)
(2.03381 1.76442e-21 -0.103515)
(2.10273 1.66732e-18 -0.0839509)
(2.18153 1.67436e-18 -0.0576663)
(2.26202 -1.67455e-18 -0.027488)
(2.33101 1.06142e-22 0.00264087)
(2.37498 -1.03836e-22 0.0280888)
(2.38653 -4.01319e-19 0.0421688)
(2.36411 1.64588e-18 0.0514954)
(2.29984 -3.87231e-19 0.0639266)
(2.18668 3.82708e-22 0.0676253)
)
;
    }
    upperWall
    {
        type            calculated;
        value           uniform (0 0 0);
    }
    lowerWall
    {
        type            calculated;
        value           uniform (0 0 0);
    }
    frontAndBack
    {
        type            empty;
    }
}


// ************************************************************************* //
