/*--------------------------------*- C++ -*----------------------------------*\
  =========                 |
  \\      /  F ield         | OpenFOAM: The Open Source CFD Toolbox
   \\    /   O peration     | Website:  https://openfoam.org
    \\  /    A nd           | Version:  7
     \\/     M anipulation  |
\*---------------------------------------------------------------------------*/
FoamFile
{
    version     2.0;
    format      ascii;
    class       surfaceScalarField;
    location    "0.2";
    object      meshPhi;
}
// * * * * * * * * * * * * * * * * * * * * * * * * * * * * * * * * * * * * * //

dimensions      [0 3 -1 0 0 0 0];

internalField   nonuniform List<scalar> 
5457
(
0.000319192
-2.27444e-06
0.000609473
-6.489e-06
0.000864342
-1.01451e-05
0.00108703
-1.32916e-05
0.00128044
-1.6018e-05
0.00144712
-1.83904e-05
0.00158929
-2.04553e-05
0.00170886
-2.22422e-05
0.00180741
-2.37649e-05
0.00188628
-2.50221e-05
0.0019465
-2.59978e-05
0.00198885
-2.66605e-05
0.00201385
-2.69623e-05
0.00202174
-2.68384e-05
0.00201253
-2.62061e-05
0.00198597
-2.49652e-05
0.00194158
-2.29998e-05
0.00187873
-2.0182e-05
0.00179668
-1.638e-05
0.00169474
-1.14694e-05
0.00157245
-5.35007e-06
0.0014299
2.03281e-06
0.00126814
1.06643e-05
0.00108962
2.04348e-05
0.000898862
3.11183e-05
0.000703097
4.23562e-05
0.00051321
5.36529e-05
0.000345224
6.43951e-05
0.000225239
7.39093e-05
8.17676e-05
0.00031928
-4.54384e-06
0.000609674
-1.2964e-05
0.000864684
-2.02692e-05
0.00108754
-2.65579e-05
0.00128117
-3.20088e-05
0.00144813
-3.67548e-05
0.00159065
-4.08898e-05
0.00171065
-4.44734e-05
0.00180975
-4.7535e-05
0.00188931
-5.00739e-05
0.00195038
-5.20609e-05
0.00199381
-5.3436e-05
0.00202016
-5.41082e-05
0.00202974
-5.39527e-05
0.00202264
-5.28103e-05
0.00199872
-5.04872e-05
0.00195761
-4.67581e-05
0.00189881
-4.13738e-05
0.00182172
-3.40742e-05
0.00172579
-2.46109e-05
0.00161067
-1.27786e-05
0.00147655
1.54429e-06
0.00132447
1.83477e-05
0.00115689
3.74403e-05
0.000978263
5.84043e-05
0.000795819
8.05554e-05
0.000620578
0.0001029
0.000468845
0.000124062
0.000366126
0.00014212
0.000153514
0.000319477
-6.80169e-06
0.000610098
-1.94066e-05
0.000865387
-3.03447e-05
0.00108859
-3.97643e-05
0.00128266
-4.79338e-05
0.00145016
-5.50537e-05
0.00159337
-6.12662e-05
0.00171422
-6.66638e-05
0.0018144
-7.12936e-05
0.00189529
-7.51599e-05
0.00195805
-7.82248e-05
0.00200359
-8.04073e-05
0.00203257
-8.1581e-05
0.00204545
-8.15717e-05
0.00204247
-8.01555e-05
0.00202368
-7.70587e-05
0.00198897
-7.19611e-05
0.00193806
-6.45046e-05
0.00187065
-5.43117e-05
0.00178644
-4.10142e-05
0.00168535
-2.42967e-05
0.00156771
-3.95493e-06
0.00143465
2.00334e-05
0.00128851
4.74313e-05
0.00113354
7.76678e-05
0.000976693
0.000109771
0.000828601
0.000142286
0.000704901
0.000173113
0.000628857
0.000199047
0.000218705
0.000319773
-9.04038e-06
0.000610735
-2.57954e-05
0.000866435
-4.03387e-05
0.00109015
-5.28688e-05
0.00128485
-6.37446e-05
0.00145316
-7.32348e-05
0.00159736
-8.15322e-05
0.00171947
-8.87644e-05
0.00182121
-9.50006e-05
0.00190406
-0.000100255
0.00196926
-0.00010449
0.00201784
-0.000107611
0.00205063
-0.000109468
0.00206826
-0.000109855
0.00207121
-0.000108498
0.00205981
-0.000105066
0.00203425
-9.91642e-05
0.00199467
-9.03489e-05
0.00194113
-7.81435e-05
0.00187378
-6.20724e-05
0.00179288
-4.17117e-05
0.00169906
-1.67621e-05
0.00159351
1.28561e-05
0.00147846
4.6889e-05
0.00135764
8.46284e-05
0.00123716
0.000124797
0.00112639
0.000165433
0.00103888
0.000203698
0.000993952
0.000235255
0.000266252
0.000320163
-1.12516e-05
0.000611567
-3.21068e-05
0.000867801
-5.02144e-05
0.00109218
-6.58241e-05
0.0012877
-7.93854e-05
0.00145703
-9.12364e-05
0.00160253
-0.000101622
0.00172624
-0.00011071
0.00182999
-0.000118594
0.00191533
-0.000125308
0.00198364
-0.000130818
0.00203609
-0.000135033
0.00207368
-0.000137794
0.00209729
-0.000138877
0.00210768
-0.000137986
0.00210551
-0.000134754
0.0020914
-0.000128745
0.00206592
-0.00011946
0.00202967
-0.000106352
0.00198334
-8.88618e-05
0.0019277
-6.64701e-05
0.00186377
-3.87772e-05
0.00179291
-5.62338e-06
0.00171711
3.27525e-05
0.00163932
7.55172e-05
0.00156412
0.000121032
0.00149851
0.000166662
0.00145263
0.000208597
0.0014404
0.000241444
0.000270192
0.000320639
-1.34264e-05
0.000612577
-3.83152e-05
0.000869451
-5.9932e-05
0.00109462
-7.8578e-05
0.00129112
-9.47935e-05
0.00146169
-0.000108987
0.00160871
-0.000121459
0.00173434
-0.000132418
0.00184046
-0.000141991
0.00192875
-0.000150234
0.00200071
-0.000157133
0.00205767
-0.000162608
0.00210086
-0.000166509
0.0021314
-0.000168616
0.00215035
-0.000168636
0.00215877
-0.000166198
0.00215771
-0.00016086
0.00214829
-0.000152105
0.00213169
-0.00013936
0.00210924
-0.000122021
0.00208236
-9.94949e-05
0.00205258
-7.12885e-05
0.00202155
-3.7133e-05
0.001991
2.81294e-06
0.00196284
4.76768e-05
0.00193941
9.55111e-05
0.00192405
0.000142937
0.00192173
0.000184994
0.00193952
0.000215413
0.000240346
0.000321188
-1.55554e-05
0.000613738
-4.43937e-05
0.000871341
-6.9449e-05
0.0010974
-9.10745e-05
0.00129503
-0.000109901
0.00146699
-0.000126409
0.00161575
-0.000140954
0.00174353
-0.000153791
0.00185231
-0.000165085
0.00194389
-0.000174922
0.0020199
-0.000183317
0.00208184
-0.000190214
0.00213116
-0.000195489
0.00216923
-0.000198948
0.00219744
-0.000200325
0.00221721
-0.000199282
0.00223006
-0.000195408
0.00223765
-0.000188217
0.00224179
-0.00017716
0.00224448
-0.000161636
0.00224786
-0.000141028
0.00225413
-0.000114764
0.00226534
-8.24353e-05
0.00228312
-4.40019e-05
0.00230824
-1.42456e-07
0.00234031
4.72248e-05
0.00237773
9.43062e-05
0.00241847
0.000135062
0.00246153
0.000162106
0.000178077
0.000321796
-1.7629e-05
0.000615017
-5.03146e-05
0.000873418
-7.87215e-05
0.00110046
-0.000103255
0.0012993
-0.000124636
0.00147278
-0.000143416
0.00162343
-0.000160011
0.00175353
-0.000174721
0.00186518
-0.000187755
0.00196027
-0.000199236
0.00204057
-0.000209216
0.00210776
-0.000217677
0.00216347
-0.000224535
0.00220932
-0.000229641
0.002247
-0.000232786
0.00227827
-0.000233692
0.00230507
-0.000232021
0.00232956
-0.000227367
0.00235412
-0.000219259
0.0023814
-0.000207169
0.00241427
-0.000190517
0.00245564
-0.0001687
0.00250819
-0.000141162
0.00257369
-0.000107536
0.00265215
-6.7954e-05
0.00274054
-2.36148e-05
0.00283173
2.22957e-05
0.00291476
6.35896e-05
0.00297859
9.14076e-05
9.90648e-05
0.000322443
-1.96373e-05
0.000616375
-5.60497e-05
0.000875617
-8.77052e-05
0.00110369
-0.000115061
0.00130382
-0.000138925
0.00147889
-0.000159922
0.00163152
-0.000178526
0.00176405
-0.000195088
0.00187866
-0.000209863
0.00197736
-0.000223017
0.00206205
-0.000234645
0.00213454
-0.000244776
0.00219663
-0.000253381
0.00225017
-0.000260375
0.00229707
-0.00026562
0.00233938
-0.000268932
0.00237938
-0.000270077
0.00241959
-0.000268774
0.00246286
-0.00026469
0.00251237
-0.000257439
0.00257159
-0.000246564
0.00264411
-0.000231527
0.00273331
-0.000211694
0.00284159
-0.000186356
0.00296903
-0.000154841
0.00311126
-0.000116878
0.00325676
-7.34811e-05
0.00338517
-2.85999e-05
0.00347189
8.89957e-06
3.35437e-05
0.000323108
-2.15708e-05
0.000617767
-6.15716e-05
0.000877867
-9.63561e-05
0.001107
-0.000126432
0.00130844
-0.000152694
0.00148515
-0.000175838
0.00163978
-0.000196394
0.00177477
-0.000214769
0.00189237
-0.000231263
0.00199466
-0.00024609
0.00208366
-0.000259393
0.00216131
-0.000271257
0.00222954
-0.000281714
0.00229034
-0.000290752
0.00234579
-0.000298325
0.00239815
-0.000304355
0.00244988
-0.000308742
0.00250375
-0.00031136
0.00256284
-0.000312064
0.00263062
-0.000310675
0.00271089
-0.000306959
0.00280772
-0.000300582
0.00292512
-0.000291022
0.0030664
-0.000277454
0.00323281
-0.00025859
0.00342111
-0.000232619
0.00361945
-0.000197566
0.0038025
-0.000152945
0.00393114
-0.00010443
-2.27461e-05
0.000323765
-2.34204e-05
0.000619141
-6.68539e-05
0.000880091
-0.000104632
0.00111028
-0.000137312
0.00131303
-0.000165873
0.00149135
-0.000191076
0.00164797
-0.000213513
0.00178538
-0.00023364
0.00190588
-0.000251807
0.00201165
-0.000268276
0.00210477
-0.000283242
0.00218726
-0.000296846
0.00226116
-0.000309187
0.00232853
-0.000320332
0.00239155
-0.000330329
0.00245254
-0.000339218
0.00251402
-0.000347038
0.0025788
-0.000353839
0.00264995
-0.000359685
0.00273089
-0.000364652
0.00282538
-0.000368809
0.00293748
-0.000372172
0.00307139
-0.000374599
0.00323109
-0.000375607
0.00341951
-0.000374053
0.00363662
-0.000367693
0.00387546
-0.000352848
0.00411453
-0.000325211
0.00430615
-0.000284945
-0.000191722
0.000324389
-2.51775e-05
0.000620446
-7.18721e-05
0.00088221
-0.000112495
0.00111341
-0.000147649
0.00131743
-0.000178393
0.00149732
-0.000205556
0.00165586
-0.000229784
0.00179558
-0.000251583
0.00191884
-0.000271352
0.00202787
-0.000289399
0.00212478
-0.000305972
0.00221167
-0.000321268
0.0022906
-0.000335449
0.00236367
-0.00034866
0.00243303
-0.000361041
0.00250096
-0.000372742
0.00256992
-0.000383936
0.0026425
-0.000394839
0.00272153
-0.000405719
0.00281003
-0.00041691
0.00291123
-0.000428807
0.00302853
-0.000441854
0.00316548
-0.000456488
0.00332571
-0.000473011
0.00351269
-0.000491339
0.00372902
-0.000510515
0.00397408
-0.000527935
0.00423648
-0.000538601
0.00447244
-0.000536484
-0.000504044
0.00032495
-2.68344e-05
0.000621627
-7.6604e-05
0.000884141
-0.000119908
0.00111629
-0.000157395
0.0013215
-0.000190197
0.00150288
-0.000219204
0.00166322
-0.000245116
0.00180509
-0.000268488
0.00193089
-0.000289762
0.00204287
-0.000309293
0.00214319
-0.000327375
0.00223392
-0.000344256
0.00231714
-0.000360159
0.00239489
-0.000375296
0.00246925
-0.000389885
0.00254234
-0.000404169
0.00261639
-0.000418433
0.00269366
-0.000433025
0.00277647
-0.000448375
0.00286715
-0.000465019
0.00296794
-0.000483621
0.00308099
-0.000504989
0.00320822
-0.000530102
0.00335132
-0.000560108
0.0035118
-0.000596304
0.00369098
-0.00063996
0.00388963
-0.000691675
0.00410413
-0.000749334
0.00430878
-0.000803012
-0.000857001
0.00032542
-2.83842e-05
0.000622624
-8.10297e-05
0.000885799
-0.000126841
0.0011188
-0.000166507
0.0013251
-0.000201228
0.00150783
-0.000231953
0.00166981
-0.000259429
0.00181364
-0.000284256
0.00194172
-0.000306916
0.00205629
-0.000327805
0.00215953
-0.000347258
0.00225349
-0.000365568
0.00234019
-0.000383005
0.00242158
-0.000399836
0.00249957
-0.000416337
0.00257606
-0.000432817
0.00265296
-0.000449634
0.00273207
-0.000467215
0.00281508
-0.000486082
0.00290342
-0.000506874
0.00299816
-0.000530375
0.00309979
-0.000557551
0.00320802
-0.000589602
0.00332152
-0.000628035
0.00343769
-0.000674785
0.00355249
-0.000732361
0.00366054
-0.000803843
0.00375561
-0.000891581
0.00383212
-0.000989377
-0.00113752
0.000325761
-2.98334e-05
0.000623374
-8.51687e-05
0.000887096
-0.000133324
0.00112083
-0.000175025
0.0013281
-0.000211535
0.00151204
-0.000243853
0.00167548
-0.000272774
0.00182103
-0.000298934
0.00195107
-0.000322852
0.00206786
-0.000344961
0.00217351
-0.000365627
0.00227005
-0.000385179
0.00235942
-0.000403923
0.00244343
-0.000422161
0.00252378
-0.000440205
0.00260208
-0.000458399
0.00267985
-0.000477126
0.00275843
-0.000496835
0.00283884
-0.000518053
0.00292162
-0.000541399
0.00300665
-0.000567601
0.00309289
-0.000597502
0.00317796
-0.000632067
0.00325776
-0.000672375
0.00332581
-0.000719547
0.00337271
-0.000774531
0.00338601
-0.00083747
0.00335258
-0.000905721
0.00327474
-0.000966903
-0.00117851
0.000285056
-0.000148959
0.000452461
-0.00013264
0.000678368
-0.000128929
0.000927374
-0.00012199
0.00117491
-0.000113004
0.00140608
-0.000102785
0.00161288
-9.20683e-05
0.00179186
-8.14704e-05
0.00194232
-7.14444e-05
0.00206512
-6.22771e-05
0.00216192
-5.41113e-05
0.0022346
-4.69795e-05
0.00228497
-4.08389e-05
0.00231462
-3.56015e-05
0.00232482
-3.11572e-05
0.00231648
-2.73899e-05
0.00229012
-2.41879e-05
0.00224596
-2.1449e-05
0.00218385
-1.90833e-05
0.00210336
-1.70129e-05
0.00200374
-1.51716e-05
0.00188398
-1.35026e-05
0.0017428
-1.19568e-05
0.00157863
-1.04906e-05
0.00138965
-9.06325e-06
0.00117379
-7.63492e-06
0.000928689
-6.16368e-06
0.000651737
-4.60266e-06
0.000340011
-2.89627e-06
-1.00586e-06
0.000430866
-0.000256412
0.000590411
-0.000251203
0.000802966
-0.000247266
0.00103603
-0.000235698
0.00126712
-0.000219144
0.00148271
-0.000199708
0.00167551
-0.000179102
0.00184235
-0.000158647
0.00198258
-0.000139274
0.00209696
-0.000121555
0.00218692
-0.00010577
0.00225411
-9.19779e-05
0.00230014
-8.00946e-05
0.00232638
-6.9948e-05
0.00233391
-6.13253e-05
0.00232348
-5.40031e-05
0.00229551
-4.77666e-05
0.00225008
-4.242e-05
0.002187
-3.77907e-05
0.00210575
-3.37294e-05
0.00200554
-3.01086e-05
0.00188533
-2.68189e-05
0.0017438
-2.37654e-05
0.00157936
-2.08632e-05
0.00139018
-1.80331e-05
0.00117417
-1.51969e-05
0.000928951
-1.22722e-05
0.000651905
-9.16618e-06
0.000340093
-5.76886e-06
-2.00368e-06
0.000702305
-0.000354746
0.000850514
-0.000355816
0.00103941
-0.000351717
0.00124289
-0.000336435
0.00144309
-0.000313481
0.0016292
-0.000286072
0.00179541
-0.000256848
0.00193918
-0.000227803
0.00205992
-0.000200305
0.0021582
-0.000175171
0.00223508
-0.000152786
0.00229179
-0.000133221
0.00232949
-0.000116346
0.00234917
-0.000101911
0.00235155
-8.96132e-05
0.0023371
-7.91385e-05
0.00230599
-7.01857e-05
0.00225813
-6.24809e-05
0.00219315
-5.57825e-05
0.00211043
-4.98818e-05
0.00200908
-4.45994e-05
0.00188799
-3.97813e-05
0.00174577
-3.52927e-05
0.00158082
-3.10124e-05
0.00139124
-2.68266e-05
0.00117493
-2.26216e-05
0.000929477
-1.82769e-05
0.000652247
-1.36562e-05
0.000340267
-8.59692e-06
-2.98636e-06
0.0010815
-0.000455264
0.00121163
-0.000448849
0.00136712
-0.000441721
0.00152979
-0.000421805
0.00168755
-0.000392784
0.00183316
-0.000358436
0.00196275
-0.000322006
0.00207462
-0.000285959
0.00216837
-0.000251952
0.0022443
-0.000220945
0.00230297
-0.000193362
0.00234505
-0.000169249
0.00237109
-0.00014842
0.00238156
-0.000130555
0.0023767
-0.00011528
0.00235657
-0.00010221
0.00232102
-9.09822e-05
0.00226969
-8.12657e-05
0.00220201
-7.27692e-05
0.00211718
-6.52404e-05
0.00201419
-5.84616e-05
0.00189183
-5.22444e-05
0.00174863
-4.64228e-05
0.00158292
-4.08461e-05
0.00139277
-3.53706e-05
0.00117601
-2.98519e-05
0.000930232
-2.41346e-05
0.000652735
-1.80419e-05
0.000340513
-1.13617e-05
-3.94746e-06
0.00154706
-0.000531379
0.00164833
-0.000527726
0.00176088
-0.000515411
0.00187406
-0.00048974
0.00198119
-0.000454649
0.00207863
-0.000414252
0.00216463
-0.000372109
0.00223849
-0.000330877
0.0023
-0.000292278
0.00234916
-0.000257253
0.00238597
-0.000226161
0.00241041
-0.000198976
0.00242236
-0.000175442
0.00242163
-0.000155179
0.00240792
-0.000137763
0.00238083
-0.000122769
0.0023398
-0.000109797
0.00228418
-9.84863e-05
0.00221313
-8.85193e-05
0.00212566
-7.96189e-05
0.00202062
-7.15446e-05
0.00189665
-6.40865e-05
0.00175221
-5.70574e-05
0.00158555
-5.02847e-05
0.00139467
-4.36016e-05
0.00117737
-3.68375e-05
0.000931163
-2.98068e-05
0.000653332
-2.22958e-05
0.000340813
-1.40463e-05
-4.8812e-06
0.00206532
-0.000602458
0.00212959
-0.000589709
0.00219284
-0.000570477
0.00225121
-0.000538091
0.00230297
-0.000496959
0.00234799
-0.0004515
0.00238665
-0.000405339
0.00241924
-0.000361004
0.00244574
-0.000320003
0.00246577
-0.000283057
0.00247872
-0.000250351
0.00248383
-0.000221734
0.00248025
-0.000196872
0.00246711
-0.000175344
0.00244354
-0.000156704
0.00240862
-0.000140518
0.00236141
-0.000126385
0.0023009
-0.000113941
0.002226
-0.000102865
0.0021355
-9.28784e-05
0.00202808
-8.37334e-05
0.00190225
-7.52124e-05
0.00175636
-6.71176e-05
0.00158858
-5.92634e-05
0.00139685
-5.14666e-05
0.0011789
-4.35362e-05
0.000932212
-3.52608e-05
0.000653998
-2.63941e-05
0.000341146
-1.6636e-05
-5.78253e-06
0.00259985
-0.000647781
0.00262401
-0.000630167
0.00263562
-0.000603563
0.00263712
-0.000564084
0.00263188
-0.00051739
0.00262336
-0.000468346
0.002614
-0.000420346
0.00260494
-0.000375399
0.00259615
-0.000334486
0.00258681
-0.00029792
0.00257561
-0.000265617
0.00256104
-0.00023728
0.00254154
-0.000212511
0.0025156
-0.000190876
0.00248175
-0.000171947
0.00243861
-0.000155319
0.00238484
-0.00014062
0.0023191
-0.000127515
0.00224005
-0.000115706
0.00214626
-0.000104929
0.00203623
-9.49494e-05
0.00190836
-8.55537e-05
0.00176088
-7.65447e-05
0.00159187
-6.77323e-05
0.0013992
-5.89239e-05
0.00118054
-4.99136e-05
0.000933315
-4.04695e-05
0.00065469
-3.03171e-05
0.000341487
-1.91186e-05
-6.64718e-06
0.00311992
-0.000660056
0.00310475
-0.000646035
0.00306466
-0.000610894
0.0030092
-0.000564038
0.00294774
-0.000513116
0.00288741
-0.000463021
0.00283233
-0.000416244
0.00278401
-0.000373768
0.00274211
-0.000335764
0.00270518
-0.000302021
0.00267118
-0.000272171
0.00263789
-0.000245801
0.00260309
-0.000222496
0.00256469
-0.000201864
0.00252073
-0.000183538
0.00246942
-0.000167182
0.00240905
-0.000152488
0.002338
-0.000139179
0.00225469
-0.000127002
0.00215749
-0.000115728
0.00204475
-0.000105149
0.00191474
-9.5068e-05
0.00176558
-8.52993e-05
0.00159526
-7.56558e-05
0.00140159
-6.59421e-05
0.00118218
-5.59433e-05
0.000934402
-4.54115e-05
0.000655359
-3.40485e-05
0.000341812
-2.14839e-05
-7.47164e-06
0.00360716
-0.000666021
0.00355163
-0.000633578
0.00345789
-0.000585981
0.00334569
-0.000532381
0.00323099
-0.000480772
0.00312362
-0.000434138
0.00302822
-0.000392948
0.00294583
-0.000356704
0.00287532
-0.000324681
0.00281445
-0.000296213
0.00276048
-0.000270759
0.00271057
-0.000247896
0.00266198
-0.000227284
0.00261216
-0.000208635
0.0025588
-0.000191701
0.00249976
-0.000176253
0.00243306
-0.000162079
0.00235685
-0.000148982
0.00226934
-0.000136774
0.00216875
-0.000125276
0.00205329
-0.00011432
0.0019211
-0.000103738
0.00177023
-9.33601e-05
0.00159858
-8.30117e-05
0.0014039
-7.25001e-05
0.00118374
-6.16062e-05
0.000935403
-5.00707e-05
0.000655958
-3.75761e-05
0.000342097
-2.37239e-05
-8.25311e-06
0.00405246
-0.000652648
0.00394393
-0.000568346
0.00379012
-0.000513128
0.00362291
-0.000461144
0.00346185
-0.00041761
0.00331642
-0.000381867
0.0031897
-0.000351958
0.00308125
-0.000326113
0.00298879
-0.000303084
0.00290927
-0.000282087
0.00283938
-0.000262665
0.00277588
-0.000244558
0.00271572
-0.000227614
0.00265609
-0.000211731
0.00259445
-0.000196821
0.00252845
-0.000182799
0.00245595
-0.000169572
0.00237493
-0.000157039
0.00228344
-0.000145091
0.0021796
-0.000133613
0.00206151
-0.000122482
0.0019272
-0.000111566
0.00177464
-0.000100723
0.00160168
-8.97909e-05
0.00140601
-7.85863e-05
0.0011851
-6.68902e-05
0.000936247
-5.4436e-05
0.000656439
-4.0891e-05
0.000342316
-2.58329e-05
-8.98951e-06
0.00441042
-0.00049478
0.00423617
-0.000415809
0.00402361
-0.000377034
0.00381292
-0.000346775
0.00362075
-0.000325589
0.00345223
-0.000310099
0.00330725
-0.000297374
0.0031834
-0.000285618
0.00307739
-0.000273926
0.00298568
-0.000261948
0.00290478
-0.00024964
0.00283136
-0.000237094
0.00276235
-0.000224452
0.0026949
-0.00021185
0.00262642
-0.0001994
0.0025545
-0.000187174
0.00247693
-0.000175212
0.0023916
-0.000163517
0.00229651
-0.000152065
0.00218966
-0.000140808
0.00206909
-0.000129676
0.00193278
-0.000118577
0.00177862
-0.000107397
0.00160441
-9.59944e-05
0.00140778
-8.41969e-05
0.0011862
-7.17892e-05
0.000936866
-5.85006e-05
0.000656756
-4.39871e-05
0.000342446
-2.78065e-05
-9.67935e-06
0.00456482
-0.000190348
0.00434907
-0.000182255
0.0041105
-0.000189374
0.00388852
-0.000202487
0.00369248
-0.000216622
0.00352238
-0.000228405
0.00337553
-0.000236453
0.00324866
-0.000240569
0.0031384
-0.00024111
0.00304151
-0.000238638
0.00295485
-0.000233753
0.00287546
-0.00022701
0.00280055
-0.00021889
0.00272747
-0.000209787
0.00265377
-0.000200009
0.00257712
-0.000189788
0.00249535
-0.000179288
0.00240635
-0.000168617
0.0023081
-0.000157832
0.00219857
-0.000146953
0.00207576
-0.000135961
0.00193761
-0.000124805
0.00178197
-0.000113401
0.00160661
-0.000101631
0.00140912
-8.93338e-05
0.00118692
-7.63012e-05
0.000937193
-6.22609e-05
0.000656863
-4.68606e-05
0.000342464
-2.9642e-05
-1.03215e-05
0.00439615
0.000153985
0.00421638
6.75469e-05
0.00402114
1.62545e-06
0.00383886
-6.16673e-05
0.00367429
-0.000112835
0.00352691
-0.000151214
0.00339522
-0.000178648
0.00327752
-0.000197269
0.00317195
-0.000208931
0.00307653
-0.000215146
0.00298914
-0.000217122
0.0029076
-0.000215828
0.00282967
-0.000212032
0.00275316
-0.000206341
0.00267589
-0.000199229
0.00259577
-0.000191059
0.00251073
-0.000182101
0.00241875
-0.000172551
0.00231785
-0.00016254
0.00220603
-0.000152147
0.00208127
-0.000141401
0.00194149
-0.00013029
0.00178455
-0.00011876
0.00160816
-0.000106712
0.00140991
-9.40017e-05
0.00118719
-8.04262e-05
0.000937166
-6.57146e-05
0.000656719
-4.95085e-05
0.000342348
-3.13371e-05
-1.09152e-05
0.00390908
0.000424458
0.00386091
0.000235503
0.00378162
0.000127626
0.00368585
3.36036e-05
0.00358232
-3.89894e-05
0.00347697
-9.31809e-05
0.00337367
-0.000132919
0.00327465
-0.00016143
0.00318088
-0.000181187
0.00309238
-0.000194085
0.00300849
-0.000201599
0.00292809
-0.000204883
0.00284973
-0.000204852
0.0027718
-0.00020223
0.00269254
-0.000197587
0.00261014
-0.000191373
0.00252276
-0.00018393
0.00242852
-0.00017552
0.00232553
-0.00016633
0.00221183
-0.000156487
0.00208543
-0.000146062
0.00194427
-0.000135075
0.0017862
-0.000123497
0.00160894
-0.000111252
0.00141006
-9.82056e-05
0.00118694
-8.41647e-05
0.00093673
-6.88596e-05
0.000656285
-5.1928e-05
0.000342079
-3.28894e-05
-1.14595e-05
0.00330616
0.00045175
0.00342591
0.000191164
0.00348143
0.000126879
0.00348338
5.46059e-05
0.00344911
-9.69096e-06
0.00339247
-6.2637e-05
0.00332323
-0.000104512
0.0032478
-0.000136595
0.00317005
-0.000160381
0.00309209
-0.000177288
0.00301475
-0.000188552
0.00293802
-0.000195218
0.00286133
-0.000198153
0.00278367
-0.000198074
0.00270377
-0.000195568
0.00262019
-0.000191108
0.00253134
-0.000185072
0.00243553
-0.000177756
0.00233097
-0.000169385
0.00221581
-0.000160118
0.00208809
-0.000150058
0.00194581
-0.00013925
0.00178681
-0.000127687
0.00160885
-0.000115308
0.00140949
-0.000101993
0.00118611
-8.75539e-05
0.000935838
-7.17244e-05
0.000655532
-5.41395e-05
0.000341641
-3.43113e-05
-1.19586e-05
0.000338414
-3.11956e-05
0.000647696
-8.90589e-05
0.000921949
-0.000139418
0.00116527
-0.000183027
0.00138133
-0.000221209
0.0015734
-0.000255011
0.00174442
-0.000285265
0.00189708
-0.000312643
0.00203384
-0.000337696
0.00215699
-0.000360882
0.00226869
-0.000382597
0.00237098
-0.000403193
0.00246576
-0.000422996
0.00255478
-0.000442328
0.0026395
-0.000461515
0.00272125
-0.000480898
0.00280127
-0.000500849
0.00288044
-0.000521775
0.00295921
-0.000544129
0.00303735
-0.000568402
0.00311377
-0.000595108
0.00318624
-0.00062474
0.00325095
-0.000657694
0.00330213
-0.0006941
0.00333155
-0.000733477
0.00332809
-0.000774003
0.00327839
-0.000811051
0.00316983
-0.00083448
0.00300388
-0.000824362
-0.000747845
0.00249954
0.000346561
-3.24603e-05
0.000663409
-9.26715e-05
0.000944571
-0.000145076
0.00119427
-0.000190455
0.00141627
-0.000230182
0.00161392
-0.000265342
0.00179021
-0.000296806
0.00194788
-0.000325272
0.00208941
-0.000351317
0.00221709
-0.000375422
0.00233303
-0.000397999
0.00243925
-0.000419413
0.00253765
-0.000439999
0.00262984
-0.00046008
0.00271697
-0.000479974
0.00280002
-0.000499996
0.00287991
-0.000520461
0.0029572
-0.000541692
0.00303181
-0.000564009
0.00310294
-0.000587704
0.00316886
-0.000612996
0.00322676
-0.000639938
0.00327238
-0.000668288
0.00329992
-0.000697278
0.00330209
-0.000725189
0.00327046
-0.000748746
0.00319719
-0.00076225
0.00307837
-0.000756525
0.00291944
-0.000717534
-0.000629465
0.00274664
0.000354636
-3.36111e-05
0.000679003
-9.59597e-05
0.000967045
-0.000150227
0.00122309
-0.000197214
0.001451
-0.000238336
0.00165417
-0.000274713
0.00183566
-0.000307244
0.00199822
-0.00033665
0.00214433
-0.000363528
0.00227626
-0.000388373
0.00239607
-0.000411604
0.00250571
-0.000433591
0.00260715
-0.000454661
0.00270199
-0.000475126
0.00279087
-0.000495282
0.0028743
-0.000515394
0.00295309
-0.000535695
0.00302758
-0.000556395
0.00309734
-0.000577652
0.00316123
-0.000599544
0.00321724
-0.000622005
0.00326254
-0.00064469
0.00329328
-0.000666855
0.00330479
-0.000687176
0.00329207
-0.00070343
0.00325086
-0.000712178
0.00317933
-0.000708495
0.0030808
-0.000685692
0.00296598
-0.000634891
-0.000551652
0.00286728
0.000362588
-3.46363e-05
0.000694379
-9.88903e-05
0.00098923
-0.000154819
0.00125156
-0.000203236
0.00148531
-0.000245591
0.00169392
-0.00028303
0.00188049
-0.000316473
0.00204778
-0.000346661
0.00219826
-0.0003742
0.00233417
-0.000399594
0.00245748
-0.000423264
0.00256992
-0.000445572
0.00267375
-0.000466832
0.00277097
-0.000487333
0.00286128
-0.000507331
0.00294435
-0.000527027
0.00302132
-0.000546564
0.00309258
-0.000566035
0.00315744
-0.000585443
0.0032146
-0.000604675
0.00326216
-0.000623424
0.00329766
-0.000641079
0.00331817
-0.000656627
0.00332057
-0.000668555
0.00330226
-0.000674701
0.00326215
-0.000672149
0.00320182
-0.000657228
0.00312698
-0.000625616
0.00304859
-0.000572677
-0.000499952
0.00299168
0.000370362
-3.55261e-05
0.000709434
-0.000101436
0.00101098
-0.00015881
0.00127951
-0.000208468
0.00151899
-0.000251882
0.00173293
-0.000290218
0.00192444
-0.000324411
0.00209629
-0.000355213
0.00225094
-0.000383236
0.00239057
-0.000408985
0.00251709
-0.000432878
0.002632
-0.000455262
0.00273776
-0.000476437
0.0028367
-0.000496654
0.00292786
-0.000516113
0.00301022
-0.000534948
0.00308515
-0.000553225
0.0031532
-0.000570931
0.00321354
-0.000587948
0.00326499
-0.000604012
0.00330595
-0.000618659
0.00333459
-0.000631154
0.00334896
-0.000640442
0.00334743
-0.000645098
0.00332917
-0.000643301
0.00329495
-0.000632858
0.00324776
-0.000611341
0.00319354
-0.000576355
0.00314161
-0.000526108
-0.000464354
0.0031082
0.000377903
-3.62721e-05
0.000724065
-0.000103573
0.00103216
-0.000162162
0.00130673
-0.00021286
0.00155182
-0.00025715
0.00177095
-0.000296211
0.00196724
-0.000330985
0.00214347
-0.000362229
0.00230207
-0.000390556
0.00244521
-0.000416466
0.00257475
-0.000440368
0.00269226
-0.000462595
0.00279982
-0.00048342
0.0028993
-0.000503053
0.00299023
-0.000521639
0.00307187
-0.000539257
0.00314511
-0.000555906
0.00321032
-0.000571494
0.00326686
-0.000585815
0.00331383
-0.000598521
0.00335008
-0.000609084
0.00337442
-0.000616768
0.00338581
-0.000620608
0.00338371
-0.000619414
0.00336845
-0.000611807
0.00334171
-0.000596307
0.0033068
-0.00057151
0.00326897
-0.00053637
0.00323524
-0.000490676
-0.000438511
0.00321544
0.000385156
-3.68636e-05
0.000738165
-0.000105269
0.0010526
-0.000164826
0.00133306
-0.000216347
0.00158359
-0.000261318
0.00180775
-0.000300922
0.00200865
-0.0003361
0.00218906
-0.000367609
0.00235141
-0.000396059
0.00249783
-0.000421941
0.00263019
-0.000445651
0.00275013
-0.000467501
0.00285928
-0.000487735
0.00295888
-0.000506529
0.00304917
-0.000523986
0.00313003
-0.000540138
0.00320182
-0.000554934
0.00326469
-0.000568229
0.00331828
-0.000579773
0.00336202
-0.00058919
0.00339523
-0.000595965
0.0034173
-0.000599439
0.00342791
-0.000598813
0.00342725
-0.000593185
0.00341631
-0.000581609
0.00339706
-0.000563204
0.00337263
-0.000537308
0.00334723
-0.000503703
0.00332583
-0.000462911
-0.000418612
0.00331426
0.000392064
-3.72894e-05
0.00075163
-0.000106494
0.00107218
-0.000166754
0.00135832
-0.000218868
0.00161411
-0.000264314
0.0018431
-0.00030427
0.00204842
-0.000339672
0.00223281
-0.000371271
0.00239869
-0.000399668
0.00254817
-0.000425343
0.00268309
-0.000448675
0.00280506
-0.000469959
0.00291549
-0.000489411
0.0030154
-0.000507177
0.00310527
-0.000523329
0.00318533
-0.000537865
0.00325583
-0.000550704
0.00331689
-0.000561679
0.00336837
-0.000570531
0.00341002
-0.000576904
0.00344155
-0.000580345
0.00346286
-0.000580313
0.00347411
-0.000576206
0.00347597
-0.000567401
0.00346969
-0.000553323
0.00345725
-0.000533538
0.00344133
-0.000507872
0.00342517
-0.000476553
0.00341218
-0.000440356
-0.000402371
0.00340579
0.000398575
-3.75418e-05
0.000764363
-0.000107225
0.00109075
-0.000167913
0.00138233
-0.000220381
0.00164316
-0.00026609
0.00187679
-0.000306204
0.00208632
-0.000341649
0.00227449
-0.000373167
0.0024437
-0.000401345
0.00259603
-0.00042665
0.00273329
-0.000449445
0.00285704
-0.000470006
0.00296857
-0.000488528
0.00306887
-0.000505135
0.00315854
-0.000519878
0.00323798
-0.000532737
0.0033075
-0.000543619
0.0033673
-0.00055236
0.00341744
-0.000558723
0.00345794
-0.000562401
0.00348886
-0.000563029
0.00351045
-0.000560204
0.00352321
-0.00055351
0.00352802
-0.000542568
0.00352625
-0.000527089
0.00351968
-0.000506946
0.00351051
-0.000482255
0.00350116
-0.000453445
0.00349399
-0.000421314
-0.000388384
0.00349099
0.000404641
-3.76143e-05
0.000776274
-0.000107445
0.00110819
-0.000168274
0.00140495
-0.00022085
0.00167059
-0.000266605
0.00190864
-0.000306684
0.00212218
-0.000341996
0.00231393
-0.000373268
0.00248627
-0.000401073
0.00264126
-0.000425863
0.00278068
-0.000447986
0.00290605
-0.000467703
0.00301863
-0.000485193
0.00311939
-0.000500566
0.00320905
-0.000513861
0.00328813
-0.000525055
0.00335705
-0.000534061
0.00341611
-0.000540737
0.00346558
-0.000544884
0.00350569
-0.000546265
0.00353679
-0.000544611
0.00355933
-0.000539649
0.00357404
-0.000531131
0.00358191
-0.000518869
0.00358423
-0.000502778
0.00358256
-0.000482929
0.00357868
-0.000459585
0.00357437
-0.000433239
0.00357128
-0.000404616
-0.00037576
0.00357055
0.000410221
-3.7502e-05
0.000787283
-0.000107138
0.00112439
-0.000167817
0.00142604
-0.000220249
0.00169624
-0.000265832
0.00193848
-0.000305683
0.00215583
-0.00034069
0.00235097
-0.00037156
0.00252626
-0.000398852
0.00268375
-0.000423003
0.00282519
-0.000444348
0.0029521
-0.000463133
0.00306572
-0.00047953
0.00316706
-0.000493641
0.00325692
-0.000505505
0.00333592
-0.000515105
0.0034046
-0.000522375
0.0034634
-0.000527204
0.00351274
-0.000529446
0.00355306
-0.000528933
0.00358486
-0.000525495
0.00360877
-0.000518973
0.00362562
-0.000509252
0.0036364
-0.000496286
0.00364231
-0.00048013
0.00364468
-0.000460964
0.00364491
-0.000439116
0.00364435
-0.00041507
0.00364417
-0.000389447
-0.000363907
0.00364501
0.000415279
-3.72015e-05
0.000797326
-0.000106297
0.00113925
-0.000166526
0.0014455
-0.000218559
0.00171999
-0.000263751
0.0019662
-0.000303184
0.00218715
-0.000337719
0.0023855
-0.000368044
0.00256358
-0.000394699
0.00272344
-0.000418107
0.00286681
-0.000438592
0.00299522