/*--------------------------------*- C++ -*----------------------------------*\
  =========                 |
  \\      /  F ield         | OpenFOAM: The Open Source CFD Toolbox
   \\    /   O peration     | Website:  https://openfoam.org
    \\  /    A nd           | Version:  7
     \\/     M anipulation  |
\*---------------------------------------------------------------------------*/
FoamFile
{
    version     2.0;
    format      ascii;
    class       volScalarField;
    location    "0.2";
    object      p;
}
// * * * * * * * * * * * * * * * * * * * * * * * * * * * * * * * * * * * * * //

dimensions      [0 2 -2 0 0 0 0];

internalField   nonuniform List<scalar> 
2790
(
67.2327
66.9409
66.9971
67.3894
68.0055
68.7984
69.7623
70.8977
72.201
73.6661
75.2865
77.0551
78.9636
81.0017
83.1567
85.4132
87.7522
90.151
92.5825
95.0153
97.4136
99.7378
101.946
103.994
105.841
107.449
108.787
109.836
110.571
111.071
67.0379
66.8561
66.9367
67.326
67.9386
68.7286
69.6886
70.8187
72.1156
73.5737
75.1865
76.9471
78.8475
80.8775
83.025
85.2747
87.6084
90.0038
92.4347
94.8703
97.2755
99.6111
101.835
103.905
105.777
107.412
108.779
109.859
110.608
111.141
66.8525
66.7406
66.8401
67.2197
67.8201
68.5986
69.5451
70.6591
71.9375
73.3747
74.9646
76.7002
78.5737
80.5755
82.6937
84.9138
87.2184
89.5864
91.9928
94.4084
96.7999
99.1297
101.357
103.439
105.333
106.997
108.394
109.506
110.258
110.793
66.6466
66.5659
66.6782
67.0498
67.6367
68.4003
69.3291
70.4216
71.6747
73.083
74.6401
76.3395
78.1731
80.1318
82.2041
84.3764
86.632
88.9513
91.3112
93.6844
96.0398
98.3421
100.553
102.629
104.529
106.208
107.621
108.748
109.485
109.989
66.4107
66.3443
66.4656
66.8306
67.4024
68.1467
69.0521
70.1163
71.3362
72.7061
74.22
75.871
77.6513
79.5519
81.5617
83.6677
85.8546
88.104
90.3946
92.7017
94.9968
97.2473
99.4172
101.466
103.352
105.027
106.443
107.575
108.294
108.766
66.1405
66.0801
66.2044
66.5606
67.114
67.8343
68.7107
69.7404
70.9197
72.2431
73.7042
75.2959
77.0106
78.839
80.7706
82.7929
84.8914
87.0492
89.247
91.4622
93.6694
95.8395
97.9394
99.9323
101.777
103.428
104.831
105.964
106.681
107.15
65.8342
65.7751
65.8971
66.2415
66.7738
67.4662
68.3087
69.2979
70.4298
71.6986
73.0975
74.6194
76.2562
77.9987
79.8364
81.7573
83.7474
85.7912
87.8707
89.966
92.0542
94.1098
96.1041
98.0046
99.7742
101.373
102.745
103.877
104.609
105.119
65.4913
65.4304
65.5461
65.8755
66.3839
67.0446
67.8483
68.7914
69.8693
71.0757
72.4037
73.8455
75.3927
77.0359
78.7644
80.5661
82.4276
84.3339
86.2683
88.2125
90.1463
92.0476
93.8922
95.6536
97.3019
98.806
100.118
101.237
101.998
102.603
65.1122
65.0475
65.1536
65.4651
65.9465
66.5719
67.3324
68.2241
69.2418
70.3787
71.6274
72.9795
74.4261
75.9572
77.5615
79.2267
80.939
82.6837
84.4444
86.2036
87.9429
89.6428
91.2832
92.8443
94.3059
95.6508
96.8472
97.9154
98.6966
99.446
64.6977
64.6279
64.7217
65.0125
65.4642
66.051
66.7641
67.5995
68.5513
69.6122
70.774
72.0276
73.3632
74.7701
76.2361
77.7479
79.2911
80.85
82.4075
83.9458
85.4463
86.8902
88.2601
89.5412
90.7232
91.8068
92.7856
93.718
94.4633
95.3577
64.2492
64.1733
64.2527
64.5203
64.9396
65.4847
66.1469
66.9216
67.8025
68.7814
69.8494
70.9965
72.2119
73.4836
74.7982
76.1412
77.4962
78.8459
80.1712
81.4517
82.6663
83.7939
84.8151
85.7157
86.4909
87.1575
87.7419
88.3643
88.9435
89.9702
63.7683
63.6855
63.7489
63.9912
64.3756
64.8763
65.4843
66.1946
67.0001
67.892
68.8602
69.8939
70.9809
72.1079
73.2598
74.4199
75.5699
76.689
77.7548
78.7421
79.624
80.372
80.958
81.3586
81.5617
81.5857
81.483
81.4575
81.5767
82.7317
63.2569
63.1665
63.2126
63.4277
63.7753
64.2293
64.7803
65.4229
66.1493
66.9498
67.8134
68.728
69.68
70.6544
71.6341
72.6
73.5306
74.4013
75.1841
75.847
76.3535
76.6617
76.7256
76.4965
75.9303
75.009
73.7615
72.4413
71.344
72.3298
62.7171
62.6187
62.6463
62.8328
63.1419
63.5472
64.039
64.6113
65.2557
65.9614
66.7165
67.5076
68.3195
69.1355
69.936
70.6993
71.4
72.0088
72.4912
72.8061
72.9038
72.7236
72.1905
71.2118
69.6742
67.4524
64.4182
60.6461
56.4138
55.4365
62.1509
62.0442
62.0527
62.2094
62.4785
62.8336
63.2645
63.7645
64.3246
64.9332
65.5771
66.2417
66.9102
67.5639
68.181
68.7366
69.2014
69.5409
69.7132
69.667
69.3377
68.6414
67.4667
65.6602
63.0022
59.17
53.648
45.7123
33.932
21.8724
-93.7358
-94.3755
-95.6453
-97.563
-100.16
-103.337
-106.863
-110.356
-113.293
-115.057
-115.022
-112.674
-107.741
-100.235
-90.5295
-79.2937
-67.3469
-55.4963
-44.4011
-34.5032
-26.0257
-18.5593
-12.0479
-7.0236
-3.36082
-0.829948
0.763767
1.58237
1.75032
1.36815
-93.7309
-94.4156
-95.7688
-97.7744
-100.501
-103.84
-107.557
-111.255
-114.39
-116.321
-116.4
-114.103
-109.165
-101.605
-91.8118
-80.4685
-68.3999
-56.4178
-45.1879
-35.1599
-26.5613
-18.9678
-12.372
-7.30593
-3.59718
-1.02316
0.609216
1.4636
1.66693
1.35596
-94.128
-94.9572
-96.499
-98.7063
-101.68
-105.298
-109.32
-113.332
-116.762
-118.932
-119.158
-116.893
-111.883
-104.14
-94.0938
-82.4695
-70.1203
-57.8741
-46.4065
-36.1743
-27.3615
-19.5556
-12.8383
-7.69268
-3.91192
-1.27559
0.411091
1.31597
1.56969
1.34157
-95.0596
-96.0982
-97.883
-100.378
-103.706
-107.731
-112.2
-116.672
-120.533
-123.052
-123.49
-121.263
-116.112
-108.045
-97.5656
-85.4646
-72.6468
-59.9698
-48.1283
-37.5846
-28.423
-20.316
-13.4646
-8.20936
-4.3348
-1.61833
0.139456
1.11185
1.43357
1.30327
-96.636
-97.9118
-99.9628
-102.813
-106.591
-111.144
-116.202
-121.28
-125.709
-128.682
-129.384
-127.18
-121.802
-113.259
-102.162
-89.3933
-75.9277
-62.6647
-50.3214
-39.3493
-29.7174
-21.2406
-14.2348
-8.84395
-4.85403
-2.03941
-0.194035
0.86191
1.26771
1.24738
-98.9506
-100.442
-102.76
-106.016
-110.326
-115.523
-121.307
-127.142
-132.28
-135.815
-136.828
-134.61
-128.883
-119.697
-107.792
-94.1675
-79.8848
-65.8946
-52.9306
-41.3986
-31.1864
-22.3182
-15.1335
-9.58556
-5.4624
-2.53422
-0.586882
0.566753
1.07111
1.17097
-102
-103.639
-106.203
-109.897
-114.808
-120.751
-127.39
-134.125
-140.11
-144.309
-145.665
-143.378
-137.164
-127.165
-114.277
-99.6294
-84.3879
-69.5544
-55.8674
-43.614
-32.7583
-23.5441
-16.1442
-10.4194
-6.14886
-3.09451
-1.03298
0.230675
0.846516
1.07457
-105.607
-107.295
-110.084
-114.235
-119.8
-126.576
-134.187
-141.957
-148.919
-153.872
-155.591
-153.168
-146.322
-135.358
-121.345
-105.551
-89.2544
-73.4928
-58.9657
-45.8772
-34.4167
-24.8818
-17.2418
-11.3267
-6.89982
-3.71043
-1.52525
-0.141568
0.596706
0.958656
-109.372
-111.031
-114.039
-118.663
-124.924
-132.604
-141.282
-150.201
-158.258
-164.045
-166.121
-163.493
-155.875
-143.844
-128.638
-111.639
-94.2536
-77.5093
-62.0102
-48.1022
-36.1559
-26.2824
-18.3936
-12.2853
-7.69917
-4.37029
-2.05528
-0.544142
0.325249
0.824573
-112.68
-114.323
-117.579
-122.695
-129.68
-138.307
-148.112
-158.256
-167.49
-174.156
-176.561
-173.681
-165.185
-152.076
-135.734
-117.566
-99.1075
-81.3134
-64.8598
-50.2903
-37.8851
-27.6875
-19.5619
-13.2692
-8.52858
-5.06082
-2.61345
-0.970338
0.0363004
0.674301
-114.964
-116.634
-120.173
-125.786
-133.497
-143.07
-154.005
-165.384
-175.808
-183.327
-186.001
-182.88
-173.536
-159.475
-142.159
-123.005
-103.456
-84.6832
-67.4473
-52.3116
-39.5117
-29.0364
-20.7064
-14.2506
-9.3681
-5.76747
-3.18915
-1.41265
-0.265433
0.510473
-115.825
-117.508
-121.341
-127.431
-135.827
-146.265
-158.222
-170.703
-182.159
-190.357
-193.22
-190.089
-180.312
-165.596
-147.432
-127.431
-106.98
-87.4106
-69.5867
-54.0336
-40.9463
-30.2691
-21.786
-15.2007
-10.1968
-6.47472
-3.77089
-1.86284
-0.574703
0.336343
-114.905
-116.616
-120.81
-127.382
-136.381
-147.555
-160.34
-173.692
-185.955
-194.736
-197.832
-194.75
-184.863
-169.692
-150.946
-130.3
-109.296
-89.2676
-71.1145
-55.3411
-42.1095
-31.3306
-22.7621
-16.0915
-10.9938
-7.16672
-4.34669
-2.31218
-0.885781
0.155763
-111.869
-113.81
-118.513
-125.584
-135.125
-146.884
-160.263
-174.186
-186.924
-196.073
-199.294
-196.079
-186.172
-170.98
-152.131
-131.33
-110.201
-90.09
-71.9089
-56.1459
-42.9385
-32.1758
-23.6019
-16.8981
-11.7399
-7.82867
-4.90528
-2.75241
-1.19325
-0.0273893
-106.548
-109.5
-114.796
-122.28
-132.286
-144.465
-158.13
-172.175
-184.86
-193.895
-197.104
-193.893
-184.265
-169.432
-150.916
-130.422
-109.6
-89.7929
-71.9016
-56.3948
-43.3921
-32.7728
-24.2797
-17.6001
-12.4189
-8.4479
-5.43721
-3.17692
-1.49311
-0.210313
61.5495
61.4342
61.4225
61.548
61.7754
62.0783
62.446
62.8711
63.3441
63.8523
64.3815
64.9158
65.4369
65.924
66.3529
66.6957
66.9192
66.9835
66.8396
66.4257
65.6621
64.4419
62.6163
59.9681
56.1593
50.626
42.2942
28.8712
2.68755
-69.3323
60.9058
60.7815
60.7487
60.8415
61.0253
61.2737
61.5755
61.923
62.3056
62.7099
63.1209
63.5211
63.8909
64.2074
64.4444
64.571
64.5504
64.338
63.8784
63.1011
61.9142
60.1931
57.7628
54.365
49.5972
42.7913
32.7415
17.4076
-5.0146
-37.4522
60.2249
60.0914
60.0367
60.0956
60.2345
60.4268
60.661
60.9289
61.2191
61.5177
61.8084
62.073
62.2901
62.4356
62.4809
62.3931
62.1326
61.651
60.8885
59.7693
58.195
56.0343
53.1069
49.1594
43.8284
36.6027
26.813
13.7619
-1.96127
-19.9546
59.508
59.3652
59.2881
59.3124
59.4052
59.5404
59.706
59.8931
60.09
60.2821
60.4523
60.5814
60.6471
60.6237
60.4815
60.1859
59.6956
58.9601
57.918
56.4923
54.585
52.0698
48.782
44.507
38.9715
31.8508
22.8098
11.4845
-2.2697
-18.9507
58.7568
58.6046
58.5049
58.494
58.5403
58.6178
58.7142
58.8203
58.9241
59.0102
59.0611
59.0568
58.9745
58.7876
58.4655
57.9731
57.2686
56.3016
55.0114
53.324
51.1479
48.3701
44.8508
40.4204
34.8789
28.0016
19.5512
9.23897
-3.19615
-17.5928
57.9733
57.8119
57.6895
57.6433
57.6429
57.6627
57.6902
57.7159
57.7275
57.7094
57.6437
57.5101
57.2854
56.9427
56.4517
55.7774
54.8788
53.7074
52.2059
50.3063
47.9274
44.973
41.3298
36.8675
31.4408
24.8937
17.0735
7.84378
-2.85912
-14.644
57.16
56.9896
56.8447
56.7634
56.7167
56.6793
56.6388
56.5856
56.5071
56.3878
56.2097
55.9524
55.5929
55.1049
54.4586
53.6203
52.5509
51.2053
49.5316
47.4698
44.9509
41.8962
38.2181
33.8211
28.6061
22.4782
15.361
7.21594
-1.95157
-11.8326
56.3199
56.1407
55.9738
55.8579
55.7656
55.6723
55.5654
55.4355
55.27
55.0537
54.7687
54.3951
53.9103
53.2892
52.5033
51.5208
50.3059
48.8178
47.0111
44.8349
42.2327
39.1435
35.5024
31.2438
26.3059
20.6377
14.2083
7.01766
-0.911132
-9.3284
55.4563
55.2688
55.0805
54.9309
54.7943
54.6466
54.4757
54.2721
54.0238
53.7157
53.3306
52.8492
52.2501
51.5096
50.6012
49.4957
48.161
46.5618
44.6595
42.4125
39.7766
36.7064
33.1567
29.0855
24.458
19.2514
13.4609
7.10618
0.225026
-6.97212
54.573
54.3776
54.1687
53.9867
53.8074
53.6077
53.3757
53.1023
52.7759
52.3822
51.9047
51.3253
50.6239
49.7786
48.7655
47.5584
46.1296
44.4491
42.4854
40.2057
37.5772
34.5677
31.1479
27.2936
22.9889
18.2293
13.026
7.40967
1.42488
-4.75792
53.674
53.4714
53.2431
53.0301
52.8102
52.5611
52.2715
51.9327
51.5339
51.0616
50.5003
49.8333
49.0422
48.1072
47.0072
45.7196
44.2208
42.4863
40.4914
38.2115
35.623
32.7052
29.4408
25.8187
21.8357
17.4992
12.829
7.85965
2.63586
-2.7071
52.7639
52.5547
52.3082
52.0661
51.808
51.5127
51.1695
50.7704
50.3053
49.7618
49.1258
48.382
47.5141
46.5045
45.335
43.9867
42.4401
40.6761
38.6758
36.4217
33.8985
31.0938
27.9998
24.6144
20.9429
16.9992
12.8071
8.40109
3.82275
-0.820776
51.8475
51.6325
51.3692
51.1001
50.8065
50.4685
50.076
49.6219
49.0971
48.4904
47.789
46.9795
46.0474
44.9778
43.7553
42.3645
40.79
39.0173
37.0329
34.8252
32.3853
29.7076
26.7908
23.6389
20.2624
16.6784
12.9118
8.99481
4.96488
0.906684
50.93
50.7099
50.4315
50.1375
49.8114
49.4345
48.9974
48.4941
47.9163
47.2544
46.497
45.6324
44.6485
43.5326
42.2723
40.8553
39.2701
37.5061
35.5546
33.4087
31.0643
28.521
25.7818
22.8549
19.7533
16.4954
13.1053
9.61222
6.04889
2.48221
50.0169
49.7926
49.5005
49.1842
48.8287
48.4167
47.94
47.3931
46.7693
46.0601
45.2558
44.3466
43.3224
42.1729
40.8883
39.4594
37.8779
36.1368
34.231
32.1575
29.916
27.5094
24.9439
22.2298
19.3813
16.4167
13.3584
10.2323
7.06647
3.91392
49.1137
48.8861
48.5822
48.2458
47.8642
47.4212
46.9097
46.3251
45.6621
44.9133
44.071
43.1269
42.0729
40.9011
39.6041
38.1753
36.6093
34.9019
33.0511
31.0568
28.9215
26.6502
24.2511
21.7355
19.1178
16.4153
13.6484
10.8397
8.01308
5.21052
48.2265
47.9963
47.6822
47.3285
46.9239
46.454
45.9125
45.2959
44.6001
43.8192
42.9469
41.9768
40.9026
39.7184
38.4191
37.0003
35.4589
33.7934
32.0037
30.0922
28.0629
25.9227
23.6805
21.348
18.939
16.4697
13.9581
11.4237
8.88681
6.38081
47.3614
47.1293
46.8068
46.438
46.0138
45.5209
44.954
44.3109
43.5884
42.7823
41.8875
40.8993
39.8132
38.6251
37.3317
35.9307
34.4209
32.8025
31.0775
29.2495
27.324
25.3084
23.2123
21.047
18.8255
16.5626
14.2741
11.9767
9.68754
7.43333
46.5244
46.2913
45.9619
45.5805
45.1396
44.6275
44.0397
43.3751
42.6318
41.8065
40.8959
39.8966
38.8056
37.6205
36.3397
34.9623
33.4888
31.9208
30.2616
28.5158
26.6897
24.7911
22.8295
20.8156
18.7616
16.6806
14.5865
12.4936
10.4164
8.37622
45.722
45.4885
45.1537
44.7619
44.3073
43.7794
43.1749
42.4934
41.7342
40.8954
39.9747
38.9701
37.8801
36.7036
35.4402
34.0905
32.6562
31.14
29.5459
27.8794
26.147
24.3567
22.5176
20.6398
18.7344
16.8131
14.8879
12.9713
11.0752
9.21715
44.9606
44.7274
44.3885
43.9884
43.5226
42.9821
42.3645
41.6703
40.8997
40.052
39.1261
38.1211
37.0367
35.8728
34.6303
33.3109
31.9169
30.4521
28.9211
27.3295
25.6842
23.993
22.2644
20.508
18.7336
16.9517
15.1729
13.4077
11.6665
9.96313
44.2468
44.0143
43.6725
43.2657
42.7912
42.2409
41.6133
40.91
40.1319
39.2793
38.3521
37.3504
36.2749
35.1266
33.9071
32.6189
31.2653
29.8503
28.3789
26.857
25.2915
23.6897
22.0599
20.4107
18.7511
17.0903
15.4377
13.8022
12.1927
10.6207
43.5874
43.3559
43.012
42.6001
42.1187
41.5609
40.9262
40.2167
39.4342
38.5798
37.6543
36.6587
35.5944
34.4633
33.2677
32.0107
30.6959
29.3279
27.9119
26.4538
24.9602
23.4383
21.8956
20.3402
18.7803
17.2239
15.6793
14.1543
12.6565
11.1953
42.9891
42.7588
42.4135
41.9974
41.5106
40.9474
40.3078
39.5944
38.81
37.9562
37.0346
36.0469
34.9952
33.8819
32.7099
31.4828
30.2046
28.88
27.5143
26.1134
24.6836
23.2318
21.7652
20.2909
18.8164
17.3492
15.8963
14.4646
13.0607
11.6924
42.4593
42.23
41.8833
41.4637
40.9726
40.4054
39.7624
39.047
38.2623
37.4106
36.4942
35.5152
34.4764
33.3806
32.2311
31.0318
29.7869
28.5012
27.1802
25.8295
24.4553
23.064
21.6623
20.2571
18.8549
17.4626
16.0864
14.7325
13.4065
12.1151
42.0055
41.7768
41.4281
41.005
40.5105
39.9405
39.2957
38.5796
37.7958
36.9473
36.0367
35.0667
34.0403
32.9607
31.8317
30.6572
29.4416
28.1899
26.9073
25.5994
24.2723
22.9319
21.5846
20.2367
18.8944
17.5638
16.2505
14.9602
13.698
12.4693
41.6362
41.4068
41.054
40.6261
40.1281
39.5557
38.9095
38.1932
37.4109
36.5658
35.661
34.6994
33.6842
32.6191
31.5078
30.3545
29.1638
27.9404
26.6897
25.4171
24.1283
22.8292
21.5257
20.2238
18.9292
17.6476
16.3843
15.1441
13.9319
12.7522
41.3616
41.1288
40.7696
40.3374
39.837
39.2631
38.6159
37.8997
37.1187
36.2767
35.3767
34.422
33.4161
32.3627
31.2657
30.1293
28.9582
27.7572
26.5313
25.2861
24.0269
22.7596
21.4897
20.2228
18.9645
17.72
16.4943
15.292
14.1174
12.9749
41.1942
40.9402
40.5659
40.1298
39.629
39.0545
38.4071
37.6915
36.9124
36.0733
35.1775
34.2284
33.2296
32.1849
31.0982
29.974
28.8167
27.6311
26.4225
25.196
23.957
22.7112
21.4639
20.2205
18.9865
17.7668
16.5661
15.389
14.2393
13.1209
41.1964
40.8762
40.4744
40.0332
39.5309
38.9543
38.3052
37.589
36.8103
35.9727
35.0794
34.1337
33.1394
32.1002
31.0202
29.9035
28.7547
27.5786
26.3802
25.1646
23.9372
22.7033
21.4684
20.2378
19.0167
17.8099
16.6222
15.4577
14.3206
13.2141
-173.519
-153.506
-123.76
-60.1516
-65.6218
-70.8597
-38.8216
-51.574
-61.9523
-37.4273
-49.5349
-58.5987
-32.0268
-41.7953
-49.7472
-26.2013
-34.3584
-41.3309
-21.5363
-28.4315
-34.3448
-17.5067
-23.2907
-28.2232
-13.8656
-18.7229
-22.8437
-10.6023
-14.7061
-18.1726
-7.69402
-11.183
-14.1214
-5.10211
-8.08703
-10.5979
-2.79198
-5.36253
-7.52508
-0.73355
-2.96201
-4.83892
1.09996
-0.84487
-2.48597
2.73211
1.02333
-0.422066
4.18346
2.67179
1.38958
5.47201
4.12537
2.97976
6.61349
5.40531
4.37439
7.6217
6.52983
5.59537
8.50856
7.51443
6.66117
9.28462
8.37251
7.58752
9.95849
9.11497
8.38724
10.5384
9.75193
9.07184
11.0291
10.2895
9.64874
11.4386
10.7369
10.1278
11.7643
11.0923
10.5084
12.02
11.37
10.8042
12.187
11.5522
10.9996
12.2952
11.6707
11.1243
-98.0925
-105.075
-110.633
-118.123
-128.422
-140.768
-154.319
-167.981
-180.112
-188.674
-191.765
-188.632
-179.429
-165.195
-147.351
-127.569
-107.468
-88.3453
-71.0636
-56.0632
-43.4505
-33.1058
-24.7837
-18.1887
-13.0246
-9.0201
-5.93963
-3.58387
-1.78419
-0.391499
-83.3074
-96.2863
-104.578
-113.51
-124.297
-136.492
-149.456
-162.236
-173.395
-181.205
-183.986
-180.815
-171.958
-158.394
-141.467
-122.755
-103.768
-85.7047
-69.3518
-55.1104
-43.0766
-33.1422
-25.0858
-18.6406
-13.5379
-9.53039
-6.4012
-3.96487
-2.06077
-0.566255
-77.0676
-91.2095
-100.355
-109.579
-120.304
-132.042
-144.115
-155.686
-165.559
-172.263
-174.311
-170.752
-162.071
-149.229
-133.454
-116.15
-98.6421
-81.9733
-66.8316
-53.5707
-42.2816
-32.878
-25.1736
-18.9396
-13.9424
-9.96396
-6.80971
-4.31078
-2.31693
-0.730874
-70.6877
-84.1834
-94.9735
-105.107
-115.671
-126.66
-137.628
-147.824
-156.179
-161.335
-162.149
-158.087
-149.712
-137.859
-123.575
-108.031
-92.3265
-77.3297
-63.6219
-51.5136
-41.0993
-32.3238
-25.0442
-19.0763
-14.2266
-10.3093
-7.15521
-4.61377
-2.54714
-0.881653
-60.5788
-73.38
-85.4565
-96.7978
-107.66
-118.174
-128.125
-136.924
-143.649
-147.157
-146.847
-142.719
-135.148
-124.739
-112.325
-98.8462
-85.1799
-72.0329
-59.8941
-49.0429
-39.5859
-31.5052
-24.7051
-19.0487
-14.3838
-10.5587
-7.43037
-4.86789
-2.74716
-1.01593
-50.5774
-61.8942
-73.8023
-85.3164
-96.0256
-105.936
-114.888
-122.4
-127.725
-130.15
-129.475
-125.861
-119.515
-110.853
-100.51
-89.213
-77.6493
-66.3893
-55.8471
-46.2802
-37.8107
-30.458
-24.1718
-18.8605
-14.412
-10.7076
-7.63026
-5.06875
-2.91367
-1.13174
-41.8966
-51.3699
-62.0905
-72.7716
-82.6622
-91.6309
-99.5233
-105.955
-110.381
-112.376
-111.907
-109.113
-104.129
-97.2437
-88.9237
-79.7143
-70.1471
-60.6802
-51.6656
-43.342
-35.844
-29.2221
-23.4651
-18.5211
-14.3139
-10.7553
-7.75253
-5.21381
-3.04453
-1.22786
-34.3721
-42.1624
-51.36
-60.7376
-69.459
-77.3187
-84.1751
-89.7391
-93.6322
-95.5723
-95.5357
-93.6116
-89.9062
-84.6278
-78.1093
-70.7524
-62.9644
-55.1117
-47.4923
-40.3246
-33.7487
-27.8371
-22.6087
-18.0435
-14.0958
-10.7039
-7.79732
-5.30223
-3.13872
-1.30376
-27.9119
-34.3338
-42.064
-50.0674
-57.5632
-64.3286
-70.2431
-75.0954
-78.6253
-80.6199
-81.0266
-79.8774
-77.2597
-73.3282
-68.319
-62.5256
-56.2576
-49.8064
-43.4219
-37.2994
-31.5772
-26.3399
-21.6273
-17.4436
-13.7672
-10.5586
-7.76703
-5.33489
-3.19629
-1.35956
-22.4088
-27.7571
-34.2272
-40.9867
-47.3629
-53.1479
-58.244
-62.4963
-65.7198
-67.7478
-68.5128
-67.9862
-66.2383
-63.3859
-59.5973
-55.0854
-50.0844
-44.8243
-39.5117
-34.3176
-29.372
-24.7641
-20.546
-16.7389
-13.3397
-10.3268
-7.66596
-5.31408
-3.21827
-1.39585
-17.7068
-22.216
-27.6573
-33.3686
-38.7903
-43.7418
-48.1457
-51.8868
-54.8277
-56.8513
-57.849
-57.7884
-56.712
-54.7038
-51.8838
-48.4065
-44.4478
-40.1878
-35.7949
-31.4156
-27.1681
-23.1398
-19.3891
-15.9481
-12.8267
-10.0176
-7.5
-5.24334
-3.2065
-1.41367
-13.6658
-17.513
-22.1283
-26.9823
-31.6145
-35.8737
-39.6994
-43.0042
-45.682
-47.6383
-48.784
-49.0617
-48.4931
-47.1376
-45.0802
-42.4325
-39.3258
-35.8997
-32.2901
-28.6201
-24.994
-21.4941
-18.18
-15.0897
-12.2425
-9.64128
-7.27619
-5.12717
-3.16355
-1.41441
-10.1756
-13.4934
-17.4454
-21.6037
-25.5892
-29.2774
-32.6216
-35.5544
-37.992
-39.8584
-41.078
-41.5908
-41.4002
-40.5452
-39.0853
-37.1001
-34.687
-31.9532
-29.0071
-25.9504
-22.8734
-19.8508
-16.9402
-14.1822
-11.6016
-9.20889
-7.00242
-4.97084
-3.0925
-1.39971
-7.14876
-10.0378
-13.4534
-17.046
-20.5022
-23.7197
-26.6625
-29.2784
-31.5001
-33.2654
-34.5106
-35.1819
-35.2698
-34.7971
-33.8039
-32.3466
-30.4967
-28.3358
-25.9493
-23.4203
-20.8253
-18.2305
-15.6895
-13.243
-10.9186
-8.73175
-6.68707
-4.78012
-2.99685
-1.3714
-4.51521
-7.05303
-10.0315
-13.1622
-16.1837
-19.0121
-21.6196
-23.9654
-25.9951
-27.6569
-28.898
-29.6724
-29.9631
-29.7807
-29.1513
-28.1139
-26.7205
-25.0324
-23.1162
-21.039
-18.8647
-16.6507
-14.4457
-12.2884
-10.2074
-8.22117
-6.33876
-4.56108
-2.88039
-1.33147
-2.21842
-4.46606
-7.08559
-9.83666
-12.4998
-15.0051
-17.3317
-19.4473
-21.3075
-22.8688
-24.0881
-24.9265
-25.363
-25.4
-25.0533
-24.3493
-23.325
-22.0261
-20.5039
-18.8121
-17.0032
-15.1262
-13.2242
-11.3331
-9.48114
-7.68809
-5.96606
-4.31993
-2.74706
-1.28193
-0.212306
-2.21836
-4.54122
-6.97865
-9.34462
-11.5809
-13.6713
-15.5904
-17.3016
-18.7684
-19.9552
-20.8308
-21.3704
-21.5722
-21.4447
-21.005
-20.2787
-19.2995
-18.1067
-16.7423
-15.2493
-13.6688
-12.0383
-10.3905
-8.75196
-7.14293
-5.5773
-4.06281
-2.60082
-1.22485
1.5411
-0.262619
-2.33887
-4.51585
-6.63447
-8.64561
-10.537
-12.2883
-13.8692
-15.2489
-16.4
-17.2915
-17.9024
-18.2273
-18.2694
-18.0387
-17.5527
-16.8357
-15.9172
-14.8301
-13.6091
-12.2881
-10.8995
-9.47226
-8.03095
-6.59543
-5.18045
-3.79571
-2.4456
-1.16222
3.07326
1.4398
-0.430513
-2.39029
-4.30221
-6.12445
-7.8477
-9.45559
-10.9229
-12.2235
-13.3339
-14.2294
-14.8892
-15.3056
-15.4784
-15.4129
-15.1203
-14.6178
-13.9274
-13.0745
-12.0865
-10.9917
-9.81729
-8.58859
-7.32805
-6.05453
-4.78298
-3.52433
-2.28523
-1.09596
4.41043
2.92071
1.22293
-0.555149
-2.29383
-3.95716
-5.53807
-7.02335
-8.39186
-9.62125
-10.6915
-11.5818
-12.2734
-12.7571
-13.0303
-13.0949
-12.9577
-12.6304
-12.1291
-11.4731
-10.6843
-9.78543
-8.79947
-7.74833
-6.65209
-5.52836
-4.39181
-3.25405
-2.12331
-1.02791
5.57449
4.20631
2.65337
1.02756
-0.565703
-2.09519
-3.55553
-4.93604
-6.21881
-7.38465
-8.41614
-9.29563
-10.0067
-10.5395
-10.8895
-11.0564
-11.0437
-10.8591
-10.5141
-10.0233
-9.40366
-8.67375
-7.8526
-6.95904
-6.01085
-5.02423
-4.01328
-2.98987
-1.96326
-0.959769
6.58385
5.31841
3.88706
2.38886
0.917644
-0.499152
-1.85748
-3.14862
-4.35729
-5.46685
-6.46202
-7.3277
-8.04956
-8.61743
-9.02588
-9.27291
-9.35972
-9.29099
-9.07469
-8.72171
-8.24522
-7.66007
-6.98204
-6.22718
-5.41116
-4.5487
-3.65318
-2.73638
-1.80828
-0.893114
7.45354
6.27469
4.94516
3.55366
2.18463
0.862455
-0.409836
-1.62507
-2.77007
-3.83026
-4.79213
-5.64265
-6.36922
-6.96182
-7.41442
-7.72393
-7.88992
-7.91485
-7.80405
-7.56545
-7.2092
-6.74715
-6.19233
-5.55839
-4.85906
-4.10766
-3.31674
-2.49785
-1.6613
-0.829395
8.1966
7.09026
5.84553
4.54274
3.25876
2.01555
0.815344
-0.335904
-1.42669
-2.44411
-3.37613
-4.21133
-4.93864
-5.54829
-6.034
-6.39198
-6.62066
-6.72087
-6.69596
-6.55159
-6.29551
-5.93717
-5.48731
-4.95754
-4.35989
-3.70639
-3.00875
-2.27815
-1.52506
-0.769947
8.82208
7.77582
6.60095
5.37116
4.15723
2.97923
1.83875
0.740813
-0.304417
-1.28538
-2.19118
-3.01172
-3.73738
-4.35842
-4.86862
-5.26381
-5.54161
-5.7017
-5.74594
-5.67827
-5.50458
-5.23239
-4.87061
-4.42915
-3.91856
-3.34973
-2.73357
-2.08086
-1.40205
-0.715948
9.34014
8.34261
7.22428
6.05344
4.89613
3.77091
2.67894
1.62445
0.616592
-0.334177
-1.21795
-2.02565
-2.74773
-3.37612
-3.90438
-4.32792
-4.64384
-4.851
-4.95016
-4.944
-4.83695
-4.63505
-4.34574
-3.97753
-3.53978
-3.04238
-2.49552
-1.90955
-1.29485
-0.668682
9.75229
8.79324
7.71924
6.59466
5.48184
4.39819
3.34451
2.32449
1.34646
0.420079
-0.44547
-1.24168
-1.96011
-2.59296
-3.13395
-3.57833
-3.92286
-4.16583
-4.30726
-4.34886
-4.29399
-4.14759
-3.91592
-3.60642
-3.22746
-2.78811
-2.29792
-1.76685
-1.20515
-0.628769
10.0701
9.1393
8.09808
7.00761
5.92758
4.87457
3.84917
2.85464
1.89874
0.990536
0.138678
-0.648801
-1.36417
-2.00008
-2.55032
-3.01003
-3.3757
-3.64525
-3.81814
-3.89542
-3.87972
-3.77513
-3.58708
-3.3222
-2.9881
-2.5932
-2.14654
-1.65768
-1.1367
-0.598243
10.282
9.36983
8.35051
7.28326
6.22554
5.19332
4.18711
3.20996
2.26926
1.37371
0.531662
-0.248929
-0.960768
-1.59734
-2.15265
-2.62175
-3.00094
-3.28789
-3.4817
-3.58297
-3.59379
-3.51768
-3.35951
-3.12532
-2.82218
-2.45803
-2.04149
-1.58177
-1.08869
-0.575699
10.4101
9.50236
8.49304
7.43735
6.39038
5.36789
4.37058
3.40144
2.46762
1.57752
0.739133
-0.0401818
-0.753016
-1.39209
-1.95153
-2.42662
-2.81371
-3.11041
-3.31564
-3.42979
-3.45469
-3.39355
-3.25092
-3.03254
-2.7452
-2.39655
-1.99495
-1.54929
-1.06877
-0.564175
)
;

boundaryField
{
    inlet
    {
        type            zeroGradient;
    }
    outlet
    {
        type            fixedValue;
        value           uniform 0;
    }
    flap
    {
        type            zeroGradient;
    }
    upperWall
    {
        type            zeroGradient;
    }
    lowerWall
    {
        type            zeroGradient;
    }
    frontAndBack
    {
        type            empty;
    }
}


// ************************************************************************* //
