/*--------------------------------*- C++ -*----------------------------------*\
  =========                 |
  \\      /  F ield         | OpenFOAM: The Open Source CFD Toolbox
   \\    /   O peration     | Website:  https://openfoam.org
    \\  /    A nd           | Version:  7
     \\/     M anipulation  |
\*---------------------------------------------------------------------------*/
FoamFile
{
    version     2.0;
    format      ascii;
    class       surfaceScalarField;
    location    "0.2";
    object      phi;
}
// * * * * * * * * * * * * * * * * * * * * * * * * * * * * * * * * * * * * * //

dimensions      [0 3 -1 0 0 0 0];

internalField   nonuniform List<scalar> 
5457
(
0.198122
0.00156158
0.195962
0.00187564
0.193529
0.00218806
0.190773
0.00254662
0.187689
0.00290705
0.184276
0.00326458
0.180528
0.003626
0.176435
0.00399623
0.171983
0.00437709
0.16716
0.00476867
0.161956
0.00517017
0.15636
0.00558034
0.150364
0.00599765
0.143963
0.00642044
0.137151
0.00684683
0.129928
0.00727453
0.122295
0.00770045
0.114258
0.0081202
0.105829
0.00852766
0.0970277
0.00891456
0.087885
0.0092703
0.0784433
0.00958219
0.0687582
0.00983621
0.0588978
0.0100186
0.0489393
0.0101181
0.0389626
0.0101301
0.0290302
0.0100686
0.0192664
0.0098674
0.00940421
0.00990822
0.00949372
0.199655
0.00158918
0.198693
0.00255401
0.197345
0.00329091
0.195643
0.00403922
0.193576
0.00479617
0.191137
0.00555578
0.188312
0.00632852
0.185086
0.00712427
0.18144
0.00794778
0.177354
0.00880009
0.172809
0.00968004
0.167788
0.010585
0.162275
0.0115117
0.156257
0.0124559
0.149724
0.0134131
0.14267
0.0143779
0.135092
0.0153434
0.126992
0.0163004
0.118378
0.0172367
0.109265
0.0181362
0.0996792
0.0189788
0.0896556
0.0197404
0.0792411
0.0203951
0.0684932
0.0209171
0.0574765
0.0212862
0.0462567
0.0214941
0.0348867
0.0215647
0.0233715
0.0214747
0.0116655
0.0216487
0.0212207
0.199507
0.00176486
0.198602
0.00317457
0.197321
0.00432724
0.195709
0.00544092
0.193767
0.00656012
0.191484
0.00768934
0.188848
0.00884185
0.185842
0.0100317
0.182446
0.0112676
0.178638
0.0125525
0.174395
0.0138863
0.169695
0.015266
0.164518
0.0166872
0.158844
0.0181445
0.152656
0.0196313
0.145939
0.0211402
0.138681
0.0226616
0.130872
0.0241832
0.122508
0.0256886
0.113589
0.0271563
0.104121
0.028559
0.0941204
0.0298642
0.0836116
0.0310352
0.0726298
0.032035
0.0612199
0.0328318
0.0494356
0.0334061
0.0373303
0.0337787
0.0249635
0.0339161
0.0124345
0.0341968
0.0337004
0.199428
0.00201951
0.19852
0.00379736
0.197257
0.00534527
0.195667
0.00682024
0.193757
0.00829077
0.19152
0.0097766
0.188943
0.0112951
0.186011
0.0128638
0.182706
0.0144945
0.179007
0.016193
0.174895
0.0179602
0.170346
0.0197935
0.165339
0.0216886
0.159855
0.0236394
0.153873
0.025639
0.147373
0.0276792
0.140338
0.0297499
0.132749
0.0318377
0.12459
0.0339249
0.115847
0.0359874
0.10651
0.0379943
0.0965743
0.0399069
0.0860421
0.0416801
0.0749283
0.0432645
0.0632625
0.0446114
0.0510967
0.0456773
0.03851
0.046453
0.0256332
0.0468499
0.0126968
0.0471419
0.0464324
0.19939
0.00231154
0.198473
0.0044296
0.197225
0.00634645
0.19566
0.00817382
0.193784
0.00998669
0.191591
0.0118185
0.189069
0.0136922
0.186202
0.0156285
0.182974
0.0176423
0.179366
0.0197413
0.175356
0.0219278
0.170924
0.0242001
0.16605
0.0265538
0.160711
0.0289833
0.154887
0.0314822
0.148555
0.0340429
0.141692
0.0366565
0.134274
0.0393109
0.126274
0.0419892
0.117666
0.0446681
0.108425
0.0473157
0.0985281
0.0498902
0.0879586
0.0523389
0.0767145
0.0545985
0.064816
0.0565968
0.0523211
0.0582512
0.0393422
0.0594963
0.0260723
0.0601608
0.0128459
0.0603744
0.0593103
0.199373
0.00261995
0.198452
0.00506476
0.197224
0.0073271
0.195692
0.00949389
0.193859
0.011639
0.191719
0.0138056
0.189261
0.0160231
0.18647
0.0183153
0.18333
0.0206997
0.179821
0.0231863
0.175925
0.0257786
0.17162
0.0284757
0.166885
0.0312741
0.161698
0.034169
0.156037
0.0371553
0.149876
0.0402274
0.143186
0.0433789
0.135938
0.046601
0.128097
0.0498804
0.119624
0.0531969
0.110478
0.0565208
0.100622
0.0598093
0.0900194
0.0630036
0.0786532
0.0660252
0.0665336
0.0687724
0.0537227
0.0711111
0.0403591
0.0728989
0.0266816
0.0738642
0.0130937
0.0739705
0.0724359
0.199368
0.0029329
0.198452
0.0056944
0.197248
0.00828275
0.195755
0.0107739
0.193972
0.0132391
0.191895
0.015728
0.189513
0.018276
0.186811
0.0209104
0.183774
0.0236513
0.180383
0.0265105
0.176618
0.0294932
0.172461
0.0325993
0.167888
0.0358267
0.162877
0.0391718
0.157404
0.0426318
0.151441
0.0462042
0.144955
0.0498866
0.137909
0.0536752
0.13026
0.0575628
0.121959
0.0615351
0.112951
0.0655673
0.103178
0.069619
0.0925879
0.0736279
0.0811415
0.0775007
0.0688325
0.0811041
0.0557138
0.084246
0.0419317
0.0866921
0.0277477
0.0880575
0.013603
0.0881254
0.0860703
0.19937
0.00324306
0.198466
0.006311
0.197292
0.00920823
0.195843
0.0120077
0.194119
0.0147789
0.192115
0.0175759
0.18982
0.0204395
0.187221
0.0234004
0.184302
0.0264812
0.181046
0.0296958
0.177434
0.0330506
0.173446
0.0365472
0.169062
0.0401844
0.164257
0.0439611
0.159007
0.0478771
0.15328
0.0519339
0.147042
0.0561347
0.140249
0.0604824
0.132852
0.0649779
0.124789
0.0696158
0.115993
0.0743801
0.106388
0.0792371
0.0958963
0.0841255
0.0844519
0.0889432
0.0720165
0.0935288
0.0586105
0.0976344
0.0443562
0.100927
0.0295057
0.102896
0.0145067
0.103131
0.100598
0.199377
0.00354557
0.198492
0.0069083
0.197351
0.0100981
0.195954
0.0131891
0.194296
0.0162506
0.192374
0.01934
0.190177
0.0225024
0.187693
0.0257722
0.184907
0.0291743
0.181803
0.0327243
0.178364
0.0364304
0.174571
0.0402953
0.170402
0.0443198
0.165836
0.0485047
0.160845
0.0528534
0.1554
0.0573723
0.149462
0.0620709
0.142985
0.0669604
0.135913
0.072052
0.128177
0.0773522
0.119696
0.0828581
0.110375
0.0885487
0.100109
0.0943726
0.0887932
0.10023
0.0763362
0.105945
0.0626919
0.11123
0.04791
0.115659
0.0321834
0.118587
0.0159277
0.119383
0.116543
0.199387
0.00383691
0.198526
0.00748113
0.197425
0.0109472
0.196084
0.0143124
0.1945
0.0176471
0.192667
0.0210116
0.190578
0.0244546
0.188222
0.0280137
0.185583
0.0317163
0.182649
0.0355796
0.179402
0.039613
0.175825
0.0438209
0.1719
0.0482055
0.167604
0.0527704
0.162912
0.0575224
0.157794
0.0624731
0.152213
0.0676392
0.146121
0.0730412
0.139459
0.0787021
0.132153
0.0846435
0.124111
0.0908801
0.11522
0.0974114
0.105347
0.104208
0.0943362
0.11119
0.0820214
0.118197
0.0682458
0.124933
0.0529159
0.130915
0.0360805
0.135363
0.0180828
0.137365
0.134606
0.199401
0.00411445
0.198566
0.00802526
0.19751
0.0117508
0.196231
0.0153722
0.194727
0.018962
0.192992
0.0225827
0.191021
0.0262866
0.188802
0.030114
0.186324
0.0340942
0.183574
0.0382461
0.180538
0.0425803
0.177199
0.0471023
0.173542
0.0518161
0.169547
0.0567274
0.165192
0.0618468
0.160448
0.0671909
0.155281
0.0727834
0.149645
0.0786549
0.143482
0.0848413
0.136718
0.091381
0.129254
0.0983109
0.120966
0.105659
0.111691
0.113433
0.101222
0.121598
0.0892982
0.130048
0.075608
0.138541
0.059821
0.146619
0.0416905
0.153427
0.0213437
0.157701
0.155865
0.199416
0.00437613
0.198613
0.00853718
0.197605
0.0125045
0.196393
0.0163636
0.194974
0.0201893
0.193345
0.0240465
0.191499
0.0279901
0.189428
0.032063
0.187122
0.0362963
0.18457
0.0407101
0.181761
0.0453159
0.17868
0.0501202
0.175316
0.0551282
0.171651
0.0603476
0.167667
0.0657921
0.16334
0.0714828
0.158641
0.0774502
0.153531
0.0837341
0.147956
0.0903833
0.141846
0.0974541
0.135108
0.105008
0.127611
0.113109
0.119176
0.121813
0.109551
0.131159
0.0983844
0.141145
0.0851779
0.151674
0.0692672
0.162459
0.0498631
0.172782
0.0264298
0.18115
0.182161
0.199433
0.00462033
0.198664
0.00901399
0.197708
0.0132047
0.196567
0.0172824
0.195239
0.021324
0.193721
0.0253968
0.192008
0.0295579
0.190094
0.0338523
0.18797
0.0383126
0.185629
0.0429597
0.18306
0.0478058
0.180255
0.0528577
0.177203
0.0581216
0.173893
0.0636065
0.170311
0.0693281
0.166441
0.0753114
0.16226
0.0815921
0.157737
0.0882179
0.152831
0.0952489
0.147484
0.102758
0.141615
0.110832
0.135103
0.11957
0.127775
0.129088
0.119363
0.139516
0.109452
0.151
0.0973854
0.163691
0.0821147
0.177695
0.0620035
0.19289
0.0348479
0.208367
0.216911
0.199451
0.00484575
0.198719
0.00945335
0.197819
0.0138485
0.196752
0.0181248
0.195519
0.0223617
0.194118
0.0266284
0.192544
0.030984
0.190793
0.0354749
0.18886
0.0401348
0.186739
0.0449852
0.184423
0.0500384
0.181906
0.0553013
0.179184
0.06078
0.17625
0.066484
0.173096
0.0724303
0.169714
0.0786458
0.16609
0.0851699
0.162208
0.0920556
0.15804
0.0993714
0.153549
0.107203
0.148676
0.115656
0.143333
0.124864
0.137379
0.134993
0.130582
0.146267
0.122548
0.158996
0.112581
0.173636
0.0993748
0.190905
0.080326
0.211986
0.0498648
0.238938
0.266871
0.19947
0.0050514
0.198777
0.00985335
0.197935
0.0144332
0.196946
0.018888
0.195812
0.0232992
0.194531
0.0277375
0.193101
0.0322637
0.19152
0.0369253
0.189784
0.0417567
0.18789
0.0467795
0.185835
0.0520055
0.183619
0.057441
0.181239
0.0630915
0.178695
0.068966
0.175987
0.0750813
0.173116
0.0814646
0.170079
0.0881562
0.166874
0.0952115
0.163495
0.102703
0.159927
0.110722
0.15615
0.119386
0.152123
0.128845
0.147774
0.1393
0.142975
0.151031
0.137489
0.164459
0.130849
0.180272
0.122054
0.19972
0.108574
0.225514
0.0815821
0.265985
0.348964
-0.011447
0.0113865
-0.0246699
0.0131882
-0.0398848
0.0151179
-0.056389
0.0163771
-0.0737492
0.0172257
-0.0913146
0.017437
-0.108386
0.0169563
-0.124195
0.0157116
-0.137934
0.0136598
-0.148796
0.0108021
-0.156036
0.00719752
-0.159023
0.00296101
-0.157336
-0.00169657
-0.150768
-0.00656196
-0.139521
-0.0112256
-0.124155
-0.0153305
-0.10548
-0.0186246
-0.0844445
-0.02097
-0.0620311
-0.0223322
-0.0391291
-0.0228045
-0.0164907
-0.0225237
0.00523865
-0.0215961
0.0256779
-0.0202861
0.0445616
-0.018709
0.0618643
-0.0171047
0.0775984
-0.0155105
0.0918219
-0.0139723
0.104647
-0.0125431
0.116243
-0.0112814
-0.0105996
-0.0129482
0.0242743
-0.0276155
0.0278145
-0.0436147
0.0310229
-0.0607494
0.0333925
-0.0785317
0.0348831
-0.0963852
0.0351718
-0.113619
0.0340841
-0.129462
0.0314653
-0.143096
0.0272215
-0.153699
0.0213502
-0.16051
0.0139696
-0.162908
0.00533694
-0.160459
-0.00415203
-0.153073
-0.0139407
-0.141026
-0.0232497
-0.124925
-0.0313945
-0.105601
-0.037897
-0.0839886
-0.0425158
-0.0610189
-0.0452201
-0.0376029
-0.0461225
-0.0144498
-0.0455616
0.00773201
-0.0436444
0.0285288
-0.0409295
0.0478649
-0.0378703
0.0656743
-0.034716
0.0819568
-0.0315694
0.0967659
-0.02853
0.1102
-0.025696
0.12239
-0.023156
-0.0212697
-0.0141652
0.0383758
-0.0297684
0.0433741
-0.0463943
0.0475644
-0.0639107
0.0508062
-0.0819048
0.0527713
-0.0998401
0.0530074
-0.117051
0.0512068
-0.132775
0.0471147
-0.146187
0.0405736
-0.156449
0.0315677
-0.16278
0.0202704
-0.164537
0.00707801
-0.161316
-0.00737453
-0.153083
-0.0221611
-0.140229
-0.0360773
-0.123449
-0.0481347
-0.103625
-0.0576678
-0.0817064
-0.0643666
-0.05862
-0.0682234
-0.0352226
-0.0694211
-0.0122041
-0.0684643
0.00980892
-0.0655233
0.0304074
-0.0613742
0.0495532
-0.0568411
0.0671793
-0.0521437
0.0832835
-0.04745
0.0979199
-0.0429149
0.111184
-0.0386779
0.123195
-0.0348524
-0.0317767
-0.0152385
0.053573
-0.0316473
0.0597458
-0.0487781
0.0646297
-0.0665655
0.0685162
-0.0846651
0.0707924
-0.102586
0.0708547
-0.119685
0.0682416
-0.135199
0.0625755
-0.148283
0.0536151
-0.158062
0.0413168
-0.163713
0.0259027
-0.164583
0.00794275
-0.160306
-0.0116458
-0.150999
-0.0314502
-0.137181
-0.0498647
-0.119641
-0.0656316
-0.0993091
-0.0779431
-0.0771454
-0.0864602
-0.0540676
-0.0912166
-0.0308223
-0.0925662
-0.00817733
-0.0909925
0.0133826
-0.0869484
0.0336003
-0.0814375
0.0523694
-0.0754346
0.069632
-0.0692076
0.0853913
-0.0629853
0.099703
-0.056975
0.11266
-0.0513529
0.124379
-0.0462562
-0.0419978
-0.0160729
0.0696249
-0.0330129
0.0766634
-0.0503989
0.0819769
-0.0682261
0.0862982
-0.0862057
0.0887267
-0.103886
0.0884938
-0.120646
0.0849656
-0.13572
0.07762
-0.148237
0.0661114
-0.157288
0.0503549
-0.162021
0.0306319
-0.161775
0.00770141
-0.156265
-0.0171404
-0.14579
-0.0418998
-0.130999
-0.0646194
-0.11277
-0.0838138
-0.092071
-0.0985818
-0.0698574
-0.108601
-0.0469864
-0.114001
-0.0241608
-0.11529
-0.00214685
-0.112888
0.0187121
-0.107672
0.0383075
-0.100878
0.0564875
-0.0934384
0.0731913
-0.0857123
0.0884285
-0.0779982
0.102258
-0.0705523
0.114771
-0.0635837
0.126081
-0.0572513
-0.0518384
-0.0164203
0.086069
-0.0334046
0.0936454
-0.0506267
0.0991909
-0.0681169
0.103778
-0.0856304
0.106231
-0.10275
0.105606
-0.118875
0.101085
-0.133241
0.0919839
-0.144955
0.0778269
-0.153065
0.0584699
-0.156683
0.0342619
-0.155179
0.00621478
-0.148376
-0.0239187
-0.136763
-0.0534798
-0.121123
-0.0802164
-0.102403
-0.102481
-0.0815879
-0.119333
-0.0596
-0.130513
-0.0372233
-0.136288
-0.0151673
-0.137242
0.00593908
-0.133875
0.0258705
-0.127466
0.0446079
-0.119459
0.061977
-0.110631
0.0779176
-0.101453
0.092447
-0.0923029
0.105628
-0.0834813
0.117552
-0.0752255
0.12833
-0.0677136
-0.0611917
-0.0160023
0.102113
-0.032347
0.110006
-0.0488269
0.115692
-0.0654785
0.120454
-0.0820883
0.122866
-0.0982684
0.121811
-0.113439
0.116281
-0.126839
0.105407
-0.137546
0.0885566
-0.144546
0.0654941
-0.146916
0.0366586
-0.144052
0.00338112
-0.135973
-0.0319628
-0.123376
-0.0660356
-0.10715
-0.0963932
-0.0882681
-0.121305
-0.0676935
-0.13984
-0.0462838
-0.151843
-0.0247459
-0.157734
-0.00387168
-0.158011
0.0160037
-0.153629
0.0348338
-0.146158
0.0524919
-0.136961
0.06883
-0.126791
0.083804
-0.116227
0.0974418
-0.105716
0.109812
-0.0955989
0.121005
-0.0861363
0.131128
-0.0775211
-0.0699567
-0.0146132
0.116774
-0.0294806
0.124905
-0.0445134
0.130773
-0.0597213
0.135718
-0.0749106
0.138113
-0.089717
0.136672
-0.103578
0.130193
-0.115728
0.117604
-0.125211
0.0980829
-0.130941
0.0712645
-0.131976
0.0377352
-0.127727
-0.000826372
-0.118494
-0.0411515
-0.105209
-0.0792714
-0.0888046
-0.112742
-0.0702133
-0.139833
-0.0503403
-0.159641
-0.0299546
-0.172146
-0.00975165
-0.177843
0.00962419
-0.177278
0.0280384
-0.171921
0.0455352
-0.163515
0.0618853
-0.153153
0.0769755
-0.141703
0.0907864
-0.129838
0.103358
-0.118062
0.114765
-0.106753
0.125096
-0.0961846
0.134452
-0.0865609
-0.0780402
-0.0121847
0.129005
-0.0246437
0.137407
-0.0374286
0.143626
-0.0504956
0.148865
-0.0636624
0.151362
-0.0765833
0.149672
-0.0887135
0.142395
-0.0992876
0.128243
-0.107321
0.106176
-0.111699
0.0756977
-0.111253
0.0373419
-0.105639
-0.00638842
-0.0955023
-0.0512351
-0.0819885
-0.0927286
-0.0659716
-0.128697
-0.0482269
-0.157509
-0.0296046
-0.178187
-0.0107247
-0.19094
0.00757912
-0.196049
0.0251056
-0.194695
0.0419523
-0.188643
0.0578583
-0.17928
0.0726608
-0.167796
0.0862907
-0.155154
0.0987528
-0.142098
0.110099
-0.129182
0.120406
-0.116806
0.129759
-0.105255
0.138249
-0.0947353
-0.0853622
-0.00872673
0.137792
-0.0178784
0.146602
-0.0275713
0.1534
-0.037736
0.159126
-0.0482006
0.161924
-0.0586348
0.160199
-0.0685173
0.152363
-0.0770962
0.1369
-0.083385
0.112535
-0.0862292
0.0786073
-0.0842309
0.0354054
-0.0774176
-0.0131416
-0.0668062
-0.061786
-0.0536916
-0.10578
-0.0387491
-0.143573
-0.0224647
-0.173721
-0.00568687
-0.194885
0.0108943
-0.207432
0.0269984
-0.212053
0.0426544
-0.210239
0.0575963
-0.203458
0.0716283
-0.19317
0.0846431
-0.180651
0.0966096
-0.166941
0.107553
-0.15284
0.117533
-0.138936
0.126624
-0.125644
0.134905
-0.113252
0.142451
-0.101966
-0.0918596
-0.00436465
0.142246
-0.00939356
0.151652
-0.0151942
0.159277
-0.0216975
0.165726
-0.0287383
0.169065
-0.0359996
0.167557
-0.0429966
0.159451
-0.049009
0.142995
-0.053095
0.116698
-0.0538445
0.0794283
-0.0506092
0.032238
-0.0429262
-0.0207586
-0.0326151
-0.0720313
-0.0206738
-0.117654
-0.00739617
-0.156779
0.00653779
-0.187579
0.020656
-0.20892
0.0347518
-0.221436
0.048638
-0.225838
0.0620312
-0.223518
0.074732
-0.216031
0.086611
-0.204906
0.0976103
-0.191489
0.107729
-0.17688
0.117008
-0.161916
0.125506
-0.147207
0.133291
-0.133176
0.140427
-0.120105
0.146973
-0.108195
-0.0974883
0.000680163
0.141692
0.000447872
0.151867
-0.00084332
0.160619
-0.00304761
0.168008
-0.00597317
0.172078
-0.00938514
0.171058
-0.0128593
0.163011
-0.0156999
0.145918
-0.0167288
0.117805
-0.0147285
0.0775016
-0.00920846
0.0267887
-0.00217846
-0.0277193
0.00625672
-0.0803971
0.0160975
-0.127424
0.0267615
-0.167369
0.0379042
-0.198642
0.0494279
-0.220357
0.0609173
-0.232831
0.0721387
-0.236955
0.082889
-0.234152
0.093036
-0.226049
0.102511
-0.214236
0.111297
-0.200114
0.119417
-0.184819
0.126915
-0.169212
0.133847
-0.153912
0.140263
-0.139339
0.146209
-0.125768
0.151721
-0.113391
-0.102224
0.00637659
0.135418
0.0113327
0.146841
0.0148534
0.157103
0.017341
0.165561
0.0189861
0.170494
0.019992
0.170122
0.0207528
0.162324
0.022001
0.144744
0.0247694
0.115109
0.029383
0.0729599
0.0351264
0.0211161
0.0413868
-0.0339093
0.0479339
-0.0868731
0.0553243
-0.134741
0.0633498
-0.175318
0.0717457
-0.206957
0.0803149
-0.228839
0.0887828
-0.241203
0.0969712
-0.245038
0.104764
-0.241828
0.112102
-0.233257
0.118974
-0.220963
0.125399
-0.206377
0.131414
-0.190652
0.13706
-0.174656
0.142378
-0.159003
0.147396
-0.144104
0.152136
-0.130224
0.156604
-0.117543
-0.106062
0.0127726
0.122553
0.0230089
0.136485
0.0312918
0.148773
0.0386095
0.158244
0.0450459
0.164087
0.0507546
0.164461
0.0561792
0.156957
0.061973
0.139014
0.0685387
0.10861
0.0753154
0.0662507
0.0812511
0.0152488
0.0862609
-0.0388496
0.0911095
-0.0916506
0.0962096
-0.139768
0.101564
-0.180595
0.107011
-0.21232
0.112392
-0.234131
0.117569
-0.246283
0.122473
-0.249834
0.127092
-0.246329
0.131453
-0.237487
0.135601
-0.224965
0.139586
-0.210199
0.14345
-0.194334
0.147224
-0.178227
0.150923
-0.162475
0.15455
-0.147477
0.158093
-0.133485
0.161532
-0.120666
-0.109018
0.0209139
0.101146
0.035276
0.122047
0.0481048
0.13589
0.0603001
0.146026
0.0714279
0.152964
0.0817155
0.154199
0.0916177
0.147096
0.101448
0.129234
0.110903
0.0992115
0.119175
0.0580404
0.125466
0.00902184
0.130084
-0.0434003
0.133786
-0.0952828
0.137042
-0.14295
0.139957
-0.183433
0.14249
-0.21477
0.144623
-0.236174
0.146393
-0.247955
0.147893
-0.251227
0.149244
-0.247561
0.150569
-0.23868
0.15197
-0.22622
0.153519
-0.211584
0.155257
-0.19589
0.157194
-0.17996
0.159317
-0.164371
0.161594
-0.149502
0.163982
-0.135591
0.166428
-0.122796
-0.111119
0.207131
0.00524308
0.206453
0.0102256
0.205643
0.0149758
0.204701
0.0195938
0.203631
0.0241629
0.202433
0.0287551
0.201106
0.0334322
0.199649
0.0382428
0.198063
0.0432212
0.196347
0.0483887
0.194501
0.0537562
0.192529
0.0593286
0.190435
0.06511
0.188225
0.0711077
0.185906
0.0773366
0.183489
0.0838224
0.180985
0.0906034
0.178409
0.0977333
0.175777
0.105283
0.173106
0.113341
0.170419
0.122024
0.16774
0.131479
0.165098
0.141902
0.162536
0.153563
0.160125
0.166854
0.158025
0.182375
0.15673
0.201038
0.158381
0.223901
0.17631
0.248079
0.260411
0.264937
0.212165
0.00541574
0.211517
0.0105602
0.210755
0.0154622
0.209883
0.0202242
0.208902
0.0249308
0.207814
0.0296551
0.206622
0.0344596
0.205327
0.0393931
0.20393
0.0444897
0.202436
0.0497696
0.20085
0.0552423
0.199177
0.0609108
0.19743
0.0667765
0.195619
0.072844
0.193762
0.0791249
0.191879
0.0856408
0.189997
0.0924255
0.188146
0.0995265
0.186368
0.107007
0.184712
0.114945
0.183247
0.123441
0.182068
0.132615
0.181314
0.142622
0.181206
0.153646
0.18214
0.16591
0.184896
0.179625
0.191139
0.194819
0.203895
0.211186
0.224305
0.227721
0.242948
0.241822
0.217323
0.0055673
0.216708
0.0108532
0.216001
0.0158866
0.215204
0.0207716
0.214322
0.0255938
0.213356
0.0304269
0.212311
0.0353335
0.211191
0.0403622
0.21
0.0455463
0.208746
0.0509046
0.207438
0.0564445
0.206087
0.0621661
0.204709
0.0680677
0.203324
0.0741497
0.201956
0.080419
0.200638
0.0868912
0.199407
0.0935926
0.198312
0.100561
0.197416
0.107847
0.196797
0.115512
0.196564
0.123627
0.196862
0.132276
0.197904
0.141548
0.200001
0.151528
0.203626
0.162276
0.209469
0.173787
0.218375
0.185931
0.231027
0.198562
0.24705
0.21173
0.222775
0.267245
0.222607
0.00569581
0.22203
0.011101
0.221383
0.0162437
0.220669
0.0212292
0.219892
0.0261436
0.219058
0.0310606
0.218172
0.0360426
0.21724
0.0411374
0.216269
0.0463771
0.21527
0.0517784
0.214257
0.0573461
0.213246
0.0630771
0.212256
0.0689654
0.211314
0.0750067
0.210454
0.0812013
0.209716
0.0875574
0.20915
0.0940923
0.208818
0.100832
0.208799
0.107809
0.209192
0.115066
0.210129
0.122644
0.211781
0.130585
0.214377
0.138921
0.218218
0.147666
0.22369
0.156793
0.231249
0.166227
0.241375
0.175814
0.254678
0.185275
0.272151
0.194273
0.200579
0.294352
0.22802
0.00579946
0.227485
0.0113
0.226902
0.0165286
0.226277
0.0215908
0.225615
0.0265727
0.224921
0.0315476
0.224203
0.0365771
0.22347
0.0417079
0.222731
0.0469702
0.222
0.0523786
0.221295
0.0579346
0.220636
0.0636313
0.220047
0.0694581
0.219559
0.0754046
0.219214
0.0814642
0.21906
0.087637
0.219155
0.0939296
0.219568
0.100355
0.22039
0.10693
0.221731
0.113673
0.223729
0.1206
0.226557
0.127719
0.230428
0.135019
0.235605
0.142468
0.242395
0.149989
0.251161
0.157457
0.262317
0.164659
0.276359
0.171238
0.293814
0.176822
0.180454
0.313938
0.233566
0.00587663
0.233075
0.0114472
0.232562
0.0167369
0.232032
0.0218508
0.23149
0.0268745
0.230944
0.0318803
0.230403
0.0369287
0.229877
0.0420649
0.229379
0.0473168
0.228926
0.0526962
0.228537
0.0582015
0.228236
0.0638214
0.228054
0.0695402
0.228024
0.0753413
0.228192
0.081211
0.228611
0.0871407
0.229343
0.0931264
0.230465
0.0991681
0.232069
0.105267
0.234266
0.111423
0.237191
0.11763
0.241002
0.123869
0.245888
0.130102
0.252068
0.136265
0.259786
0.142255
0.269313
0.14792
0.280918
0.153049
0.294807
0.157346
0.3111
0.160528
0.162196
0.329351
0.239247
0.00592593
0.238803
0.0115399
0.238364
0.0168648
0.237933
0.0220046
0.237517
0.0270436
0.237125
0.0320529
0.236767
0.0370914
0.236455
0.0422021
0.236204
0.0474107
0.236033
0.0527261
0.235965
0.0581428
0.236025
0.0636456
0.236248
0.0692132
0.236669
0.0748233
0.237337
0.0804551
0.238307
0.0860915
0.239642
0.0917186
0.241419
0.0973249
0.243728
0.102899
0.246673
0.108424
0.250378
0.113879
0.25498
0.119227
0.260636
0.124413
0.267516
0.129359
0.275796
0.133955
0.285646
0.138056
0.297204
0.141481
0.310536
0.144007
0.325652
0.145406
0.145483
0.342356
0.245067
0.0059462
0.244673
0.011576
0.244309
0.0169094
0.243982
0.0220486
0.243697
0.0270761
0.243463
0.0320613
0.243291
0.0370609
0.243197
0.0421159
0.243196
0.0472493
0.243309
0.0524669
0.243561
0.0577596
0.243979
0.063108
0.244597
0.0684859
0.245456
0.0738654
0.246601
0.0792192
0.248088
0.0845225
0.249978
0.0897532
0.252346
0.0948902
0.255272
0.0999115
0.258851
0.104791
0.263188
0.109495
0.268397
0.113978
0.274598
0.118179
0.281912
0.122017
0.290455
0.125391
0.300321
0.128174
0.311568
0.13022
0.3242
0.131365
0.338161
0.131435
0.130345
0.35329
0.251028
0.00593657
0.250686
0.0115539
0.250401
0.0168686
0.250179
0.0219802
0.250027
0.0269693
0.249954
0.0319028
0.249972
0.0368354
0.250096
0.0418053
0.250345
0.0468331
0.250739
0.0519213
0.251305
0.0570575
0.252071
0.0622183
0.253071
0.0673732
0.254345
0.0724893
0.255937
0.0775337
0.2579
0.0824755
0.260291
0.0872857
0.263175
0.0919363
0.266627
0.0963983
0.270724
0.100639
0.275551
0.104619
0.281197
0.108291
0.287747
0.111593
0.295281
0.114453
0.303865
0.116782
0.31354
0.118478
0.324314
0.119431
0.336143
0.119522
0.348929
0.118637
0.116748
0.362515
0.257134
0.00589645
0.256844
0.0114725
0.25664
0.0167409
0.256526
0.0217981
0.256508
0.0267221
0.256597
0.0315771
0.256803
0.0364153
0.257145
0.0412723
0.257639
0.0461659
0.258309
0.0510959
0.259179
0.0560467
0.260278
0.0609913
0.26164
0.0658957
0.263301
0.0707229
0.265303
0.0754355
0.267694
0.079998
0.270525
0.0843767
0.273852
0.0885389
0.277735
0.0924516
0.282238
0.0960794
0.287426
0.0993823
0.29336
0.102314
0.300097
0.104819
0.307682
0.106836
0.316143
0.108294
0.325484
0.109115
0.335676
0.10922
0.346649
0.108533
0.35829
0.106982
0.104575
0.370451
0.263388
0.00582557
0.263152
0.0113314
0.263029
0.016526
0.263023
0.0215022
0.263139
0.0263348
0.263388
0.0310854
0.263781
0.0358033
0.264335
0.0405214
0.265068
0.0452549
0.266003
0.0500009
0.267163
0.0547412
0.268577
0.0594461
0.270275
0.0640786
0.272291
0.0685986
0.274663
0.0729657
0.27743
0.0771414
0.280638
0.0810889
0.284331
0.0847734
0.288557
0.0881607
0.293364
0.0912153
0.298795
0.0938997
0.304892
0.0961724
0.311685
0.0979878
0.319192
0.099296
0.327413
0.100044
0.336326
0.100177
0.345881
0.0996449
0.355996
0.0984006
0.366555
0.0964077
0.0936916
0.377426
0.269793
0.00572398
0.269611
0.0111307
0.269569
0.0162244
0.26967
0.0210935
0.269919
0.0258096
0.270324
0.030431
0.2709
0.0350043
0.271659
0.0395597
0.272622
0.0441098
0.273809
0.0486496
0.275242
0.0531587
0.276948
0.0576053
0.278953
0.0619505
0.281288
0.0661521
0.283985
0.0701681
0.287077
0.0739582
0.290599
0.0774848
0.294586
0.0807126
0.299072
0.0836082
0.30409
0.0861387
0.309666
0.0882709
0.315822
0.0899703
0.322568
0.0912012
0.329902
0.0919269
0.337805
0.092111
0.346237
0.0917192
0.355138
0.0907218
0.364422
0.089097
0.373982
0.0868319
0.0839638
0.383697
0.276352
0.00559204
0.276224
0.0108713
0.276262
0.0158374
0.276468
0.0205742
0.276846
0.0251496
0.277405
0.0296187
0.278155
0.0340251
0.279112
0.0383964
0.280291
0.0427431
0.281714
0.0470581
0.2834
0.0513196
0.285372
0.0554944
0.287655
0.0595425
0.290272
0.0634211
0.293249
0.0670873
0.296613
0.0705008
0.300389
0.0736244
0.304602
0.076424
0.309273
0.0788687
0.314422
0.0809294
0.32006
0.0825785
0.326194
0.0837894
0.332816
0.0845363
0.339912
0.0847948
0.347448
0.0845431
0.355377
0.0837628
0.363633
0.0824417
0.372135
0.080575
0.380783
0.0781666
0.0752601
0.389473
0.28307
0.00543039
0.282994
0.0105545
0.283111
0.0153672
0.283419
0.0199476
0.283922
0.0243596
0.284627
0.028655
0.285544
0.0328744
0.286686
0.0370429
0.288069
0.041169
0.28971
0.0452443
0.291626
0.0492459
0.293838
0.0531402
0.296365
0.0568869
0.299226
0.0604434
0.30244
0.0637673
0.306026
0.0668192
0.31
0.0695635
0.314378
0.0719688
0.319169
0.0740072
0.324382
0.0756546
0.330015
0.0768894
0.336063
0.0776927
0.342508
0.078048
0.349322
0.0779418
0.356468
0.0773639
0.363893
0.076309
0.371532
0.0747775
0.379309
0.0727766
0.387136
0.0703212
0.0674572
0.394924
0.289949
0.00523996
0.289925
0.0101821
0.290117
0.0148168
0.290524
0.0192179
0.291146
0.0234455
0.29199
0.0275477
0.293063
0.0315621
0.294379
0.0355118
0.295949
0.0394034
0.297788
0.0432277
0.299912
0.0469612
0.302336
0.0505706
0.305075
0.0540162
0.308143
0.0572562
0.311551
0.06025
0.315313
0.06296
0.319435
0.0653529
0.323923
0.0674004
0.32878
0.0690789
0.334001
0.070369
0.339578
0.0712553
0.345494
0.0717259
0.351724
0.0717726
0.358236
0.0713906
0.364986
0.0705793
0.371921
0.0693429
0.378982
0.0676908
0.386098
0.0656383
0.393193
0.0632067
0.0604421
0.400193
0.296993
0.00502193
0.297018
0.00975652
0.297283
0.0141898
0.297784
0.0183903
0.298519
0.022414
0.299493
0.0263054
0.300712
0.0300995
0.302187
0.033817
0.303928
0.0374632
0.305946
0.0410283
0.308254
0.0444891
0.310863
0.047813
0.313782
0.0509616
0.317021
0.053895
0.320585
0.0565745
0.324479
0.0589652
0.328705
0.0610368
0.333259
0.0627645
0.338135
0.064129
0.343323
0.0651156
0.348804
0.0657146
0.354557
0.0659203
0.360552
0.065731
0.366752
0.0651493
0.373114
0.0641816
0.379586
0.0628389
0.386113
0.0611366
0.392633
0.0590949
0.399081
0.0567388
0.0541124
0.405394
0.304206
0.00477765
0.304279
0.00928033
0.304613
0.0134901
0.305201
0.0174703
0.306042
0.0212724
0.307137
0.0249378
0.308491
0.0284983
0.310111
0.0319727
0.312005
0.0353655
0.314182
0.0386664
0.31665
0.0418531
0.319417
0.0448941
0.322487
0.0477531
0.325864
0.0503923
0.329549
0.0527759
0.33354
0.0548717
0.337831
0.056653
0.342412
0.0580986
0.347273
0.0591932
0.352394
0.0599266
0.357754
0.0602938
0.363325
0.0602945
0.369076
0.0599322
0.374968
0.0592148
0.380958
0.0581538
0.386999
0.0567646
0.393041
0.0550665
0.399029
0.0530824
0.404908
0.0508383
0.048376
0.410628
0.311592
0.00450861
0.31171
0.0087565
0.312108
0.0127223
0.312779
0.016464
0.313718
0.0200288
0.314925
0.0234546
0.316401
0.0267705
0.318152
0.0299936
0.320183
0.0331274
0.322499
0.0361618
0.325105
0.0390755
0.328004
0.0418388
0.331198
0.0444178
0.334685
0.0467775
0.338459
0.0488848
0.342514
0.0507111
0.346839
0.0522329
0.351419
0.0534325
0.356236
0.0542984
0.361269
0.0548244
0.36649
0.0550095
0.371872
0.0548572
0.377379
0.0543753
0.382974
0.0535752
0.388617
0.052472
0.394263
0.0510836
0.399869
0.0494314
0.405387
0.047539
0.41077
0.0454327
0.0431507
0.415978
0.319155
0.00421641
0.319315
0.00818811
0.319774
0.011891
0.320522
0.0153777
0.321551
0.0186912
0.322859
0.0218659
0.324446
0.0249283
0.326313
0.0278938
0.328464
0.0307651
0.330901
0.0335329
0.333624
0.0361769
0.336634
0.0386698
0.339927
0.0409801
0.343497
0.0430759
0.347336
0.0449273
0.351429
0.046509
0.355764
0.0478008
0.360319
0.0487884
0.365074
0.0494634
0.370004
0.049823
0.375079
0.0498693
0.38027
0.0496088
0.385541
0.0490521
0.390858
0.0482129
0.396181
0.0471082
0.401472
0.0457575
0.40669
0.0441825
0.411795
0.0424067
0.41675
0.0404554
0.0383632
0.421519
0.326899
0.00390262
0.327099
0.00757824
0.327614
0.0110008
0.328432
0.0142176
0.329544
0.0172675
0.330944
0.0201813
0.33263
0.0229831
0.334601
0.0256866
0.336856
0.0282941
0.339396
0.0307967
0.342218
0.033176
0.345319
0.0354069
0.34869
0.0374608
0.352323
0.0393088
0.356203
0.0409245
0.360316
0.0422857
0.364641
0.0433752
0.369156
0.0441818
0.373838
0.0446999
0.378657
0.0449292
0.383586
0.044874
0.388592
0.0445432
0.393642
0.0439487
0.398702
0.0431057
0.403736
0.042032
0.408709
0.0407473
0.413586
0.0392728
0.418334
0.0376313
0.42292
0.0358461
0.0339483
0.427315
0.334829
0.00356877
0.335065
0.00692985
0.335632
0.0100561
0.336515
0.0129896
0.337702
0.0157651
0.339185
0.01841
0.340959
0.0209457
0.343021
0.0233843
0.345368
0.0257279
0.347996
0.0279684
0.350901
0.030089
0.354075
0.0320671
0.357507
0.0338771
0.361185
0.0354933
0.365092
0.0368926
0.369208
0.0380557
0.373511
0.0389684
0.377978
0.039622
0.38258
0.0400131
0.387289
0.0401433
0.392076
0.0400186
0.396908
0.0396489
0.401754
0.0390471
0.406582
0.0382287
0.411359
0.0372113
0.416054
0.0360142
0.420635
0.0346575
0.425075
0.0331623
0.429346
0.03155
0.0298482
0.433426
0.342949
0.00321622
0.343219
0.00624556
0.343835
0.00906086
0.344777
0.0116992
0.346032
0.0141911
0.347589
0.0165604
0.349442
0.0188257
0.351585
0.0209979
0.354011
0.0230787
0.356714
0.0250607
0.359688
0.0269291
0.362922
0.0286639
0.366401
0.0302424
0.370111