/*--------------------------------*- C++ -*----------------------------------*\
  =========                 |
  \\      /  F ield         | OpenFOAM: The Open Source CFD Toolbox
   \\    /   O peration     | Website:  https://openfoam.org
    \\  /    A nd           | Version:  7
     \\/     M anipulation  |
\*---------------------------------------------------------------------------*/
FoamFile
{
    version     2.0;
    format      ascii;
    class       pointVectorField;
    location    "0.2";
    object      pointDisplacement;
}
// * * * * * * * * * * * * * * * * * * * * * * * * * * * * * * * * * * * * * //

dimensions      [0 1 0 0 0 0 0];

internalField   nonuniform List<vector> 
5828
(
(0 0 0)
(0.00232458 0 0)
(0.00444358 0 0)
(0.00631135 0 0)
(0.00795119 0 0)
(0.00938409 0 0)
(0.0106286 0 0)
(0.011701 0 0)
(0.0126156 0 0)
(0.0133844 0 0)
(0.014018 0 0)
(0.0145246 0 0)
(0.0149111 0 0)
(0.0151823 0 0)
(0.0153411 0 0)
(0.0153887 0 0)
(0.0153241 0 0)
(0.0151441 0 0)
(0.0148432 0 0)
(0.0144138 0 0)
(0.0138459 0 0)
(0.0131278 0 0)
(0.0122471 0 0)
(0.0111926 0 0)
(0.00995741 0 0)
(0.00854503 0 0)
(0.00697859 0 0)
(0.00531794 0 0)
(0.00369228 0 0)
(0.00238273 0 0)
(0 0 0)
(0 0 0)
(0.00232466 0 1.23653e-06)
(0.00444391 0 2.40878e-06)
(0.006312 0 3.53031e-06)
(0.00795227 0 4.64843e-06)
(0.00938572 0 5.81181e-06)
(0.0106309 0 7.07456e-06)
(0.0117043 0 8.5004e-06)
(0.01262 0 1.01674e-05)
(0.0133903 0 1.2174e-05)
(0.0140257 0 1.46454e-05)
(0.0145347 0 1.77437e-05)
(0.0149241 0 2.1679e-05)
(0.015199 0 2.67245e-05)
(0.0153627 0 3.3236e-05)
(0.0154164 0 4.1676e-05)
(0.0153597 0 5.26441e-05)
(0.0151899 0 6.69138e-05)
(0.0149023 0 8.54767e-05)
(0.0144899 0 0.000109594)
(0.0139441 0 0.000140851)
(0.0132545 0 0.000181218)
(0.0124106 0 0.000233095)
(0.0114032 0 0.000299341)
(0.0102282 0 0.000383233)
(0.00889209 0 0.000488274)
(0.00742191 0 0.000617628)
(0.00588171 0 0.000772544)
(0.00440338 0 0.000947838)
(0.00325476 0 0.00111787)
(0.00162043 0 0.00147598)
(0 0 0)
(0.00232528 0 2.46247e-06)
(0.00444528 0 4.79581e-06)
(0.00631435 0 7.02606e-06)
(0.00795588 0 9.24638e-06)
(0.00939096 0 1.15523e-05)
(0.0106383 0 1.40498e-05)
(0.0117143 0 1.6863e-05)
(0.0126334 0 2.01438e-05)
(0.013408 0 2.40828e-05)
(0.0140489 0 2.89223e-05)
(0.0145647 0 3.49742e-05)
(0.0149629 0 4.2642e-05)
(0.0152489 0 5.24487e-05)
(0.0154267 0 6.50731e-05)
(0.0154985 0 8.13941e-05)
(0.015465 0 0.000102547)
(0.015325 0 0.000129989)
(0.0150758 0 0.000165579)
(0.0147132 0 0.000211666)
(0.0142314 0 0.000271178)
(0.0136244 0 0.000347711)
(0.0128865 0 0.000445574)
(0.0120145 0 0.000569768)
(0.011011 0 0.000725768)
(0.00989044 0 0.000918925)
(0.00868718 0 0.00115298)
(0.0074703 0 0.00142648)
(0.00636491 0 0.00172423)
(0.00558734 0 0.00199582)
(0.0045487 0 0.00245356)
(0 0 0)
(0.00232637 0 3.66592e-06)
(0.00444766 0 7.13696e-06)
(0.00631836 0 1.04496e-05)
(0.00796198 0 1.37398e-05)
(0.00939974 0 1.71465e-05)
(0.0106505 0 2.08227e-05)
(0.0117309 0 2.49472e-05)
(0.0126555 0 2.97371e-05)
(0.0134372 0 3.54633e-05)
(0.0140868 0 4.24686e-05)
(0.0146138 0 5.11921e-05)
(0.015026 0 6.21983e-05)
(0.0153298 0 7.62153e-05)
(0.0155302 0 9.41818e-05)
(0.0156309 0 0.000117306)
(0.0156343 0 0.000147138)
(0.0155416 0 0.000185651)
(0.0153531 0 0.00023534)
(0.0150684 0 0.00029932)
(0.0146868 0 0.000381422)
(0.014208 0 0.000486252)
(0.0136336 0 0.000619183)
(0.0129684 0 0.000786161)
(0.0122242 0 0.000993202)
(0.0114235 0 0.0012452)
(0.0106057 0 0.00154343)
(0.00983533 0 0.00188045)
(0.00920808 0 0.00222984)
(0.00885364 0 0.00252633)
(0.00842289 0 0.0029682)
(0 0 0)
(0.00232787 0 4.83502e-06)
(0.00445094 0 9.40836e-06)
(0.00632384 0 1.37637e-05)
(0.00797029 0 1.80758e-05)
(0.0094117 0 2.25217e-05)
(0.0106671 0 2.72951e-05)
(0.0117534 0 3.26203e-05)
(0.0126856 0 3.87678e-05)
(0.0134766 0 4.60722e-05)
(0.0141381 0 5.4954e-05)
(0.01468 0 6.59472e-05)
(0.015111 0 7.97328e-05)
(0.0154384 0 9.7182e-05)
(0.0156687 0 0.000119408)
(0.0158072 0 0.000147831)
(0.0158587 0 0.00018425)
(0.0158272 0 0.000230934)
(0.0157169 0 0.000290706)
(0.0155317 0 0.000367036)
(0.0152769 0 0.000464099)
(0.0149589 0 0.000586771)
(0.0145874 0 0.000740497)
(0.014176 0 0.000930898)
(0.0137447 0 0.00116292)
(0.0133219 0 0.00143919)
(0.0129462 0 0.00175689)
(0.0126661 0 0.00210241)
(0.0125322 0 0.00244246)
(0.0125773 0 0.00271099)
(0.0126911 0 0.00307597)
(0 0 0)
(0.00232975 0 5.9589e-06)
(0.00445499 0 1.15881e-05)
(0.00633062 0 1.69347e-05)
(0.00798057 0 2.22066e-05)
(0.00942646 0 2.76127e-05)
(0.0106876 0 3.33793e-05)
(0.0117812 0 3.97656e-05)
(0.0127225 0 4.70806e-05)
(0.0135251 0 5.57028e-05)
(0.014201 0 6.61025e-05)
(0.014761 0 7.88705e-05)
(0.0152145 0 9.47522e-05)
(0.0155702 0 0.000114689)
(0.0158359 0 0.000139871)
(0.016019 0 0.000171792)
(0.0161266 0 0.000212319)
(0.0161659 0 0.000263766)
(0.0161449 0 0.000328955)
(0.0160724 0 0.000411273)
(0.0159593 0 0.000514668)
(0.0158189 0 0.000643563)
(0.0156683 0 0.000802588)
(0.0155286 0 0.000996008)
(0.0154259 0 0.00122666)
(0.0153905 0 0.00149408)
(0.0154541 0 0.00179156)
(0.0156411 0 0.00210169)
(0.0159513 0 0.00239073)
(0.0163268 0 0.00260303)
(0.0168679 0 0.00287085)
(0 0 0)
(0.00233194 0 7.02773e-06)
(0.0044597 0 1.36565e-05)
(0.00633847 0 1.99323e-05)
(0.00799245 0 2.60901e-05)
(0.00944353 0 3.23633e-05)
(0.0107113 0 3.90016e-05)
(0.0118133 0 4.62871e-05)
(0.0127652 0 5.45514e-05)
(0.013581 0 6.41946e-05)
(0.0142733 0 7.57074e-05)
(0.0148537 0 8.96968e-05)
(0.0153325 0 0.000106917)
(0.0157197 0 0.000128305)
(0.0160246 0 0.000155025)
(0.0162563 0 0.000188509)
(0.0164245 0 0.000230512)
(0.0165392 0 0.000283151)
(0.016612 0 0.000348938)
(0.016656 0 0.00043078)
(0.0166872 0 0.000531911)
(0.0167245 0 0.000655727)
(0.0167906 0 0.000805413)
(0.0169118 0 0.000983296)
(0.0171171 0 0.00118974)
(0.0174347 0 0.00142146)
(0.0178848 0 0.00166919)
(0.0184658 0 0.00191497)
(0.0191298 0 0.00213005)
(0.0197467 0 0.0022753)
(0.0205973 0 0.00244728)
(0 0 0)
(0.00233435 0 8.03306e-06)
(0.00446487 0 1.55968e-05)
(0.00634709 0 2.27313e-05)
(0.00800551 0 2.96917e-05)
(0.00946233 0 3.67285e-05)
(0.0107374 0 4.41051e-05)
(0.0118487 0 5.2114e-05)
(0.0128121 0 6.10931e-05)
(0.0136423 0 7.14422e-05)
(0.0143525 0 8.36428e-05)
(0.0149548 0 9.82784e-05)
(0.0154607 0 0.00011606)
(0.0158811 0 0.000137849)
(0.0162267 0 0.000164691)
(0.0165085 0 0.000197837)
(0.016738 0 0.000238769)
(0.0169278 0 0.00028921)
(0.0170923 0 0.000351109)
(0.017248 0 0.000426595)
(0.0174143 0 0.00051785)
(0.0176139 0 0.000626885)
(0.0178727 0 0.000755149)
(0.0182192 0 0.000902911)
(0.0186818 0 0.00106833)
(0.0192833 0 0.00124624)
(0.0200311 0 0.00142669)
(0.0208999 0 0.00159398)
(0.0218051 0 0.00172731)
(0.0225694 0 0.00180535)
(0.0236124 0 0.00187925)
(0 0 0)
(0.00233687 0 8.96807e-06)
(0.00447028 0 1.73956e-05)
(0.00635613 0 2.5312e-05)
(0.00801925 0 3.29858e-05)
(0.00948216 0 4.06765e-05)
(0.0107651 0 4.86521e-05)
(0.0118861 0 5.72034e-05)
(0.0128618 0 6.6659e-05)
(0.0137071 0 7.73984e-05)
(0.0144359 0 8.98669e-05)
(0.0150608 0 0.00010459)
(0.0155943 0 0.000122189)
(0.0160481 0 0.000143394)
(0.0164343 0 0.000169055)
(0.0167649 0 0.000200147)
(0.0170531 0 0.000237764)
(0.0173134 0 0.000283095)
(0.0175617 0 0.000337369)
(0.0178166 0 0.000401762)
(0.0180992 0 0.000477237)
(0.0184335 0 0.000564311)
(0.0188459 0 0.000662706)
(0.0193638 0 0.00077089)
(0.020012 0 0.000885497)
(0.0208063 0 0.00100071)
(0.0217422 0 0.00110783)
(0.0227766 0 0.00119552)
(0.0238032 0 0.00125201)
(0.024623 0 0.00127149)
(0.0257255 0 0.00125387)
(0 0 0)
(0.00233937 0 9.82778e-06)
(0.00447567 0 1.90434e-05)
(0.00636518 0 2.76611e-05)
(0.00803312 0 3.59558e-05)
(0.00950229 0 4.41891e-05)
(0.0107932 0 5.26245e-05)
(0.0119244 0 6.15408e-05)
(0.0129126 0 7.12433e-05)
(0.0137732 0 8.2074e-05)
(0.0145206 0 9.44204e-05)
(0.0151682 0 0.000108723)
(0.0157288 0 0.000125478)
(0.016215 0 0.000145241)
(0.0166396 0 0.00016862)
(0.0170157 0 0.000196254)
(0.0173573 0 0.000228784)
(0.0176796 0 0.000266799)
(0.0179995 0 0.000310746)
(0.0183357 0 0.000360811)
(0.0187092 0 0.000416749)
(0.0191429 0 0.000477675)
(0.0196607 0 0.000541825)
(0.0202862 0 0.000606325)
(0.0210385 0 0.000667065)
(0.0219257 0 0.000718787)
(0.0229344 0 0.000755602)
(0.0240129 0 0.000772212)
(0.0250486 0 0.000766374)
(0.0258452 0 0.000744262)
(0.0268597 0 0.000668286)
(0 0 0)
(0.00234171 0 1.06091e-05)
(0.00448075 0 2.05347e-05)
(0.00637383 0 2.97714e-05)
(0.00804652 0 3.85948e-05)
(0.00952192 0 4.72617e-05)
(0.0108208 0 5.60238e-05)
(0.0119621 0 6.51386e-05)
(0.0129627 0 7.48777e-05)
(0.0138385 0 8.55324e-05)
(0.0146042 0 9.74167e-05)
(0.0152735 0 0.000110867)
(0.0158598 0 0.000126235)
(0.0163762 0 0.00014388)
(0.0168359 0 0.000164141)
(0.0172524 0 0.000187306)
(0.0176399 0 0.000213551)
(0.0180137 0 0.000242871)
(0.0183902 0 0.00027497)
(0.0187869 0 0.000309127)
(0.0192228 0 0.000344042)
(0.0197176 0 0.000377676)
(0.0202905 0 0.00040714)
(0.0209588 0 0.000428715)
(0.0217343 0 0.000438148)
(0.0226181 0 0.000431441)
(0.023592 0 0.000406287)
(0.0246057 0 0.000364173)
(0.0255579 0 0.000312669)
(0.0262762 0 0.00026721)
(0.0271578 0 0.000192769)
(0 0 0)
(0.00234372 0 1.13107e-05)
(0.00448521 0 2.18675e-05)
(0.00638161 0 3.1642e-05)
(0.00805882 0 4.09049e-05)
(0.00954026 0 4.99026e-05)
(0.010847 0 5.88691e-05)
(0.011998 0 6.80339e-05)
(0.0130106 0 7.76273e-05)
(0.013901 0 8.78816e-05)
(0.0146839 0 9.90284e-05)
(0.0153735 0 0.000111292)
(0.0159834 0 0.000124873)
(0.016527 0 0.000139929)
(0.0170174 0 0.000156538)
(0.0174681 0 0.00017465)
(0.0178931 0 0.000194019)
(0.0183066 0 0.000214116)
(0.0187237 0 0.000234017)
(0.0191597 0 0.000252277)
(0.01963 0 0.0002668)
(0.0201496 0 0.00027474)
(0.0207312 0 0.000272493)
(0.0213845 0 0.000255903)
(0.022113 0 0.000220848)
(0.0229108 0 0.000164483)
(0.0237585 0 8.74035e-05)
(0.0246155 0 -3.30502e-06)
(0.0254083 0 -9.13218e-05)
(0.0260087 0 -0.000152664)
(0.0267647 0 -0.000205855)
(0 0 0)
(0.00234526 0 1.1933e-05)
(0.00448875 0 2.30437e-05)
(0.00638805 0 3.32777e-05)
(0.00806942 0 4.28963e-05)
(0.00955651 0 5.21313e-05)
(0.0108706 0 6.11946e-05)
(0.0120308 0 7.02834e-05)
(0.0130548 0 7.95828e-05)
(0.0139587 0 8.92626e-05)
(0.0147575 0 9.94704e-05)
(0.0154656 0 0.000110318)
(0.0160966 0 0.000121863)
(0.0166636 0 0.000134075)
(0.0171798 0 0.000146798)
(0.0176581 0 0.000159693)
(0.0181116 0 0.000172168)
(0.0185531 0 0.000183289)
(0.0189956 0 0.00019168)
(0.0194514 0 0.000195415)
(0.0199316 0 0.000191927)
(0.0204453 0 0.000177961)
(0.0209986 0 0.000149638)
(0.0215925 0 0.000102716)
(0.0222216 0 3.32312e-05)
(0.022873 0 -6.12453e-05)
(0.0235257 0 -0.000179346)
(0.0241512 0 -0.000312258)
(0.0247119 0 -0.000439185)
(0.0251446 0 -0.000526939)
(0.0257754 0 -0.000573221)
(0 0 0)
(0.00234613 0 1.24782e-05)
(0.00449102 0 2.40681e-05)
(0.00639268 0 3.46879e-05)
(0.00807768 0 4.45858e-05)
(0.00956988 0 5.39761e-05)
(0.0108907 0 6.30459e-05)
(0.0120595 0 7.19587e-05)
(0.0130938 0 8.08532e-05)
(0.01401 0 8.9838e-05)
(0.0148232 0 9.89809e-05)
(0.0155475 0 0.000108292)
(0.0161965 0 0.000117699)
(0.0167831 0 0.000127015)
(0.01732 0 0.000135894)
(0.0178193 0 0.000143778)
(0.0182927 0 0.00014983)
(0.0187516 0 0.000152858)
(0.0192062 0 0.000151234)
(0.0196655 0 0.000142826)
(0.0201364 0 0.000124944)
(0.0206223 0 9.43492e-05)
(0.0211224 0 4.73486e-05)
(0.02163 0 -1.99547e-05)
(0.0221313 0 -0.000111192)
(0.0226056 0 -0.000228916)
(0.0230271 0 -0.000373169)
(0.0233714 0 -0.000538686)
(0.0236272 0 -0.000708897)
(0.0238043 0 -0.000845125)
(0.0242195 0 -0.000977839)
(0 0 0)
(0.00234617 0 1.29492e-05)
(0.00449171 0 2.49477e-05)
(0.00639505 0 3.58854e-05)
(0.00808303 0 4.5995e-05)
(0.00957966 0 5.54714e-05)
(0.0109065 0 6.44764e-05)
(0.0120828 0 7.31398e-05)
(0.0131265 0 8.15565e-05)
(0.0140535 0 8.9779e-05)
(0.0148792 0 9.78046e-05)
(0.0156173 0 0.000105556)
(0.0162813 0 0.000112859)
(0.0168836 0 0.000119405)
(0.0174362 0 0.000124714)
(0.0179502 0 0.000128089)
(0.018436 0 0.00012856)
(0.0189031 0 0.000124827)
(0.0193591 0 0.000115217)
(0.01981 0 9.76506e-05)
(0.0202586 0 6.96444e-05)
(0.0207039 0 2.83754e-05)
(0.0211394 0 -2.91788e-05)
(0.0215528 0 -0.000106004)
(0.0219242 0 -0.000204727)
(0.0222266 0 -0.000327279)
(0.0224282 0 -0.000474666)
(0.0224989 0 -0.000646777)
(0.0224263 0 -0.000840066)
(0.0222592 0 -0.00102869)
(0.0219502 0 -0.00135891)
(0 0 0)
(0.00234519 0 1.33535e-05)
(0.00449047 0 2.56981e-05)
(0.00639469 0 3.68946e-05)
(0.00808488 0 4.7159e-05)
(0.00958517 0 5.6666e-05)
(0.0109171 0 6.55525e-05)
(0.0121001 0 7.39166e-05)
(0.0131518 0 8.18138e-05)
(0.0140884 0 8.92482e-05)
(0.0149246 0 9.61586e-05)
(0.0156743 0 0.000102401)
(0.0163503 0 0.000107724)
(0.0169646 0 0.000111742)
(0.0175284 0 0.000113899)
(0.0180518 0 0.000113436)
(0.0185436 0 0.000109357)
(0.0190115 0 0.000100397)
(0.0194612 0 8.50109e-05)
(0.0198957 0 6.13922e-05)
(0.0203149 0 2.75299e-05)
(0.0207145 0 -1.86608e-05)
(0.0210851 0 -7.91285e-05)
(0.0214112 0 -0.000155376)
(0.0216713 0 -0.000248035)
(0.0218378 0 -0.00035635)
(0.0218794 0 -0.000477504)
(0.0217658 0 -0.000605366)
(0.0214793 0 -0.000726986)
(0.0210563 0 -0.000805292)
(0.0192686 0 -0.00154152)
(0 0 0)
(0.00232458 0 0)
(0.00444358 0 0)
(0.00631135 0 0)
(0.00795119 0 0)
(0.00938409 0 0)
(0.0106286 0 0)
(0.011701 0 0)
(0.0126156 0 0)
(0.0133844 0 0)
(0.014018 0 0)
(0.0145246 0 0)
(0.0149111 0 0)
(0.0151823 0 0)
(0.0153411 0 0)
(0.0153887 0 0)
(0.0153241 0 0)
(0.0151441 0 0)
(0.0148432 0 0)
(0.0144138 0 0)
(0.0138459 0 0)
(0.0131278 0 0)
(0.0122471 0 0)
(0.0111926 0 0)
(0.00995741 0 0)
(0.00854503 0 0)
(0.00697859 0 0)
(0.00531794 0 0)
(0.00369228 0 0)
(0.00238273 0 0)
(0 0 0)
(0 0 0)
(0.00232466 0 1.23653e-06)
(0.00444391 0 2.40878e-06)
(0.006312 0 3.53031e-06)
(0.00795227 0 4.64843e-06)
(0.00938572 0 5.81181e-06)
(0.0106309 0 7.07456e-06)
(0.0117043 0 8.5004e-06)
(0.01262 0 1.01674e-05)
(0.0133903 0 1.2174e-05)
(0.0140257 0 1.46454e-05)
(0.0145347 0 1.77437e-05)
(0.0149241 0 2.1679e-05)
(0.015199 0 2.67245e-05)
(0.0153627 0 3.3236e-05)
(0.0154164 0 4.1676e-05)
(0.0153597 0 5.26441e-05)
(0.0151899 0 6.69138e-05)
(0.0149023 0 8.54767e-05)
(0.0144899 0 0.000109594)
(0.0139441 0 0.000140851)
(0.0132545 0 0.000181218)
(0.0124106 0 0.000233095)
(0.0114032 0 0.000299341)
(0.0102282 0 0.000383233)
(0.00889209 0 0.000488274)
(0.00742191 0 0.000617628)
(0.00588171 0 0.000772544)
(0.00440338 0 0.000947838)
(0.00325476 0 0.00111787)
(0.00162043 0 0.00147598)
(0 0 0)
(0.00232528 0 2.46247e-06)
(0.00444528 0 4.79581e-06)
(0.00631435 0 7.02606e-06)
(0.00795588 0 9.24638e-06)
(0.00939096 0 1.15523e-05)
(0.0106383 0 1.40498e-05)
(0.0117143 0 1.6863e-05)
(0.0126334 0 2.01438e-05)
(0.013408 0 2.40828e-05)
(0.0140489 0 2.89223e-05)
(0.0145647 0 3.49742e-05)
(0.0149629 0 4.2642e-05)
(0.0152489 0 5.24487e-05)
(0.0154267 0 6.50731e-05)
(0.0154985 0 8.13941e-05)
(0.015465 0 0.000102547)
(0.015325 0 0.000129989)
(0.0150758 0 0.000165579)
(0.0147132 0 0.000211666)
(0.0142314 0 0.000271178)
(0.0136244 0 0.000347711)
(0.0128865 0 0.000445574)
(0.0120145 0 0.000569768)
(0.011011 0 0.000725768)
(0.00989044 0 0.000918925)
(0.00868718 0 0.00115298)
(0.0074703 0 0.00142648)
(0.00636491 0 0.00172423)
(0.00558734 0 0.00199582)
(0.0045487 0 0.00245356)
(0 0 0)
(0.00232637 0 3.66592e-06)
(0.00444766 0 7.13696e-06)
(0.00631836 0 1.04496e-05)
(0.00796198 0 1.37398e-05)
(0.00939974 0 1.71465e-05)
(0.0106505 0 2.08227e-05)
(0.0117309 0 2.49472e-05)
(0.0126555 0 2.97371e-05)
(0.0134372 0 3.54633e-05)
(0.0140868 0 4.24686e-05)
(0.0146138 0 5.11921e-05)
(0.015026 0 6.21983e-05)
(0.0153298 0 7.62153e-05)
(0.0155302 0 9.41818e-05)
(0.0156309 0 0.000117306)
(0.0156343 0 0.000147138)
(0.0155416 0 0.000185651)
(0.0153531 0 0.00023534)
(0.0150684 0 0.00029932)
(0.0146868 0 0.000381422)
(0.014208 0 0.000486252)
(0.0136336 0 0.000619183)
(0.0129684 0 0.000786161)
(0.0122242 0 0.000993202)
(0.0114235 0 0.0012452)
(0.0106057 0 0.00154343)
(0.00983533 0 0.00188045)
(0.00920808 0 0.00222984)
(0.00885364 0 0.00252633)
(0.00842289 0 0.0029682)
(0 0 0)
(0.00232787 0 4.83502e-06)
(0.00445094 0 9.40836e-06)
(0.00632384 0 1.37637e-05)
(0.00797029 0 1.80758e-05)
(0.0094117 0 2.25217e-05)
(0.0106671 0 2.72951e-05)
(0.0117534 0 3.26203e-05)
(0.0126856 0 3.87678e-05)
(0.0134766 0 4.60722e-05)
(0.0141381 0 5.4954e-05)
(0.01468 0 6.59472e-05)
(0.015111 0 7.97328e-05)
(0.0154384 0 9.7182e-05)
(0.0156687 0 0.000119408)
(0.0158072 0 0.000147831)
(0.0158587 0 0.00018425)
(0.0158272 0 0.000230934)
(0.0157169 0 0.000290706)
(0.0155317 0 0.000367036)
(0.0152769 0 0.000464099)
(0.0149589 0 0.000586771)
(0.0145874 0 0.000740497)
(0.014176 0 0.000930898)
(0.0137447 0 0.00116292)
(0.0133219 0 0.00143919)
(0.0129462 0 0.00175689)
(0.0126661 0 0.00210241)
(0.0125322 0 0.00244246)
(0.0125773 0 0.00271099)
(0.0126911 0 0.00307597)
(0 0 0)
(0.00232975 0 5.9589e-06)
(0.00445499 0 1.15881e-05)
(0.00633062 0 1.69347e-05)
(0.00798057 0 2.22066e-05)
(0.00942646 0 2.76127e-05)
(0.0106876 0 3.33793e-05)
(0.0117812 0 3.97656e-05)
(0.0127225 0 4.70806e-05)
(0.0135251 0 5.57028e-05)
(0.014201 0 6.61025e-05)
(0.014761 0 7.88705e-05)
(0.0152145 0 9.47522e-05)
(0.0155702 0 0.000114689)
(0.0158359 0 0.000139871)
(0.016019 0 0.000171792)
(0.0161266 0 0.000212319)
(0.0161659 0 0.000263766)
(0.0161449 0 0.000328955)
(0.0160724 0 0.000411273)
(0.0159593 0 0.000514668)
(0.0158189 0 0.000643563)
(0.0156683 0 0.000802588)
(0.0155286 0 0.000996008)
(0.0154259 0 0.00122666)
(0.0153905 0 0.00149408)
(0.0154541 0 0.00179156)
(0.0156411 0 0.00210169)
(0.0159513 0 0.00239073)
(0.0163268 0 0.00260303)
(0.0168679 0 0.00287085)
(0 0 0)
(0.00233194 0 7.02773e-06)
(0.0044597 0 1.36565e-05)
(0.00633847 0 1.99323e-05)
(0.00799245 0 2.60901e-05)
(0.00944353 0 3.23633e-05)
(0.0107113 0 3.90016e-05)
(0.0118133 0 4.62871e-05)
(0.0127652 0 5.45514e-05)
(0.013581 0 6.41946e-05)
(0.0142733 0 7.57074e-05)
(0.0148537 0 8.96968e-05)
(0.0153325 0 0.000106917)
(0.0157197 0 0.000128305)
(0.0160246 0 0.000155025)
(0.0162563 0 0.000188509)
(0.0164245 0 0.000230512)
(0.0165392 0 0.000283151)
(0.016612 0 0.000348938)
(0.016656 0 0.00043078)
(0.0166872 0 0.000531911)
(0.0167245 0 0.000655727)
(0.0167906 0 0.000805413)
(0.0169118 0 0.000983296)
(0.0171171 0 0.00118974)
(0.0174347 0 0.00142146)
(0.0178848 0 0.00166919)
(0.0184658 0 0.00191497)
(0.0191298 0 0.00213005)
(0.0197467 0 0.0022753)
(0.0205973 0 0.00244728)
(0 0 0)
(0.00233435 0 8.03306e-06)
(0.00446487 0 1.55968e-05)
(0.00634709 0 2.27313e-05)
(0.00800551 0 2.96917e-05)
(0.00946233 0 3.67285e-05)
(0.0107374 0 4.41051e-05)
(0.0118487 0 5.2114e-05)
(0.0128121 0 6.10931e-05)
(0.0136423 0 7.14422e-05)
(0.0143525 0 8.36428e-05)
(0.0149548 0 9.82784e-05)
(0.0154607 0 0.00011606)
(0.0158811 0 0.000137849)
(0.0162267 0 0.000164691)
(0.0165085 0 0.000197837)
(0.016738 0 0.000238769)
(0.0169278 0 0.00028921)
(0.0170923 0 0.000351109)
(0.017248 0 0.000426595)
(0.0174143 0 0.00051785)
(0.0176139 0 0.000626885)
(0.0178727 0 0.000755149)
(0.0182192 0 0.000902911)
(0.0186818 0 0.00106833)
(0.0192833 0 0.00124624)
(0.0200311 0 0.00142669)
(0.0208999 0 0.00159398)
(0.0218051 0 0.00172731)
(0.0225694 0 0.00180535)
(0.0236124 0 0.00187925)
(0 0 0)
(0.00233687 0 8.96807e-06)
(0.00447028 0 1.73956e-05)
(0.00635613 0 2.5312e-05)
(0.00801925 0 3.29858e-05)
(0.00948216 0 4.06765e-05)
(0.0107651 0 4.86521e-05)
(0.0118861 0 5.72034e-05)
(0.0128618 0 6.6659e-05)
(0.0137071 0 7.73984e-05)
(0.0144359 0 8.98669e-05)
(0.0150608 0 0.00010459)
(0.0155943 0 0.000122189)
(0.0160481 0 0.000143394)
(0.0164343 0 0.000169055)
(0.0167649 0 0.000200147)
(0.0170531 0 0.000237764)
(0.0173134 0 0.000283095)
(0.0175617 0 0.000337369)
(0.0178166 0 0.000401762)
(0.0180992 0 0.000477237)
(0.0184335 0 0.000564311)
(0.0188459 0 0.000662706)
(0.0193638 0 0.00077089)
(0.020012 0 0.000885497)
(0.0208063 0 0.00100071)
(0.0217422 0 0.00110783)
(0.0227766 0 0.00119552)
(0.0238032 0 0.00125201)
(0.024623 0 0.00127149)
(0.0257255 0 0.00125387)
(0 0 0)
(0.00233937 0 9.82778e-06)
(0.00447567 0 1.90434e-05)
(0.00636518 0 2.76611e-05)
(0.00803312 0 3.59558e-05)
(0.00950229 0 4.41891e-05)
(0.0107932 0 5.26245e-05)
(0.0119244 0 6.15408e-05)
(0.0129126 0 7.12433e-05)
(0.0137732 0 8.2074e-05)
(0.0145206 0 9.44204e-05)
(0.0151682 0 0.000108723)
(0.0157288 0 0.000125478)
(0.016215 0 0.000145241)
(0.0166396 0 0.00016862)
(0.0170157 0 0.000196254)
(0.0173573 0 0.000228784)
(0.0176796 0 0.000266799)
(0.0179995 0 0.000310746)
(0.0183357 0 0.000360811)
(0.0187092 0 0.000416749)
(0.0191429 0 0.000477675)
(0.0196607 0 0.000541825)
(0.0202862 0 0.000606325)
(0.0210385 0 0.000667065)
(0.0219257 0 0.000718787)
(0.0229344 0 0.000755602)
(0.0240129 0 0.000772212)
(0.0250486 0 0.000766374)
(0.0258452 0 0.000744262)
(0.0268597 0 0.000668286)
(0 0 0)
(0.00234171 0 1.06091e-05)
(0.00448075 0 2.05347e-05)
(0.00637383 0 2.97714e-05)
(0.00804652 0 3.85948e-05)
(0.00952192 0 4.72617e-05)
(0.0108208 0 5.60238e-05)
(0.0119621 0 6.51386e-05)
(0.0129627 0 7.48777e-05)
(0.0138385 0 8.55324e-05)
(0.0146042 0 9.74167e-05)
(0.0152735 0 0.000110867)
(0.0158598 0 0.000126235)
(0.0163762 0 0.00014388)
(0.0168359 0 0.000164141)
(0.0172524 0 0.000187306)
(0.0176399 0 0.000213551)
(0.0180137 0 0.000242871)
(0.0183902 0 0.00027497)
(0.0187869 0 0.000309127)
(0.0192228 0 0.000344042)
(0.0197176 0 0.000377676)
(0.0202905 0 0.00040714)
(0.0209588 0 0.000428715)
(0.0217343 0 0.000438148)
(0.0226181 0 0.000431441)
(0.023592 0 0.000406287)
(0.0246057 0 0.000364173)
(0.0255579 0 0.000312669)
(0.0262762 0 0.00026721)
(0.0271578 0 0.000192769)
(0 0 0)
(0.00234372 0 1.13107e-05)
(0.00448521 0 2.18675e-05)
(0.00638161 0 3.1642e-05)
(0.00805882 0 4.09049e-05)
(0.00954026 0 4.99026e-05)
(0.010847 0 5.88691e-05)
(0.011998 0 6.80339e-05)
(0.0130106 0 7.76273e-05)
(0.013901 0 8.78816e-05)
(0.0146839 0 9.90284e-05)
(0.0153735 0 0.000111292)
(0.0159834 0 0.000124873)
(0.016527 0 0.000139929)
(0.0170174 0 0.000156538)
(0.0174681 0 0.00017465)
(0.0178931 0 0.000194019)
(0.0183066 0 0.000214116)
(0.0187237 0 0.000234017)
(0.0191597 0 0.000252277)
(0.01963 0 0.0002668)
(0.0201496 0 0.00027474)
(0.0207312 0 0.000272493)
(0.0213845 0 0.000255903)
(0.022113 0 0.000220848)
(0.0229108 0 0.000164483)
(0.0237585 0 8.74035e-05)
(0.0246155 0 -3.30502e-06)
(0.0254083 0 -9.13218e-05)
(0.0260087 0 -0.000152664)
(0.0267647 0 -0.000205855)
(0 0 0)
(0.00234526 0 1.1933e-05)
(0.00448875 0 2.30437e-05)
(0.00638805 0 3.32777e-05)
(0.00806942 0 4.28963e-05)
(0.00955651 0 5.21313e-05)
(0.0108706 0 6.11946e-05)
(0.0120308 0 7.02834e-05)
(0.0130548 0 7.95828e-05)
(0.0139587 0 8.92626e-05)
(0.0147575 0 9.94704e-05)
(0.0154656 0 0.000110318)
(0.0160966 0 0.000121863)
(0.0166636 0 0.000134075)
(0.0171798 0 0.000146798)
(0.0176581 0 0.000159693)
(0.0181116 0 0.000172168)
(0.0185531 0 0.000183289)
(0.0189956 0 0.00019168)
(0.0194514 0 0.000195415)
(0.0199316 0 0.000191927)
(0.0204453 0 0.000177961)
(0.0209986 0 0.000149638)
(0.0215925 0 0.000102716)
(0.0222216 0 3.32312e-05)
(0.022873 0 -6.12453e-05)
(0.0235257 0 -0.000179346)
(0.0241512 0 -0.000312258)
(0.0247119 0 -0.000439185)
(0.0251446 0 -0.000526939)
(0.0257754 0 -0.000573221)
(0 0 0)
(0.00234613 0 1.24782e-05)
(0.00449102 0 2.40681e-05)
(0.00639268 0 3.46879e-05)
(0.00807768 0 4.45858e-05)
(0.00956988 0 5.39761e-05)
(0.0108907 0 6.30459e-05)
(0.0120595 0 7.19587e-05)
(0.0130938 0 8.08532e-05)
(0.01401 0 8.9838e-05)
(0.0148232 0 9.89809e-05)
(0.0155475 0 0.000108292)
(0.0161965 0 0.000117699)
(0.0167831 0 0.000127015)
(0.01732 0 0.000135894)
(0.0178193 0 0.000143778)
(0.0182927 0 0.00014983)
(0.0187516 0 0.000152858)
(0.0192062 0 0.000151234)
(0.0196655 0 0.000142826)
(0.0201364 0 0.000124944)
(0.0206223 0 9.43492e-05)
(0.0211224 0 4.73486e-05)
(0.02163 0 -1.99547e-05)
(0.0221313 0 -0.000111192)
(0.0226056 0 -0.000228916)
(0.0230271 0 -0.000373169)
(0.0233714 0 -0.000538686)
(0.0236272 0 -0.000708897)
(0.0238043 0 -0.000845125)
(0.0242195 0 -0.000977838)
(0 0 0)
(0.00234617 0 1.29492e-05)
(0.00449171 0 2.49477e-05)
(0.00639505 0 3.58854e-05)
(0.00808303 0 4.5995e-05)
(0.00957966 0 5.54714e-05)
(0.0109065 0 6.44764e-05)
(0.0120828 0 7.31398e-05)
(0.0131265 0 8.15565e-05)
(0.0140535 0 8.9779e-05)
(0.0148792 0 9.78046e-05)
(0.0156173 0 0.000105556)
(0.0162813 0 0.000112859)
(0.0168836 0 0.000119405)
(0.0174362 0 0.000124714)
(0.0179502 0 0.000128089)
(0.018436 0 0.00012856)
(0.0189031 0 0.000124827)
(0.0193591 0 0.000115217)
(0.01981 0 9.76506e-05)
(0.0202586 0 6.96444e-05)
(0.0207039 0 2.83754e-05)
(0.0211394 0 -2.91788e-05)
(0.0215528 0 -0.000106004)
(0.0219242 0 -0.000204727)
(0.0222266 0 -0.000327279)
(0.0224282 0 -0.000474666)
(0.0224989 0 -0.000646777)
(0.0224263 0 -0.000840066)
(0.0222592 0 -0.00102869)
(0.0219502 0 -0.00135891)
(0 0 0)
(0.00234519 0 1.33535e-05)
(0.00449047 0 2.56981e-05)
(0.00639469 0 3.68946e-05)
(0.00808488 0 4.7159e-05)
(0.00958517 0 5.6666e-05)
(0.0109171 0 6.55525e-05)
(0.0121001 0 7.39166e-05)
(0.0131518 0 8.18138e-05)
(0.0140884 0 8.92482e-05)
(0.0149246 0 9.61586e-05)
(0.0156743 0 0.000102401)
(0.0163503 0 0.000107724)
(0.0169646 0 0.000111742)
(0.0175284 0 0.000113899)
(0.0180518 0 0.000113436)
(0.0185436 0 0.000109357)
(0.0190115 0 0.000100397)
(0.0194612 0 8.50109e-05)
(0.0198957 0 6.13922e-05)
(0.0203149 0 2.75299e-05)
(0.0207145 0 -1.86608e-05)
(0.0210851 0 -7.91285e-05)
(0.0214112 0 -0.000155376)
(0.0216713 0 -0.000248035)
(0.0218378 0 -0.00035635)
(0.0218794 0 -0.000477504)
(0.0217658 0 -0.000605366)
(0.0214793 0 -0.000726986)
(0.0210563 0 -0.000805292)
(0.0192686 0 -0.00154152)
(0 0 0)
(0.00255558 0 0)
(0.00407873 0 0)
(0.00594081 0 0)
(0.00781701 0 0)
(0.00954936 0 0)
(0.0110724 0 0)
(0.0123688 0 0)
(0.0134453 0 0)
(0.0143186 0 0)
(0.0150087 0 0)
(0.0155344 0 0)
(0.0159125 0 0)
(0.0161563 0 0)
(0.016276 0 0)
(0.0162784 0 0)
(0.0161676 0 0)
(0.0159454 0 0)
(0.0156107 0 0)
(0.0151607 0 0)
(0.0145907 0 0)
(0.0138939 0 0)
(0.0130619 0 0)
(0.0120844 0 0)
(0.0109497 0 0)
(0.00964377 0 0)
(0.00815114 0 0)
(0.0064542 0 0)
(0.0045334 0 0)
(0.00236695 0 0)
(0 0 0)
(0.0015159 0 -0.00137422)
(0.0034037 0 -0.00106265)
(0.00479912 0 -0.000926511)
(0.00652439 0 -0.000766344)
(0.00827879 0 -0.00061453)
(0.00990962 0 -0.000482188)
(0.0113508 0 -0.000371798)
(0.0125828 0 -0.000282219)
(0.0136091 0 -0.000210913)
(0.0144437 0 -0.000154973)
(0.0151042 0 -0.000111603)
(0.0156074 0 -7.83219e-05)
(0.0159683 0 -5.3023e-05)
(0.016199 0 -3.39735e-05)
(0.0163087 0 -1.97763e-05)
(0.0163035 0 -9.32338e-06)
(0.0161869 0 -1.74615e-06)
(0.0159601 0 3.62927e-06)
(0.015622 0 7.32146e-06)
(0.0151694 0 9.72648e-06)
(0.0145973 0 1.11446e-05)
(0.0138988 0 1.18014e-05)
(0.0130655 0 1.18647e-05)
(0.0120871 0 1.14573e-05)
(0.0109516 0 1.0667e-05)
(0.00964512 0 9.55396e-06)
(0.00815205 0 8.15633e-06)
(0.00645479 0 6.49468e-06)
(0.00453374 0 4.57512e-06)
(0.00236707 0 2.39188e-06)
(0 0 0)
(0.00437142 0 -0.00230116)
(0.00569347 0 -0.00191163)
(0.00678607 0 -0.00168485)
(0.00815946 0 -0.00140809)
(0.00958606 0 -0.00113833)
(0.0109368 0 -0.000898695)
(0.0121491 0 -0.000696185)
(0.0131987 0 -0.000530296)
(0.0140822 0 -0.000397297)
(0.0148063 0 -0.00029237)
(0.0153818 0 -0.00021065)
(0.0158199 0 -0.000147701)
(0.0161312 0 -9.97001e-05)
(0.016324 0 -6.3461e-05)
(0.0164047 0 -3.63955e-05)
(0.0163773 0 -1.64363e-05)
(0.0162437 0 -1.95433e-06)
(0.0160038 0 8.32025e-06)
(0.0156555 0 1.53685e-05)
(0.0151951 0 1.99423e-05)
(0.0146168 0 2.26132e-05)
(0.0139136 0 2.38122e-05)
(0.0130766 0 2.386e-05)
(0.0120953 0 2.2992e-05)
(0.0109576 0 2.13762e-05)
(0.00964942 0 1.91277e-05)
(0.00815507 0 1.63192e-05)
(0.00645684 0 1.29891e-05)
(0.00453504 0 9.14764e-06)
(0.00236772 0 4.78169e-06)
(0 0 0)
(0.00819547 0 -0.00284323)
(0.00892691 0 -0.00244809)
(0.00964927 0 -0.00218148)
(0.0105603 0 -0.00184509)
(0.0115344 0 -0.00150718)
(0.0124859 0 -0.00120001)
(0.0133646 0 -0.000935857)
(0.0141442 0 -0.000716531)
(0.0148137 0 -0.000538794)
(0.0153705 0 -0.000397345)
(0.0158161 0 -0.000286381)
(0.0161542 0 -0.000200386)
(0.0163886 0 -0.000134473)
(0.0165223 0 -8.44978e-05)
(0.0165577 0 -4.70442e-05)
(0.0164954 0 -1.93539e-05)
(0.0163349 0 7.66608e-07)
(0.0160742 0 1.50401e-05)
(0.0157097 0 2.48066e-05)
(0.0152366 0 3.10993e-05)
(0.0146486 0 3.47076e-05)
(0.0139377 0 3.62288e-05)
(0.0130947 0 3.61096e-05)
(0.0121088 0 3.4678e-05)
(0.0109674 0 3.21685e-05)
(0.00965648 0 2.8741e-05)
(0.00816004 0 2.44957e-05)
(0.00646021 0 1.94836e-05)
(0.00453717 0 1.37154e-05)
(0.00236878 0 7.16767e-06)
(0 0 0)
(0.0124453 0 -0.00303071)
(0.0126282 0 -0.00266555)
(0.0129632 0 -0.00239552)
(0.0133823 0 -0.00204869)
(0.0138602 0 -0.00169163)
(0.0143613 0 -0.00135973)
(0.0148547 0 -0.00106881)
(0.0153164 0 -0.00082338)
(0.0157298 0 -0.000621809)
(0.0160834 0 -0.000459568)
(0.0163697 0 -0.000331063)
(0.0165835 0 -0.000230649)
(0.0167214 0 -0.000153141)
(0.0167805 0 -9.40276e-05)
(0.0167579 0 -4.95152e-05)
(0.0166508 0 -1.64939e-05)
(0.0164554 0 7.5415e-06)
(0.0161674 0 2.45812e-05)
(0.0157818 0 3.6188e-05)
(0.0152921 0 4.35769e-05)
(0.014691 0 4.76834e-05)
(0.0139699 0 4.92197e-05)
(0.0131189 0 4.87206e-05)
(0.0121267 0 4.65802e-05)
(0.0109805 0 4.30802e-05)
(0.00966586 0 3.84117e-05)
(0.00816659 0 3.26924e-05)
(0.00646463 0 2.59789e-05)
(0.00453994 0 1.82769e-05)
(0.00237014 0 9.54838e-06)
(0 0 0)
(0.0166508 0 -0.00290582)
(0.0163617 0 -0.00259269)
(0.0163334 0 -0.00234601)
(0.0162919 0 -0.00202677)
(0.0162958 0 -0.00169162)
(0.0163562 0 -0.00137337)
(0.0164635 0 -0.00108879)
(0.0165998 0 -0.000844354)
(0.0167458 0 -0.000640419)
(0.0168837 0 -0.000474)
(0.016998 0 -0.000340589)
(0.0170759 0 -0.000235245)
(0.0171068 0 -0.000153194)
(0.0170819 0 -9.01409e-05)
(0.0169935 0 -4.2377e-05)
(0.0168347 0 -6.79716e-06)
(0.0165989 0 1.91447e-05)
(0.0162791 0 3.75021e-05)
(0.0158683 0 4.99095e-05)
(0.0153589 0 5.76524e-05)
(0.0147422 0 6.17304e-05)
(0.0140088 0 6.29108e-05)
(0.0131481 0 6.17735e-05)
(0.0121483 0 5.87473e-05)
(0.0109962 0 5.41382e-05)
(0.00967707 0 4.81524e-05)
(0.00817437 0 4.09133e-05)
(0.00646982 0 3.24744e-05)
(0.00454315 0 2.28299e-05)
(0.0023717 0 1.19222e-05)
(0 0 0)
(0.0204256 0 -0.00252704)
(0.0197671 0 -0.00227519)
(0.0194325 0 -0.00207313)
(0.0190055 0 -0.00180987)
(0.0186059 0 -0.0015278)
(0.0182822 0 -0.00125364)
(0.0180444 0 -0.00100288)
(0.0178825 0 -0.000782961)