/*--------------------------------*- C++ -*----------------------------------*\
  =========                 |
  \\      /  F ield         | OpenFOAM: The Open Source CFD Toolbox
   \\    /   O peration     | Website:  https://openfoam.org
    \\  /    A nd           | Version:  7
     \\/     M anipulation  |
\*---------------------------------------------------------------------------*/
FoamFile
{
    version     2.0;
    format      ascii;
    class       volVectorField;
    location    "0.2";
    object      U;
}
// * * * * * * * * * * * * * * * * * * * * * * * * * * * * * * * * * * * * * //

dimensions      [0 1 -1 0 0 0 0];

internalField   nonuniform List<vector> 
2790
(
(9.93769 0 0.02)
(9.87528 9.41232e-22 0.0284058)
(9.78177 0 0.0341696)
(9.66272 0 0.040093)
(9.52536 -1.01504e-21 0.0462408)
(9.37146 -1.04895e-21 0.0525358)
(9.2003 0 0.0590655)
(9.01097 2.28396e-21 0.0659303)
(8.80286 1.22487e-21 0.0731908)
(8.57544 -2.44548e-21 0.0808811)
(8.32822 5.24459e-21 0.089026)
(8.0607 -5.39186e-21 0.0976498)
(7.77245 0 0.106781)
(7.46311 -1.23386e-20 0.116455)
(7.13243 1.27471e-20 0.12671)
(6.78023 -1.37176e-20 0.137589)
(6.40647 1.50488e-20 0.149121)
(6.01129 -1.52326e-20 0.16132)
(5.59506 -3.34436e-20 0.174158)
(5.15855 -7.27466e-20 0.187563)
(4.70299 -4.14511e-20 0.201392)
(4.23021 3.32842e-19 0.215436)
(3.74276 -3.59296e-19 0.229416)
(3.24399 4.87526e-19 0.243016)
(2.73796 -6.31325e-19 0.255942)
(2.22934 -6.2549e-21 0.268025)
(1.72156 2.4502e-19 0.279762)
(1.23829 0 0.287835)
(0.654033 0 0.307803)
(0.422504 0 0.326365)
(9.99303 0 0.0390919)
(9.98253 -9.35667e-22 0.0589327)
(9.94433 0 0.0739102)
(9.87977 0 0.0896515)
(9.79461 9.85304e-22 0.106401)
(9.69054 7.21437e-21 0.123987)
(9.56685 -4.21903e-21 0.142614)
(9.4224 0 0.162546)
(9.25627 -1.03872e-20 0.183955)
(9.06757 -1.9919e-22 0.206938)
(8.85542 9.86373e-21 0.231547)
(8.61894 2.11625e-20 0.25781)
(8.35731 -2.17083e-20 0.285736)
(8.06985 -4.69309e-20 0.315322)
(7.75597 4.83056e-20 0.346552)
(7.41525 1.29682e-20 0.379381)
(7.04743 -7.03687e-20 0.41372)
(6.65246 1.0096e-19 0.449401)
(6.23058 3.12709e-20 0.486147)
(5.78236 2.70708e-19 0.523529)
(5.30884 -6.0867e-19 0.560936)
(4.81163 3.04076e-19 0.597562)
(4.29297 6.69135e-19 0.632414)
(3.75578 2.81145e-19 0.664373)
(3.20363 4.05539e-19 0.69232)
(2.64067 -3.76565e-18 0.715335)
(2.06861 2.03481e-18 0.733449)
(1.51247 -4.46698e-18 0.743983)
(0.852082 3.75406e-18 0.763382)
(0.498138 -5.9441e-18 0.76818)
(9.99011 0 0.0404711)
(9.9766 0 0.0696285)
(9.94027 0 0.0948247)
(9.88017 0 0.121031)
(9.80073 -1.98624e-21 0.148953)
(9.70374 0 0.178581)
(9.58868 0 0.210232)
(9.45449 0 0.244312)
(9.30019 0 0.281124)
(9.12482 4.68809e-21 0.32086)
(8.92735 0 0.363638)
(8.70671 0 0.40952)
(8.46185 1.07103e-20 0.458536)
(8.1918 0 0.510689)
(7.89566 0 0.565953)
(7.57266 2.50103e-20 0.624265)
(7.22212 -2.66049e-20 0.685488)
(6.84356 5.60947e-20 0.749374)
(6.43667 5.95971e-20 0.815499)
(6.0014 -6.34552e-20 0.883209)
(5.53807 0 0.95156)
(5.04744 0 1.01928)
(4.5308 1.55255e-19 1.08479)
(3.9901 1.65808e-19 1.14621)
(3.42789 1.80824e-19 1.20162)
(2.84763 3.90582e-19 1.24923)
(2.24959 2.97439e-18 1.28849)
(1.66173 -3.1913e-18 1.31625)
(0.969698 4.49472e-18 1.34879)
(0.547742 -3.27684e-18 1.3588)
(9.98852 0 0.0456561)
(9.97278 4.63917e-21 0.08542)
(9.9362 -2.83507e-21 0.121855)
(9.87725 -1.94766e-21 0.158649)
(9.79943 3.92631e-21 0.197157)
(9.70445 0 0.237829)
(9.59202 -8.41045e-21 0.281196)
(9.4612 2.16439e-20 0.327849)
(9.31114 -3.57237e-20 0.378274)
(9.14094 1.37144e-20 0.432826)
(8.94966 0 0.491751)
(8.7363 0 0.555216)
(8.49984 -1.05502e-20 0.623332)
(8.23929 8.9388e-20 0.696168)
(7.95368 -1.85433e-19 0.773752)
(7.64212 7.18369e-20 0.856063)
(7.30373 2.08525e-19 0.942992)
(6.93774 -3.23237e-19 1.03429)
(6.54342 -5.77576e-20 1.12949)
(6.12023 4.3438e-19 1.22785)
(5.66782 -5.12764e-19 1.32822)
(5.18614 0 1.42904)
(4.67559 -1.48133e-19 1.52823)
(4.13712 -1.59193e-18 1.62332)
(3.57234 1.34305e-18 1.71154)
(2.98422 0 1.79008)
(2.37194 3.55924e-18 1.85742)
(1.76713 2.91334e-20 1.90898)
(1.06094 -3.22417e-18 1.95873)
(0.59196 -5.02759e-19 1.97496)
(9.98776 4.56404e-21 0.0522726)
(9.97081 -8.32135e-21 0.101042)
(9.93406 0 0.147229)
(9.87613 0 0.193633)
(9.79995 -3.90622e-21 0.242008)
(9.70704 0 0.293213)
(9.59715 -4.12113e-21 0.347962)
(9.46944 -8.67416e-21 0.406968)
(9.32308 -3.20178e-22 0.470843)
(9.15723 8.99137e-21 0.54005)
(8.97102 -3.83744e-20 0.614922)
(8.76351 2.92432e-20 0.695702)
(8.53371 -8.3459e-20 0.782562)
(8.28067 6.37177e-20 0.875637)
(8.00343 -2.24597e-20 0.975024)
(7.70102 0 1.08078)
(7.37246 -2.0185e-19 1.19286)
(7.01675 4.20282e-19 1.31111)
(6.63288 -2.73549e-19 1.43512)
(6.21987 -3.56115e-19 1.56414)
(5.7768 4.89403e-19 1.69698)
(5.30292 1.19313e-18 1.83189)
(4.79777 -1.10508e-18 1.96645)
(4.26142 0 2.09759)
(3.69462 3.15571e-19 2.22161)
(3.10005 0 2.33435)
(2.47592 0 2.43263)
(1.85717 3.56928e-18 2.50953)
(1.14108 -4.05793e-18 2.5747)
(0.633264 -6.53337e-18 2.58947)
(9.98744 -4.55757e-21 0.0595281)
(9.96998 9.36062e-22 0.116698)
(9.93345 3.72294e-21 0.172159)
(9.87679 -3.81618e-21 0.228091)
(9.80263 7.75861e-21 0.28631)
(9.71224 -8.00968e-21 0.347938)
(9.6054 1.62962e-20 0.413857)
(9.48131 -1.26122e-20 0.484901)
(9.3392 0 0.561801)
(9.17828 9.01847e-21 0.645136)
(8.99769 9.28142e-21 0.735343)
(8.79654 9.71859e-21 0.832753)
(8.57389 0 0.937624)
(8.32878 2.0703e-22 1.05018)
(8.06024 4.38844e-20 1.17061)
(7.76724 -1.86103e-19 1.29909)
(7.44867 1.90206e-19 1.43572)
(7.10333 5.08312e-20 1.58046)
(6.72992 7.51001e-22 1.73305)
(6.32703 0 1.89287)
(5.89315 -4.77175e-19 2.05878)
(5.42682 1.49808e-18 2.22897)
(4.92673 -2.10905e-18 2.40077)
(4.39195 1.10793e-18 2.57052)
(3.82229 2.10051e-18 2.73351)
(3.21996 -2.52127e-18 2.88387)
(2.58216 2.73761e-18 3.01604)
(1.94591 -7.06601e-19 3.11997)
(1.21552 -3.15532e-18 3.19959)
(0.670285 6.66857e-18 3.20491)
(9.98734 -8.12853e-21 0.0670302)
(9.96989 -2.71494e-21 0.132282)
(9.93399 -3.71515e-21 0.196535)
(9.87888 -3.76055e-21 0.261618)
(9.80706 0 0.329316)
(9.71964 0 0.400948)
(9.61638 -4.05235e-21 0.477583)
(9.49656 1.66134e-20 0.560192)
(9.35943 0 0.649626)
(9.20425 3.57088e-20 0.746573)
(9.0302 -4.5418e-20 0.851567)
(8.83643 -9.42917e-21 0.965022)
(8.62202 0 1.08729)
(8.38601 2.05772e-20 1.21867)
(8.12742 -4.26145e-20 1.3595)
(7.84513 1.80056e-19 1.51009)
(7.53792 -1.83582e-19 1.6707)
(7.20438 3.9329e-19 1.84152)
(6.84288 -3.50808e-19 2.02253)
(6.45156 0 2.21332)
(6.0283 3.42064e-19 2.41298)
(5.57084 -5.84586e-19 2.61978)
(5.07682 0 2.83096)
(4.54414 -1.05712e-18 3.04239)
(3.97125 1.23645e-18 3.24832)
(3.3594 2.51921e-18 3.44097)
(2.70433 -2.49973e-18 3.6118)
(2.04357 3.41208e-19 3.74697)
(1.28867 1.84271e-19 3.84355)
(0.702373 -2.98094e-19 3.83488)
(9.9874 8.11847e-21 0.0745493)
(9.97031 1.54407e-20 0.147614)
(9.9354 -5.52648e-21 0.220207)
(9.88214 7.48001e-21 0.294019)
(9.81299 0 0.370805)
(9.72897 0 0.452032)
(9.62983 0 0.538941)
(9.51489 8.29322e-21 0.632633)
(9.38347 -5.07298e-20 0.734072)
(9.23486 4.30861e-20 0.844047)
(9.06831 0 0.963183)
(8.883 9.3169e-21 1.09198)
(8.67805 -5.85546e-20 1.23089)
(8.45253 5.90131e-20 1.38033)
(8.20542 2.08071e-20 1.54077)
(7.93556 0 1.71268)
(7.64162 1.80947e-19 1.89659)
(7.32199 -1.84232e-19 2.09295)
(6.97473 3.4492e-19 2.30206)
(6.59752 -4.51245e-19 2.52391)
(6.18759 5.47378e-20 2.75795)
(5.74176 -1.09391e-19 3.00278)
(5.25644 -9.38045e-19 3.25577)
(4.728 -1.73894e-20 3.5126)
(4.15292 1.92498e-18 3.76667)
(3.5306 -1.21625e-18 4.00833)
(2.85452 0 4.22563)
(2.16058 0 4.40028)
(1.3665 -2.65862e-18 4.52132)
(0.73049 2.96789e-18 4.49955)
(9.98755 8.0247e-21 0.0819385)
(9.97108 -6.33299e-21 0.162534)
(9.93748 1.83516e-21 0.24304)
(9.88637 -3.69708e-21 0.325138)
(9.82023 -7.58326e-21 0.41058)
(9.74002 7.6671e-21 0.500949)
(9.64549 8.0172e-21 0.597629)
(9.53602 -3.23114e-20 0.701851)
(9.41098 -1.69726e-20 0.814682)
(9.26975 -9.14359e-21 0.937008)
(9.11162 3.48094e-20 1.06954)
(8.93583 8.21461e-20 1.21288)
(8.74157 -3.58868e-20 1.36756)
(8.52794 2.10653e-20 1.53414)
(8.29394 -9.90445e-20 1.71322)
(8.03839 -1.67608e-19 1.90551)
(7.75988 1.70079e-19 2.1118)
(7.45665 1.80223e-19 2.3329)
(7.12652 -1.82118e-19 2.56956)
(6.76673 -3.39787e-19 2.82228)
(6.37388 4.46307e-19 3.0911)
(5.94381 5.41616e-20 3.37523)
(5.47155 -5.32385e-20 3.67261)
(4.9515 -9.11144e-19 3.97915)
(4.37751 8.80782e-19 4.28794)
(3.74582 0 4.58792)
(3.04625 -1.05708e-18 4.8637)
(2.31039 1.1156e-18 5.09175)
(1.45909 -7.21084e-22 5.25172)
(0.758525 -1.29968e-18 5.227)
(9.98778 -7.12643e-21 0.0890969)
(9.97212 0 0.176906)
(9.9401 0 0.264901)
(9.89143 7.31272e-21 0.354822)
(9.8286 -1.49355e-20 0.448448)
(9.75258 7.57613e-21 0.547453)
(9.66312 2.34441e-20 0.653349)
(9.55966 -1.58021e-20 0.767483)
(9.44165 0 0.891022)
(9.30853 0 1.02494)
(9.15968 8.53188e-21 1.17004)
(8.99444 -8.8927e-21 1.32699)
(8.81204 1.83261e-20 1.49644)
(8.61167 7.57536e-20 1.67907)
(8.39239 8.00057e-20 1.87565)
(8.15305 -1.66166e-20 2.08713)
(7.89223 -1.63293e-19 2.3146)
(7.60811 0 2.55931)
(7.29834 4.45196e-20 2.82252)
(6.95987 0 3.10543)
(6.58874 3.78792e-19 3.40891)
(6.17987 -7.27071e-19 3.73317)
(5.72687 4.49568e-19 4.07721)
(5.2219 0 4.43798)
(4.65542 4.8302e-19 4.80923)
(4.01905 5.06242e-21 5.17953)
(3.29672 -9.45511e-19 5.53088)
(2.51212 -4.4916e-21 5.83398)
(1.58442 5.20164e-19 6.05668)
(0.795909 -7.18285e-20 6.04813)
(9.98805 -8.8074e-22 0.0959511)
(9.97337 8.87996e-22 0.190618)
(9.94316 0 0.285666)
(9.89718 -1.45301e-20 0.382927)
(9.83796 7.41101e-21 0.484227)
(9.76647 0 0.591321)
(9.6825 -1.54113e-20 0.705829)
(9.58554 -1.93733e-22 0.829205)
(9.47514 4.81289e-20 0.962706)
(9.35081 -3.25325e-20 1.10738)
(9.21204 -8.45103e-21 1.26411)
(9.05826 0 1.43365)
(8.88882 0 1.61673)
(8.703 0 1.81415)
(8.49998 1.8856e-20 2.02688)
(8.2787 1.94028e-20 2.25608)
(8.03783 9.74704e-21 2.5032)
(7.77559 1.00066e-20 2.76992)
(7.48963 0 3.05815)
(7.17675 0 3.36989)
(6.83268 -1.71708e-19 3.70711)
(6.45168 1.79288e-19 4.07138)
(6.02609 0 4.46346)
(5.54584 2.31548e-20 4.88236)
(4.99759 -1.89903e-19 5.32403)
(4.36682 2.00826e-19 5.77882)
(3.62861 6.56622e-21 6.22837)
(2.79301 -1.17275e-19 6.63864)
(1.76849 1.17275e-19 6.96224)
(0.857134 6.66393e-20 6.99923)
(9.98837 0 0.102445)
(9.97479 7.00891e-21 0.203575)
(9.94658 1.77887e-21 0.305224)
(9.90353 5.42464e-21 0.409323)
(9.84818 0 0.517758)
(9.78152 7.44883e-21 0.632355)
(9.70341 -1.50189e-20 0.75483)
(9.61339 7.8329e-21 0.886726)
(9.5111 -2.34117e-20 1.02938)
(9.39617 0 1.18392)
(9.26819 -8.13925e-21 1.35126)
(9.12669 8.32155e-21 1.53225)
(8.97119 6.92735e-20 1.72769)
(8.8011 -7.85326e-20 1.93849)
(8.61575 8.90777e-21 2.16578)
(8.41427 9.1103e-21 2.41097)
(8.19548 -9.56012e-21 2.67582)
(7.95783 -9.79093e-21 2.96249)
(7.69911 0 3.27354)
(7.41628 0 3.61188)
(7.10509 4.82284e-21 3.98073)
(6.75957 -2.04072e-20 4.38345)
(6.37136 0 4.82318)
(5.9287 -2.2122e-20 5.30223)
(5.41476 -4.22155e-20 5.82082)
(4.8081 8.53038e-20 6.37454)
(4.07178 -8.65068e-20 6.94974)
(3.19339 0 7.51322)
(2.05163 3.99414e-19 8.00292)
(0.966458 -4.59653e-19 8.14486)
(9.98872 -2.16514e-22 0.108534)
(9.97634 -5.91124e-21 0.215701)
(9.95029 8.8211e-22 0.323477)
(9.91037 -1.77423e-21 0.433892)
(9.85911 0 0.548896)
(9.79757 7.27333e-21 0.670379)
(9.72562 7.47225e-21 0.800138)
(9.64292 9.15173e-23 0.939791)
(9.54919 1.54022e-20 1.09074)
(9.44416 3.16096e-20 1.25416)
(9.32756 -2.37593e-20 1.43104)
(9.19907 -8.23968e-21 1.62224)
(9.05835 -6.71779e-20 1.82865)
(8.905 7.19986e-20 2.05126)
(8.73856 -8.78006e-21 2.29135)
(8.5584 -8.96319e-21 2.5505)
(8.36364 0 2.8308)
(8.15304 -1.12855e-21 3.13483)
(7.92481 0 3.46578)
(7.67635 -9.25952e-21 3.82747)
(7.40391 -8.63529e-20 4.22445)
(7.10196 9.6644e-20 4.66202)
(6.76241 0 5.14625)
(6.37316 0 5.68383)
(5.91556 1.93869e-19 6.28155)
(5.3626 1.43192e-19 6.94483)
(4.66437 -5.32048e-19 7.67371)
(3.77641 3.10162e-19 8.45149)
(2.51105 0 9.22213)
(1.17886 2.31177e-20 9.62236)
(9.9891 0 0.114185)
(9.978 6.65743e-21 0.226932)
(9.95425 1.08815e-21 0.340342)
(9.91762 6.11486e-21 0.456536)
(9.87065 -3.5677e-21 0.577522)
(9.81443 -3.65456e-21 0.705252)
(9.74892 1.46196e-20 0.841583)
(9.67385 -2.22379e-20 0.988197)
(9.58903 2.63643e-20 1.14655)
(9.49432 -1.52809e-20 1.31784)
(9.3896 0 1.5031)
(9.27468 0 1.70321)
(9.14942 -3.6556e-20 1.9191)
(9.01364 3.68752e-20 2.15183)
(8.86712 -6.72633e-20 2.40275)
(8.70954 6.75573e-20 2.67362)
(8.54041 -2.11887e-21 2.96674)
(8.35895 5.38799e-21 3.28505)
(8.16401 0 3.63225)
(7.95375 6.25722e-20 4.01298)
(7.72543 -3.54936e-20 4.43298)
(7.47482 -6.98908e-20 4.89942)
(7.19543 3.48992e-20 5.42131)
(6.87704 -3.48467e-20 6.01018)
(6.50275 0 6.68096)
(6.04558 -3.85434e-19 7.45317)
(5.44971 7.0232e-20 8.35203)
(4.64035 2.42704e-19 9.40723)
(3.311 -4.42137e-19 10.6463)
(1.63746 -4.61839e-19 11.7564)
(9.9895 4.24996e-22 0.119369)
(9.97974 -1.4524e-20 0.237219)
(9.95839 7.16826e-21 0.355749)
(9.92519 -5.99977e-21 0.477162)
(9.88267 -8.75536e-22 0.60352)
(9.83196 -7.06292e-21 0.736821)
(9.77309 -7.24225e-21 0.878974)
(9.70588 -3.60795e-21 1.03171)
(9.63025 3.64296e-21 1.1965)
(9.54619 1.50996e-20 1.3746)
(9.4537 -1.51725e-20 1.56701)
(9.35279 3.82946e-21 1.77465)
(9.24351 3.54991e-20 1.99844)
(9.1259 -3.16525e-20 2.23946)
(9.00003 0 2.4991)
(8.86595 0 2.77921)
(8.72362 3.50148e-20 3.08223)
(8.57287 -4.08437e-21 3.41131)
(8.4133 -1.68757e-20 3.77051)
(8.24417 -1.57723e-20 4.16501)
(8.06421 4.85565e-20 4.60139)
(7.8713 3.3451e-20 5.08822)
(7.66197 0 5.63682)
(7.43062 1.49752e-19 6.26268)
(7.16743 -6.02704e-21 6.98804)
(6.8563 -5.38755e-20 7.84671)
(6.45899 -9.89218e-21 8.89417)
(5.92091 -3.31804e-20 10.234)
(4.84861 0 12.1262)
(2.79246 1.56932e-19 15.3694)
(-0.144717 -1.57724e-18 0.323802)
(-0.959077 1.19758e-18 0.364318)
(-1.56946 0 0.400142)
(-2.39708 4.06889e-19 0.412443)
(-3.23973 -7.50846e-19 0.413652)
(-4.11207 1.71418e-19 0.398897)
(-4.97579 8.51435e-20 0.369303)
(-5.79457 -8.37748e-20 0.325183)
(-6.52874 3.17469e-19 0.267541)
(-7.13743 -1.92502e-19 0.19801)
(-7.58112 3.77611e-20 0.118787)
(-7.82521 3.64032e-20 0.0324013)
(-7.8449 3.29949e-20 -0.0589163)
(-7.62386 -3.29108e-20 -0.152451)
(-7.16411 0 -0.240106)
(-6.48674 0 -0.314674)
(-5.62783 0 -0.371295)
(-4.63322 0 -0.407585)
(-3.55179 0 -0.423545)
(-2.4249 0 -0.421561)
(-1.29089 0 -0.403684)
(-0.158522 0 -0.372031)
(0.866066 -7.57082e-23 -0.335236)
(1.84344 0 -0.297188)
(2.74446 0 -0.261297)
(3.56336 -1.87452e-23 -0.227945)
(4.30236 3.38644e-25 -0.197562)
(4.96606 0 -0.17065)
(5.56012 -5.90039e-23 -0.147698)
(6.21711 0 -0.134577)
(-0.16453 -3.41768e-18 0.841007)
(-1.03559 7.26861e-18 0.946735)
(-1.70539 -1.55401e-18 1.03188)
(-2.57101 -1.45458e-18 1.08726)
(-3.4426 1.40078e-18 1.11542)
(-4.3379 -1.12778e-18 1.1058)
(-5.21781 -7.89744e-20 1.05467)
(-6.04627 -7.70202e-20 0.959277)
(-6.78292 -3.06579e-19 0.8193)
(-7.38591 3.46493e-20 0.637325)
(-7.81473 1.12189e-19 0.419212)
(-8.03432 1.78279e-19 0.174107)
(-8.01986 -7.73325e-21 -0.0866666)
(-7.76026 -1.88584e-19 -0.346597)
(-7.26118 -7.785e-21 -0.584086)
(-6.54599 5.37041e-20 -0.78242)
(-5.65211 -3.11385e-20 -0.931477)
(-4.62559 -8.92884e-22 -1.0278)
(-3.51452 1.99272e-20 -1.07352)
(-2.35657 -1.66846e-21 -1.07405)
(-1.19989 0 -1.03876)
(-0.0384322 1.56208e-21 -0.971961)
(1.00136 -2.27668e-21 -0.889602)
(2.00016 8.41233e-22 -0.802636)
(2.92405 -1.49915e-22 -0.717968)
(3.76853 1.73825e-23 -0.637355)
(4.53544 0 -0.562425)
(5.2289 -8.25842e-23 -0.494782)
(5.85182 4.36684e-23 -0.435889)
(6.53607 0 -0.394514)
(-0.175763 3.62278e-18 1.48896)
(-1.04893 -3.63935e-19 1.6526)
(-1.77248 -3.14016e-19 1.77492)
(-2.66652 -2.69966e-18 1.85624)
(-3.55999 -3.25164e-19 1.88996)
(-4.47118 -9.46775e-19 1.86116)
(-5.36094 1.48741e-18 1.76263)
(-6.19377 0 1.58976)
(-6.92892 0 1.34219)
(-7.52357 0 1.02454)
(-7.9358 0 0.647227)
(-8.12938 -1.40038e-19 0.227042)
(-8.08004 2.79446e-19 -0.214259)
(-7.78101 0 -0.64858)
(-7.24147 -1.45602e-20 -1.04053)
(-6.4896 -2.49369e-20 -1.36337)
(-5.56623 6.02203e-20 -1.60181)
(-4.51882 -3.57817e-20 -1.75192)
(-3.39544 -1.55039e-20 -1.81858)
(-2.23592 1.75815e-20 -1.8113)
(-1.07795 0 -1.74828)
(0.0693188 2.98594e-21 -1.63545)
(1.10232 -2.17646e-21 -1.49801)
(2.09158 -8.25406e-22 -1.35584)
(3.00524 2.4086e-22 -1.21581)
(3.84007 -7.82956e-23 -1.08158)
(4.59785 -1.27192e-26 -0.95633)
(5.2826 7.85559e-23 -0.842719)
(5.89546 9.68012e-23 -0.742726)
(6.57177 0 -0.663956)
(-0.176941 -6.30385e-18 2.20936)
(-1.03691 -3.80893e-19 2.41633)
(-1.812 6.9101e-19 2.56166)
(-2.72813 -3.25129e-19 2.6581)
(-3.63918 6.11538e-19 2.68888)
(-4.5623 -2.91977e-19 2.63502)
(-5.45869 -5.82607e-19 2.48538)
(-6.29303 0 2.23286)
(-7.02345 0 1.87619)
(-7.60515 5.92481e-19 1.42102)
(-7.99352 -7.52622e-19 0.881294)
(-8.1504 -7.45833e-20 0.280514)
(-8.05144 -2.69545e-19 -0.349295)
(-7.70047 1.96002e-19 -0.961602)
(-7.11092 -1.05569e-19 -1.5073)
(-6.3166 1.03369e-19 -1.95125)
(-5.36201 4.19463e-22 -2.27455)
(-4.29568 2.31278e-20 -2.47385)
(-3.1652 -4.70419e-20 -2.55706)
(-2.01405 1.25816e-20 -2.54062)
(-0.855262 0 -2.4452)
(0.251921 0 -2.28409)
(1.27376 -1.46979e-21 -2.09067)
(2.24343 1.64063e-21 -1.89259)
(3.13778 1.15427e-22 -1.69718)
(3.95444 2.06101e-22 -1.50986)
(4.6952 2.09266e-23 -1.33514)
(5.36409 -2.02451e-23 -1.17655)
(5.96085 -9.41204e-23 -1.03643)
(6.62167 0 -0.92139)
(-0.169043 -7.91742e-19 2.98707)
(-1.00825 3.51921e-19 3.22096)
(-1.82343 -3.23512e-19 3.37809)
(-2.74782 -8.39759e-21 3.48034)
(-3.66388 -2.8964e-19 3.5002)
(-4.58646 0 3.41418)
(-5.47749 1.44528e-18 3.20648)
(-6.30161 -1.12669e-18 2.86678)
(-7.01567 0 2.39227)
(-7.57261 -7.6074e-19 1.78962)
(-7.925 7.73723e-19 1.07718)
(-8.03244 0 0.287396)
(-7.87287 7.44959e-20 -0.533934)
(-7.46382 6.29089e-20 -1.3211)
(-6.82198 -7.85933e-20 -2.01306)
(-5.98712 1.04362e-19 -2.5678)
(-5.00692 -1.03353e-20 -2.96465)
(-3.93053 8.75567e-21 -3.20237)
(-2.80541 0 -3.29377)
(-1.66898 0 -3.26219)
(-0.529431 7.61944e-21 -3.12679)
(0.527919 -8.01733e-21 -2.91605)
(1.52606 0 -2.66972)
(2.46501 0 -2.41703)
(3.33001 -3.13749e-22 -2.16748)
(4.11931 0 -1.92833)
(4.83472 0 -1.70536)
(5.48042 1.66674e-23 -1.50282)
(6.05502 -2.58223e-23 -1.3234)
(6.69349 9.34772e-24 -1.17264)
(-0.152982 -1.01564e-20 3.80445)
(-0.960397 -2.56992e-18 4.04861)
(-1.79154 5.04166e-18 4.20848)
(-2.70159 -2.04902e-18 4.30868)
(-3.60175 0 4.31105)
(-4.50412 0 4.18719)
(-5.37187 0 3.91627)
(-6.16991 -1.18818e-18 3.48419)
(-6.8539 1.02702e-18 2.88603)
(-7.37414 3.15735e-19 2.12899)
(-7.67929 0 1.23629)
(-7.72516 0 0.250569)
(-7.50133 -7.41968e-20 -0.764706)
(-7.03323 0 -1.72257)
(-6.34335 -3.01677e-20 -2.5518)
(-5.47658 2.46358e-20 -3.2057)
(-4.48252 0 -3.66382)
(-3.41002 -3.28598e-20 -3.929)
(-2.30545 3.79978e-20 -4.02036)
(-1.19372 0 -3.9651)
(-0.101759 5.78226e-22 -3.78406)
(0.903243 -5.88127e-21 -3.52371)
(1.86322 6.95949e-21 -3.22708)
(2.76011 -1.32286e-21 -2.92135)
(3.58526 -6.04081e-22 -2.61912)
(4.33748 -3.54691e-22 -2.32971)
(5.01881 0 -2.0601)
(5.63356 0 -1.81514)
(6.17962 -1.22325e-22 -1.59784)
(6.78824 8.14046e-24 -1.41252)
(-0.128512 3.42223e-18 4.62774)
(-0.885754 2.49617e-18 4.86937)
(-1.69681 2.2859e-19 5.02595)
(-2.56233 -2.15671e-18 5.11906)
(-3.41933 0 5.10029)
(-4.27707 1.17231e-18 4.9359)
(-5.10053 -1.13079e-18 4.59954)
(-5.85525 0 4.07261)
(-6.49567 7.94385e-19 3.34707)
(-6.96844 -1.49825e-19 2.43002)
(-7.2165 -1.43045e-18 1.3504)
(-7.19043 7.50032e-19 0.163602)
(-6.90086 8.43301e-20 -1.04386)
(-6.37846 0 -2.16362)
(-5.65161 2.98465e-20 -3.11721)
(-4.76844 -2.71031e-20 -3.85609)
(-3.7784 0 -4.36214)
(-2.72854 0 -4.64369)
(-1.66084 2.40225e-20 -4.72594)
(-0.588592 -6.64633e-21 -4.63585)
(0.422556 -2.16122e-20 -4.40926)
(1.37742 1.20768e-21 -4.1012)
(2.28464 0 -3.75623)
(3.12835 6.34865e-22 -3.39942)
(3.90317 4.48099e-22 -3.04665)
(4.60869 -1.96449e-22 -2.70931)
(5.24731 1.22751e-22 -2.39543)
(5.82349 -6.38083e-24 -2.11033)
(6.33474 1.11033e-22 -1.85724)
(6.90621 0 -1.63913)
(-0.094522 -1.27861e-19 5.40907)
(-0.775125 0 5.6423)
(-1.52102 -7.22136e-20 5.79475)
(-2.3064 -1.34848e-18 5.88027)
(-3.08833 2.32424e-18 5.84121)
(-3.87358 -1.13774e-18 5.63804)
(-4.62919 0 5.23835)
(-5.32162 -1.62614e-19 4.61806)
(-5.90383 5.11816e-19 3.76486)
(-6.31734 -1.4534e-18 2.68459)
(-6.49805 7.96908e-19 1.41275)
(-6.39166 0 0.0236256)
(-6.0401 -4.26597e-19 -1.36947)
(-5.47481 -1.12494e-20 -2.63636)
(-4.72956 2.76186e-19 -3.69721)
(-3.85257 2.69627e-20 -4.50532)
(-2.89014 8.54585e-20 -5.04574)
(-1.88603 -8.68719e-20 -5.33283)
(-0.873106 0 -5.3959)
(0.125567 0 -5.26353)
(1.05221 7.75997e-21 -4.99412)
(1.94574 -1.36037e-20 -4.64247)
(2.78679 5.19352e-21 -4.2506)
(3.56614 1.09894e-21 -3.84498)
(4.28037 -1.85002e-21 -3.44442)
(4.92998 7.11361e-22 -3.06213)
(5.51775 1.50326e-22 -2.707)
(6.04827 -7.24149e-23 -2.38465)
(6.51894 8.72636e-24 -2.09841)
(7.04651 -5.4013e-24 -1.84981)
(-0.0488265 -4.25005e-20 6.09029)
(-0.619414 1.30327e-18 6.32012)
(-1.25046 -2.52125e-18 6.47391)
(-1.91695 1.21113e-18 6.55672)
(-2.58843 -7.597e-20 6.50336)
(-3.27005 0 6.26822)
(-3.93116 8.12892e-20 5.81219)
(-4.53992 8.58778e-19 5.10454)
(-5.04847 -1.28507e-18 4.12704)
(-5.39215 8.4939e-20 2.88277)
(-5.49498 9.09328e-19 1.41701)
(-5.29503 0 -0.171234)
(-4.89335 3.73976e-19 -1.73516)
(-4.3048 -3.04427e-19 -3.12712)
(-3.56793 1.48899e-19 -4.27439)
(-2.72659 -1.42421e-19 -5.13519)
(-1.81965 0 -5.6973)
(-0.887034 0 -5.97966)
(0.0515897 1.04053e-21 -6.01141)
(0.931974 2.11921e-20 -5.84155)
(1.78696 -2.04926e-20 -5.53279)
(2.60131 0 -5.14017)
(3.36343 0 -4.70332)
(4.06723 0 -4.25185)
(4.71099 0 -3.80707)
(5.29609 -4.5117e-22 -3.3836)
(5.82568 3.59934e-23 -2.99094)
(6.30426 2.01883e-22 -2.63487)
(6.72933 4.11057e-23 -2.31867)
(7.20717 0 -2.04243)
(0.0131677 0 6.6176)
(-0.409777 -6.159e-19 6.85598)
(-0.878156 5.9779e-19 7.02121)
(-1.38678 -3.79048e-20 7.11078)
(-1.91037 9.604e-20 7.05388)
(-2.45444 0 6.79853)
(-2.991 -8.30297e-20 6.29837)
(-3.49135 -7.57031e-19 5.51467)
(-3.90786 7.91785e-19 4.42151)
(-4.1668 -5.76576e-19 3.01844)
(-4.17221 5.34215e-19 1.36291)
(-3.874 -3.32293e-20 -0.419005)
(-3.44598 2.77103e-20 -2.12493)
(-2.86462 0 -3.61404)
(-2.17018 -1.84827e-20 -4.82758)
(-1.39677 1.54675e-20 -5.72578)
(-0.57678 3.35176e-21 -6.29705)
(0.260884 0 -6.56283)
(1.06538 -1.95467e-21 -6.56257)
(1.85543 0 -6.36131)
(2.6162 2.19217e-21 -6.01834)
(3.33564 0 -5.58618)
(4.00582 0 -5.1073)
(4.62306 -1.50054e-21 -4.61405)
(5.1871 0 -4.1296)
(5.70001 6.87227e-22 -3.66958)
(6.16508 -1.51403e-22 -3.24387)
(6.5865 -1.11997e-22 -2.85821)
(6.96188 -3.90395e-23 -2.51572)
(7.38535 -1.18655e-24 -2.21518)
(0.0930587 -2.58104e-19 6.95122)
(-0.144682 -4.07053e-20 7.2086)
(-0.407101 0 7.39667)
(-0.721261 2.4615e-19 7.50509)
(-1.05959 -2.66542e-19 7.45833)
(-1.43073 1.66024e-19 7.19717)
(-1.80934 0 6.667)
(-2.17205 4.19607e-19 5.81828)
(-2.47225 -8.88153e-19 4.61483)
(-2.61779 1.07034e-18 3.05702)
(-2.48358 -6.51419e-19 1.22006)
(-2.11742 6.18876e-19 -0.708853)
(-1.70242 -5.30602e-19 -2.51578)
(-1.17206 0 -4.06983)
(-0.558482 2.6448e-21 -5.33169)
(0.121338 0 -6.26051)
(0.808746 9.01033e-20 -6.81624)
(1.50803 -9.01514e-20 -7.06345)
(2.20269 -2.57951e-20 -7.04398)
(2.88016 2.88589e-20 -6.81615)
(3.52782 -2.05777e-21 -6.44047)
(4.13695 0 -5.97189)
(4.70257 1.83232e-21 -5.45558)
(5.22301 1.14433e-21 -4.92596)
(5.69915 3.95572e-22 -4.40752)
(6.1334 -9.60157e-22 -3.91652)
(6.52886 -3.00437e-23 -3.463)
(6.8891 3.00342e-23 -3.05248)
(7.2118 0 -2.68784)
(7.5776 -8.91635e-23 -2.3667)
(0.186681 -8.63972e-20 7.05705)
(0.167027 -6.82723e-19 7.34268)
(0.148648 6.56389e-19 7.56892)
(0.0592358 9.58647e-20 7.71224)
(-0.0606695 -2.50248e-19 7.69285)
(-0.226627 1.86813e-19 7.4462)
(-0.415216 0 6.91054)
(-0.611483 2.36525e-19 6.03017)
(-0.767965 1.16601e-19 4.76588)
(-0.750525 -3.19352e-19 3.10565)
(-0.458551 -4.20766e-19 1.10927)
(-0.0525428 3.5707e-19 -0.987842)
(0.302688 0 -2.89996)
(0.731878 0 -4.48385)
(1.22385 1.45593e-19 -5.75506)
(1.75525 -1.41447e-19 -6.67504)
(2.31276 -4.38831e-20 -7.24209)
(2.88156 4.40169e-20 -7.48358)
(3.44391 0 -7.44659)
(3.98802 -2.69797e-21 -7.19386)
(4.50511 0 -6.78891)
(4.98979 0 -6.28914)
(5.43965 0 -5.74177)
(5.85463 -1.47782e-21 -5.18265)
(6.2363 2.10444e-22 -4.63708)
(6.587 -2.11491e-22 -4.12163)
(6.90926 -8.24054e-22 -3.64623)
(7.20568 0 -3.21613)
(7.47388 -3.77743e-25 -2.83385)
(7.78014 8.80505e-23 -2.49613)
(0.295927 0 6.90293)
(0.522802 -1.32847e-18 7.23137)
(0.768889 4.42965e-19 7.51135)
(0.923076 7.94533e-19 7.70082)
(1.0417 -3.37644e-19 7.72294)
(1.10655 8.58046e-21 7.51006)
(1.13783 -1.93655e-19 6.99145)
(1.14999 0 6.09586)
(1.2071 -1.33306e-19 4.75702)
(1.44348 0 2.96701)
(1.85253 0 0.885374)
(2.17848 2.96689e-19 -1.1939)
(2.4334 -2.4073e-19 -3.10728)
(2.74961 1.96904e-19 -4.75364)
(3.11827 -1.54413e-19 -6.06473)
(3.51714 2.15332e-20 -7.00764)
(3.9322 4.1212e-20 -7.57841)
(4.35081 -3.95775e-20 -7.81054)
(4.7608 -1.22817e-20 -7.7571)
(5.15422 1.74742e-20 -7.48317)
(5.52638 0 -7.0547)
(5.87524 -3.03514e-21 -6.531)
(6.20072 0 -5.96065)
(6.50398 3.85452e-21 -5.38031)
(6.78681 -7.74605e-22 -4.81559)
(7.05105 -1.36527e-21 -4.28302)
(7.29827 -9.24004e-23 -3.79229)
(7.52976 -2.08186e-23 -3.34828)
(7.74289 -2.07589e-22 -2.95317)
(7.98914 0 -2.60307)
(0.442321 -1.35411e-18 6.42736)
(0.941634 -9.43907e-19 6.86168)
(1.45056 1.54238e-19 7.21568)
(1.8499 0 7.45806)
(2.20944 -1.70664e-19 7.52913)
(2.51483 -2.87168e-20 7.35634)
(2.78354 5.35798e-19 6.85928)
(3.0364 0 5.95771)
(3.32906 0 4.59309)
(3.7049 0 2.80607)
(4.15322 1.62766e-19 0.752045)
(4.41923 -4.24358e-21 -1.35733)
(4.6248 -1.5657e-19 -3.30166)
(4.84994 -2.05462e-20 -4.96883)
(5.09777 9.49166e-20 -6.29408)
(5.35692 -1.06465e-19 -7.24189)
(5.61794 5.7171e-20 -7.81028)
(5.87329 -1.51194e-20 -8.0327)
(6.11747 2.14649e-20 -7.96534)
(6.34822 -1.16805e-21 -7.67561)
(6.56574 -1.30007e-20 -7.23121)
(6.77154 5.48654e-21 -6.69259)
(6.96769 -2.59684e-21 -6.10884)
(7.15617 -6.34551e-21 -5.51674)
(7.33856 0 -4.94173)
(7.51578 1.44282e-21 -4.40001)
(7.68806 8.98716e-22 -3.90088)
(7.85511 -4.84743e-23 -3.44888)
(8.01384 -2.68313e-22 -3.04588)
(8.20096 -7.59526e-24 -2.68767)
(0.68187 0 5.44881)
(1.46963 -2.37309e-19 6.25492)
(2.19294 0 6.71618)
(2.82052 -4.58291e-19 7.00591)
(3.41087 7.13329e-19 7.12659)
(3.94699 3.26205e-19 6.99686)
(4.44424 -3.26643e-19 6.5248)
(4.92377 1.8611e-19 5.62903)
(5.40735 -1.05878e-19 4.27104)
(5.8871 -1.56252e-20 2.51253)
(6.33881 1.67826e-20 0.51081)
(6.60389 1.23373e-21 -1.53734)
(6.7839 2.25065e-19 -3.4513)
(6.94101 -1.13936e-19 -5.11069)
(7.08366 -8.67883e-20 -6.43302)
(7.20858 4.0736e-20 -7.37459)
(7.314 -9.93306e-21 -7.93335)
(7.40099 -1.44389e-21 -8.14414)
(7.47307 -2.04281e-20 -8.0655)
(7.53562 4.91305e-21 -7.76632)
(7.59457 3.79571e-21 -7.31494)
(7.65524 0 -6.77172)
(7.72162 2.36653e-22 -6.18528)
(7.79613 -3.58436e-22 -5.59176)
(7.87968 -2.43207e-22 -5.01591)
(7.97188 8.25756e-23 -4.47336)
(8.07138 -9.19652e-22 -3.97297)
(8.17607 0 -3.51896)
(8.28229 -1.14533e-22 -3.11297)
(8.41227 0 -2.75081)
(9.98992 8.10752e-22 0.124148)
(9.98157 4.10653e-21 0.246692)
(9.96275 -1.1476e-20 0.369913)
(9.93315 0 0.496082)
(9.8953 0 0.627305)
(9.85037 1.35099e-20 0.765617)
(9.79847 0 0.912964)
(9.73952 3.48554e-21 1.0711)
(9.67355 0 1.24153)
(9.6007 0 1.42549)
(9.5211 0 1.62398)
(9.43497 -1.82885e-20 1.8379)
(9.34254 4.51245e-20 2.06812)
(9.24413 -2.96409e-20 2.31571)
(9.14013 -3.00962e-20 2.58204)
(9.03098 3.01531e-20 2.86896)
(8.91715 7.459e-21 3.17892)
(8.79916 -2.292e-20 3.51513)
(8.67755 1.48597e-20 3.88175)
(8.55284 7.45699e-22 4.28415)
(8.4256 -1.57946e-20 4.72923)
(8.29644 1.33794e-20 5.22604)
(8.16612 0 5.78676)
(8.03591 -2.76951e-20 6.42838)
(7.90824 1.1566e-19 7.17578)
(7.79066 -1.10804e-19 8.06783)
(7.70035 -5.54328e-20 9.16939)
(7.75644 -1.8666e-20 10.595)
(8.39305 1.46474e-19 12.5338)
(8.88719 1.50221e-19 15.5653)
(9.99037 0 0.128527)
(9.98351 0 0.255352)
(9.96735 6.36641e-21 0.382815)
(9.94152 -3.19473e-21 0.513239)
(9.90853 3.2142e-21 0.648766)
(9.86959 -9.02416e-22 0.791454)
(9.82491 4.08047e-21 0.943274)
(9.77449 -3.67327e-23 1.10599)
(9.71848 6.67485e-21 1.28111)
(9.65715 0 1.46985)
(9.59081 0 1.67316)
(9.51985 1.38841e-20 1.8919)
(9.44472 -8.08325e-22 2.12687)
(9.36603 1.79434e-21 2.37906)
(9.28447 -1.41108e-20 2.64976)
(9.2009 0 2.94071)
(9.11632 -1.4175e-20 3.25423)
(9.03195 -7.20471e-21 3.5934)
(8.94926 0 3.96221)
(8.87012 1.41347e-20 4.36574)
(8.79694 0 4.81053)
(8.73307 -1.81213e-21 5.30497)
(8.68348 0 5.8601)
(8.65616 0 6.49063)
(8.66489 3.50961e-20 7.21664)
(8.73671 -6.36045e-20 8.06557)
(8.91785 1.3207e-20 9.07297)
(9.28352 -1.30056e-20 10.2782)
(10.1151 1.13871e-20 11.6185)
(10.8566 -3.86491e-20 12.7034)
(9.99084 0 0.132424)
(9.98553 3.03703e-21 0.263046)
(9.97213 -9.12465e-21 0.394244)
(9.95021 0 0.52838)
(9.92224 0 0.667615)
(9.88948 -6.29879e-21 0.814022)
(9.85222 -4.8625e-23 0.969573)
(9.81054 -3.21105e-21 1.13603)
(9.76472 -4.04782e-21 1.31487)
(9.71515 8.08386e-22 1.50727)
(9.66231 -3.27414e-21 1.71413)
(9.60676 3.28283e-21 1.9362)
(9.54918 8.16274e-22 2.17419)
(9.49041 -8.32867e-21 2.42895)
(9.43148 3.37642e-21 2.7016)
(9.37364 0 2.99369)
(9.31838 6.74118e-21 3.30729)
(9.26757 -6.50675e-21 3.64513)
(9.22352 1.926e-20 4.01072)
(9.18924 -1.27141e-20 4.40848)
(9.16868 0 4.84391)
(9.16727 -6.94256e-20 5.32375)
(9.19277 2.82697e-21 5.85622)
(9.25665 5.07825e-20 6.45111)
(9.37608 8.22206e-20 7.11922)
(9.57715 -5.44501e-20 7.87039)
(9.89497 1.39692e-21 8.7064)
(10.3462 3.52738e-22 9.61386)
(11.0556 -2.97894e-21 10.5322)
(11.9458 2.52805e-20 11.2109)
(9.99134 1.16137e-20 0.135792)
(9.98762 0 0.269675)
(9.97705 5.92553e-21 0.404047)
(9.95913 0 0.541292)
(9.9363 -4.98077e-23 0.683578)
(9.90985 3.92869e-23 0.832974)
(9.88014 -3.05406e-21 0.991442)
(9.84734 6.11524e-21 1.16072)
(9.81185 -3.09404e-21 1.34224)
(9.77416 -1.53119e-21 1.53711)
(9.73492 -7.69137e-22 1.74615)
(9.69484 -7.8177e-22 1.96998)
(9.6548 -7.83903e-22 2.20917)
(9.61587 0 2.46438)
(9.57938 3.18117e-21 2.73651)
(9.54689 0 3.02681)
(9.52033 0 3.33697)
(9.50208 0 3.66922)
(9.49512 2.34724e-20 4.02637)
(9.50323 -6.81658e-22 4.41187)
(9.53133 -6.57018e-20 4.82976)
(9.58591 4.27934e-20 5.28465)
(9.67567 0 5.78144)
(9.81229 2.34168e-20 6.32482)
(10.0111 -5.90474e-20 6.91798)
(10.2915 2.64749e-20 7.56057)
(10.6787 8.57522e-21 8.24463)
(11.1859 -7.58385e-21 8.95461)