/*--------------------------------*- C++ -*----------------------------------*\
  =========                 |
  \\      /  F ield         | OpenFOAM: The Open Source CFD Toolbox
   \\    /   O peration     | Website:  https://openfoam.org
    \\  /    A nd           | Version:  7
     \\/     M anipulation  |
\*---------------------------------------------------------------------------*/
FoamFile
{
    version     2.0;
    format      ascii;
    class       surfaceVectorField;
    location    "0.2";
    object      Uf;
}
// * * * * * * * * * * * * * * * * * * * * * * * * * * * * * * * * * * * * * //

dimensions      [0 1 -1 0 0 0 0];

internalField   nonuniform List<vector> 
5457
(
(9.92185 4.76501e-22 0.0242554)
(9.96536 0 0.037629)
(9.82822 4.64634e-22 0.0313243)
(9.9289 2.36531e-24 0.0462255)
(9.71917 0 0.0371688)
(9.86305 0 0.0552297)
(9.59235 -5.13925e-22 0.0432057)
(9.77125 0 0.0658757)
(9.44764 -1.03221e-21 0.0494279)
(9.65998 -1.47349e-23 0.0770895)
(9.28517 -5.17897e-22 0.0558416)
(9.531 3.0828e-21 0.0887607)
(9.10472 1.15627e-21 0.0625408)
(9.38357 -2.10951e-21 0.101093)
(8.90582 1.74766e-21 0.0696059)
(9.21669 1.14198e-21 0.114254)
(8.68793 -6.33332e-22 0.0770839)
(9.02956 -4.58112e-21 0.128339)
(8.45048 1.44747e-21 0.0850043)
(8.82151 -1.32234e-21 0.143398)
(8.19295 -1.40086e-22 0.0933916)
(8.59182 7.55415e-21 0.15946)
(7.91488 -2.66235e-21 0.102272)
(8.33982 7.88526e-21 0.176538)
(7.61588 -6.24621e-21 0.111678)
(8.06488 -1.08541e-20 0.194637)
(7.29562 3.6055e-22 0.121647)
(7.76648 -2.96347e-20 0.213759)
(6.9539 -6.50716e-22 0.132218)
(7.4442 3.05262e-20 0.233897)
(6.59058 8.45984e-22 0.143428)
(7.09774 -3.81274e-22 0.255029)
(6.20572 -2.78965e-22 0.155298)
(6.72695 -2.76677e-20 0.277102)
(5.79955 -2.44533e-20 0.167821)
(6.33187 4.28732e-20 0.30001)
(5.37265 -5.33452e-20 0.180947)
(5.91282 -1.11317e-21 0.323566)
(4.926 -5.69179e-20 0.194569)
(5.47045 9.8978e-20 0.347481)
(4.46114 1.4806e-19 0.208509)
(5.00591 -3.25015e-19 0.371332)
(3.98029 -1.76589e-20 0.222524)
(4.52092 3.18459e-19 0.394556)
(3.48641 6.95603e-20 0.236317)
(4.01788 1.54918e-19 0.41645)
(2.98323 -7.8999e-20 0.249581)
(3.49991 3.84174e-19 0.436208)
(2.47514 -3.14991e-19 0.262088)
(2.97084 -1.1247e-19 0.453001)
(1.96688 1.20716e-19 0.274002)
(2.43507 -1.88618e-18 0.466097)
(1.46262 1.21105e-19 0.283966)
(1.8952 1.13952e-18 0.475437)
(0.969963 0 0.297634)
(1.37554 -2.23457e-18 0.476927)
(0.477623 0 0.318)
(0.753268 1.87873e-18 0.487162)
(0.460711 -2.97533e-18 0.48295)
(9.99855 -4.73683e-22 0.0491362)
(9.99157 0 0.0383273)
(9.96478 -4.61887e-22 0.0665166)
(9.97957 -4.67834e-22 0.0628969)
(9.90999 0 0.0818806)
(9.9423 0 0.0829819)
(9.83586 4.98868e-22 0.0981321)
(9.87997 0 0.104379)
(9.74205 4.1391e-21 0.115304)
(9.79767 -5.0025e-22 0.127067)
(9.62824 1.42553e-21 0.133417)
(9.69714 3.6072e-21 0.150935)
(9.49396 -2.08312e-21 0.152704)
(9.57776 -2.10952e-21 0.176319)
(9.33848 -5.25848e-21 0.173384)
(9.43844 0 0.203572)
(9.16091 -5.22923e-21 0.19559)
(9.27823 -5.19364e-21 0.232928)
(8.96033 4.89537e-21 0.219396)
(9.0962 2.24444e-21 0.264531)
(8.73584 1.55834e-20 0.244842)
(8.89139 4.9319e-21 0.298468)
(8.48658 -5.40121e-22 0.271947)
(8.66282 1.05813e-20 0.334786)
(8.2118 -3.44766e-20 0.300713)
(8.40958 -5.49916e-21 0.373505)
(7.91087 1.28005e-21 0.331132)
(8.13082 -2.34658e-20 0.414624)
(7.58328 3.04162e-20 0.363172)
(7.82581 2.41532e-20 0.458123)
(7.22867 -2.92219e-20 0.396766)
(7.49395 1.89891e-20 0.503945)
(6.84689 1.63592e-20 0.431786)
(7.13477 -4.84963e-20 0.551974)
(6.43802 6.56757e-20 0.468008)
(6.74801 7.85276e-20 0.601997)
(6.00247 1.52507e-19 0.505079)
(6.33362 4.54336e-20 0.653652)
(5.54105 -1.7452e-19 0.542477)
(5.89187 1.03631e-19 0.706388)
(5.05508 -1.46531e-19 0.579495)
(5.42345 -3.04343e-19 0.759409)
(4.54651 4.88955e-19 0.61523)
(4.92953 1.52042e-19 0.811658)
(4.01793 4.72889e-19 0.648627)
(4.41188 4.12197e-19 0.861818)
(3.47263 3.44438e-19 0.678567)
(3.87294 2.23419e-19 0.908376)
(2.91445 -1.70574e-18 0.704035)
(3.31576 2.93223e-19 0.949767)
(2.34753 -8.30671e-19 0.724571)
(2.74416 -1.68701e-18 0.98461)
(1.77556 -1.25273e-18 0.739055)
(2.15914 2.5048e-18 1.01261)
(1.2002 -3.10354e-19 0.753162)
(1.58715 -3.82862e-18 1.03094)
(0.620273 -1.16637e-18 0.76762)
(0.910968 4.12493e-18 1.05728)
(0.522961 -4.60817e-18 1.06653)
(9.99115 0 0.0552319)
(9.98932 0 0.042589)
(9.96028 0 0.0823866)
(9.97469 2.31958e-21 0.0781393)
(9.90881 0 0.108094)
(9.93824 -1.41753e-21 0.109047)
(9.83923 -1.00565e-21 0.135168)
(9.87871 -9.73826e-22 0.140518)
(9.75169 -9.8063e-22 0.163953)
(9.80008 9.70025e-22 0.173706)
(9.64578 0 0.194605)
(9.7041 0 0.208796)
(9.52098 0 0.227485)
(9.59035 -4.20521e-21 0.246234)
(9.37655 0 0.262948)
(9.45785 1.08219e-20 0.286536)
(9.21157 2.37326e-21 0.30124)
(9.30566 -1.78617e-20 0.330099)
(9.025 2.31487e-21 0.342515)
(9.13288 9.2009e-21 0.377197)
(8.81578 0 0.386864)
(8.93851 0 0.428014)
(8.58283 5.42172e-21 0.434333)
(8.72151 0 0.482668)
(8.32515 5.28857e-21 0.484937)
(8.48085 7.97078e-23 0.541227)
(8.04181 0 0.538665)
(8.21554 4.46932e-20 0.603728)
(7.73196 1.26609e-20 0.595472)
(7.92467 -9.27142e-20 0.670171)
(7.39487 -1.1192e-21 0.655259)
(7.60739 4.84217e-20 0.740511)
(7.02997 1.52618e-20 0.717832)
(7.26293 9.09563e-20 0.814622)
(6.63683 5.78678e-20 0.782854)
(6.89065 -1.33568e-19 0.89225)
(6.2153 -2.7026e-21 0.849785)
(6.49004 9.18341e-22 0.972947)
(5.76549 -3.13275e-20 0.917825)
(6.06081 1.85456e-19 1.056)
(5.28796 0 0.985865)
(5.60294 -2.56372e-19 1.14036)
(4.78374 7.86102e-20 1.05247)
(5.11679 0 1.2246)
(4.25447 1.60598e-19 1.11592)
(4.6032 3.55635e-21 1.30689)
(3.70243 1.7341e-19 1.17432)
(4.06361 -7.13095e-19 1.38506)
(3.13054 2.86993e-19 1.2258)
(3.50012 7.61998e-19 1.45681)
(2.54225 1.6978e-18 1.26917)
(2.91594 1.95244e-19 1.51989)
(1.94095 -1.38759e-19 1.30293)
(2.31079 3.26697e-18 1.57346)
(1.33013 6.89459e-19 1.33193)
(1.71447 -1.57974e-18 1.61406)
(0.713918 5.71147e-19 1.3559)
(1.01537 6.29833e-19 1.65739)
(0.569829 -1.88786e-18 1.67539)
(9.98721 2.34858e-21 0.0657865)
(9.98814 2.28201e-21 0.0487493)
(9.95623 8.53908e-22 0.103869)
(9.97179 -1.84121e-21 0.0934349)
(9.90568 -2.3862e-21 0.140485)
(9.93513 -1.41754e-21 0.134647)
(9.83723 1.02555e-21 0.178146)
(9.87669 -9.73831e-22 0.176072)
(9.75136 1.93847e-21 0.217749)
(9.79969 1.00551e-23 0.219452)
(9.64778 -4.25794e-21 0.259784)
(9.70575 0 0.265383)
(9.52601 6.8052e-21 0.304814)
(9.59458 -6.2658e-21 0.314453)
(9.38539 -7.39864e-21 0.353376)
(9.46532 6.48491e-21 0.36731)
(9.22511 -1.06961e-20 0.40589)
(9.31711 -1.80221e-20 0.4245)
(9.04424 6.77191e-21 0.462655)
(9.14908 1.13529e-20 0.486429)
(8.84176 0 0.523877)
(8.96034 -1.91869e-20 0.553382)
(8.61666 -5.34056e-21 0.589696)
(8.7499 1.46214e-20 0.625561)
(8.36795 4.00387e-20 0.660201)
(8.51678 -4.70039e-20 0.703108)
(8.09464 -4.9725e-20 0.735441)
(8.25998 7.65531e-20 0.78612)
(7.79579 -5.52058e-20 0.815419)
(7.97856 -1.03948e-19 0.87466)
(7.47053 1.41029e-19 0.900068)
(7.67157 3.59196e-20 0.96874)
(7.11801 -6.06387e-20 0.98921)
(7.3381 3.34512e-21 1.06829)
(6.73749 -1.88848e-19 1.08249)
(6.97724 4.85095e-20 1.17308)
(6.32832 1.91371e-19 1.17929)
(6.58815 -1.65648e-19 1.28269)
(5.89006 -4.49822e-20 1.27867)
(6.17005 3.91584e-20 1.39635)
(5.42252 -2.53198e-19 1.37927)
(5.72231 -1.17054e-20 1.51289)
(4.92587 -7.49832e-20 1.47927)
(5.24453 5.96539e-19 1.63064)
(4.40078 -8.78907e-19 1.5764)
(4.73668 -6.26597e-19 1.74736)
(3.84858 -1.07071e-19 1.66803)
(4.19927 -7.95953e-19 1.86028)
(3.27136 6.63532e-19 1.75138)
(3.63349 8.29267e-19 1.96622)
(2.67218 1.80015e-18 1.82422)
(3.04215 0 2.06175)
(2.05498 1.77851e-18 1.88396)
(2.42395 1.77889e-18 2.14469)
(1.42546 -1.61957e-18 1.93337)
(1.81218 1.8005e-18 2.20952)
(0.792303 -1.84688e-18 1.96869)
(1.10105 -3.6416e-18 2.26813)
(0.612613 -3.52113e-18 2.28638)
(9.98534 -1.96124e-21 0.0769619)
(9.9876 3.3029e-24 0.0558069)
(9.95389 -4.10781e-21 0.124429)
(9.97039 -3.6926e-21 0.108962)
(9.90419 0 0.170725)
(9.93375 1.86147e-21 0.159818)
(9.83704 -1.97774e-21 0.218126)
(9.87646 -1.90808e-21 0.210955)
(9.75292 -1.92857e-21 0.267932)
(9.80129 1.92625e-21 0.264268)
(9.65163 -2.08638e-21 0.32093)
(9.70964 -4.00482e-21 0.320719)
(9.53269 -6.42609e-21 0.377834)
(9.60127 6.08759e-21 0.381081)
(9.39549 -4.44434e-21 0.439304)
(9.47538 -1.06433e-20 0.446125)
(9.23924 4.39415e-21 0.505877)
(9.33114 -1.60091e-22 0.516528)
(9.06308 -1.49856e-20 0.577951)
(9.16775 9.00527e-21 0.592813)
(8.86606 -4.14551e-21 0.655813)
(8.98436 -1.45469e-20 0.675367)
(8.64723 -2.78058e-20 0.73967)
(8.78002 1.94815e-20 0.764475)
(8.40562 -8.96058e-21 0.829676)
(8.5538 -4.17305e-20 0.860358)
(8.14026 2.00965e-20 0.925945)
(8.30473 3.19643e-20 0.96319)
(7.8502 -1.10912e-20 1.02855)
(8.03184 1.07123e-20 1.07312)
(7.53445 -1.0217e-19 1.13751)
(7.73413 -9.30482e-20 1.19025)
(7.19202 1.13032e-19 1.25272)
(7.41056 -5.83035e-21 1.31462)
(6.8219 6.91218e-20 1.37388)
(7.06004 2.35568e-19 1.44611)
(6.42309 -3.15339e-19 1.50042)
(6.6814 -1.36404e-19 1.58439)
(5.99464 7.17312e-20 1.63138)
(6.27345 -1.78068e-19 1.72877)
(5.53571 8.45547e-19 1.76527)
(5.83497 6.14229e-21 1.87807)
(5.0457 3.04188e-20 1.90001)
(5.36487 1.3456e-18 2.03049)
(4.5244 -5.45943e-19 2.03284)
(4.86225 -1.60705e-18 2.18349)
(3.97226 1.59642e-19 2.16039)
(4.32669 5.53963e-19 2.33371)
(3.39068 1.55964e-19 2.27873)
(3.75846 1.20811e-18 2.47697)
(2.7825 0 2.38412)
(3.16001 -1.26082e-18 2.60829)
(2.15237 1.8045e-18 2.47199)
(2.52906 1.36922e-18 2.72339)
(1.50778 -2.91236e-19 2.54183)
(1.90157 1.43022e-18 2.81388)
(0.861011 -5.30962e-18 2.58348)
(1.17834 -3.60623e-18 2.88641)
(0.651788 7.24201e-20 2.89731)
(9.98453 -1.77446e-21 0.0884703)
(9.98739 -6.34304e-21 0.0632553)
(9.95294 2.3472e-21 0.144781)
(9.96994 -8.89392e-22 0.124558)
(9.90427 -9.43114e-23 0.200479)
(9.93372 3.8251e-24 0.184466)
(9.8388 2.04358e-21 0.257567)
(9.87784 -3.78836e-21 0.244963)
(9.75687 -2.2457e-22 0.317511)
(9.80484 3.87932e-21 0.307915)
(9.65834 4.29594e-21 0.38131)
(9.71594 -4.00486e-21 0.374551)
(9.54275 1.66149e-21 0.449822)
(9.61089 6.12192e-21 0.445836)
(9.40949 -6.22757e-21 0.523829)
(9.48894 2.00065e-21 0.522672)
(9.25783 4.56527e-21 0.603986)
(9.34932 0 0.605852)
(9.08694 9.15157e-21 0.690799)
(9.19126 2.23634e-20 0.696012)
(8.89593 9.50271e-21 0.784651)
(9.01395 -1.80681e-20 0.793635)
(8.68386 4.79926e-21 0.885836)
(8.81648 1.44917e-22 0.899092)
(8.4498 1.04792e-22 0.994596)
(8.59795 0 1.01269)
(8.19277 2.23145e-20 1.11114)
(8.3574 1.03927e-20 1.13469)
(7.91178 -7.25223e-20 1.23564)
(8.09383 6.35444e-22 1.26534)
(7.60576 4.34725e-21 1.36825)
(7.80618 -3.03143e-21 1.4049)
(7.27354 1.19667e-19 1.50898)
(7.49329 3.32105e-21 1.55353)
(6.91388 2.54863e-20 1.65769)
(7.15385 2.22051e-19 1.71131)
(6.5254 3.70952e-22 1.81393)
(6.7864 -1.75016e-19 1.87808)
(6.10665 -2.41458e-19 1.97683)
(6.38929 0 2.05333)
(5.65614 5.22137e-19 2.1449)
(5.96072 -6.7582e-20 2.23602)
(5.17248 -3.26515e-19 2.3159)
(5.49883 4.56811e-19 2.42437)
(4.65453 -4.82151e-19 2.48666)
(5.00177 -1.05458e-18 2.61564)
(4.10178 1.6099e-18 2.653)
(4.46805 2.54375e-20 2.80593)
(3.5148 -2.3544e-19 2.80963)
(3.89678 1.66848e-18 2.99001)
(2.89601 1.376e-19 2.95075)
(3.28969 -8.5719e-22 3.16106)
(2.25049 9.9935e-19 3.06902)
(2.64326 1.18492e-19 3.31206)
(1.58702 -1.94923e-18 3.15974)
(1.99476 -1.82616e-19 3.43116)
(0.920511 1.80886e-18 3.20328)
(1.25212 -1.48459e-18 3.51869)
(0.686344 3.18373e-18 3.51688)
(9.98431 -5.38598e-21 0.100063)
(9.98737 -5.02457e-24 0.070809)
(9.953 -3.2214e-21 0.164816)
(9.9701 6.36294e-21 0.140016)
(9.90559 -3.73814e-21 0.229488)
(9.93469 -4.62081e-21 0.20848)
(9.84212 -1.85659e-21 0.295894)
(9.88051 1.85979e-21 0.27793)
(9.76281 0 0.365582)
(9.81002 0 0.350168)
(9.66753 -2.05153e-21 0.439745)
(9.72431 0 0.426606)
(9.55586 6.40946e-21 0.519403)
(9.62311 -2.02619e-21 0.508392)
(9.42724 8.20336e-21 0.605465)
(9.50573 1.24531e-20 0.59656)
(9.28095 1.8076e-20 0.698701)
(9.37145 -2.53646e-20 0.692015)
(9.1162 -5.35737e-21 0.79972)
(9.21955 3.93974e-20 0.795499)
(8.93215 -2.72013e-20 0.908995)
(9.04926 -2.27094e-20 0.907588)
(8.7279 -4.65648e-21 1.02691)
(8.85971 -5.59511e-23 1.02874)
(8.50252 1.04151e-20 1.15379)
(8.65003 -2.92765e-20 1.15936)
(8.25503 -1.14061e-20 1.28995)
(8.41927 3.97945e-20 1.2998)
(7.98439 7.00816e-20 1.43572)
(8.16642 -1.09037e-20 1.45046)
(7.68942 -3.96769e-21 1.59137)
(7.89035 9.00319e-20 1.61173)
(7.36881 1.08351e-19 1.75715)
(7.58977 -1.32673e-21 1.78401)
(7.02103 1.67922e-20 1.93312)
(7.26318 1.04545e-19 1.96761)
(6.64433 -1.73305e-19 2.11907)
(6.9088 -2.96515e-21 2.16265)
(6.23673 1.73059e-19 2.31434)
(6.52453 -2.25608e-19 2.36893)
(5.79602 -1.26615e-19 2.5176)
(6.10794 1.98414e-19 2.58568)
(5.31988 -2.88917e-19 2.72661)
(5.65629 -3.47004e-19 2.81133)
(4.80607 -5.34574e-19 2.9379)
(5.16662 -4.68995e-19 3.04316)
(4.25282 1.02235e-19 3.14655)
(4.63607 -5.37282e-19 3.2769)
(3.65943 1.88496e-18 3.34579)
(4.06209 1.58073e-18 3.50634)
(3.02728 -1.80194e-20 3.52737)
(3.44501 6.51501e-19 3.72274)
(2.36122 -1.06277e-18 3.6805)
(2.77944 -1.2498e-18 3.91586)
(1.67071 2.61747e-19 3.7955)
(2.10209 1.70581e-19 4.06968)
(0.972676 -5.93681e-20 3.84002)
(1.32761 -1.23755e-18 4.17718)
(0.716441 1.33506e-18 4.16077)
(9.98446 1.18234e-20 0.111538)
(9.98748 8.07159e-21 0.0782918)
(9.95381 4.82321e-21 0.184371)
(9.97069 4.55378e-21 0.155149)
(9.9079 1.05829e-21 0.25758)
(9.93644 -1.84567e-21 0.231729)
(9.84675 3.69291e-21 0.332895)
(9.88426 1.89149e-21 0.309694)
(9.77046 0 0.411928)
(9.81661 -3.79161e-21 0.390811)
(9.67892 0 0.49603)
(9.7345 3.83352e-21 0.476619)
(9.57176 4.1983e-21 0.586371)
(9.63766 4.00857e-21 0.568429)
(9.44843 -2.15855e-20 0.683983)
(9.52545 -1.20089e-20 0.667403)
(9.30828 -3.24002e-21 0.789741)
(9.39722 -3.38515e-20 0.774559)
(9.15058 2.12768e-20 0.904351)
(9.2523 1.69714e-20 0.890732)
(8.97451 4.71588e-21 1.02838)
(9.08996 1.74044e-20 1.01659)
(8.77923 -2.5036e-20 1.16229)
(8.90941 4.57306e-20 1.15269)
(8.56383 9.48113e-22 1.30653)
(8.70981 -4.7222e-20 1.29952)
(8.32734 3.96768e-20 1.46153)
(8.49023 4.0041e-20 1.45756)
(8.06868 1.0277e-20 1.62777)
(8.24968 -3.91163e-20 1.62735)
(7.78658 9.1569e-20 1.80575)
(7.98698 -8.38001e-20 1.80949)
(7.47958 -3.82801e-21 1.99595)
(7.70075 1.75513e-19 2.00462)
(7.1459 8.35066e-20 2.19876)
(7.38932 -2.01483e-21 2.21338)
(6.78342 -5.78385e-20 2.4143)
(7.05062 8.14207e-20 2.43627)
(6.38958 -1.9529e-19 2.64231)
(6.68212 -3.95516e-19 2.67353)
(5.9614 -2.82753e-20 2.88179)
(6.28073 2.50512e-19 2.92489)
(5.49549 -5.28438e-19 3.13073)
(5.84277 -2.76159e-20 3.18923)
(4.98823 -4.72725e-19 3.38564)
(5.36399 -4.95669e-19 3.46415)
(4.4361 9.64363e-19 3.64107)
(4.83974 -4.64243e-19 3.74538)
(3.8364 3.37313e-19 3.88888)
(4.26521 1.4029e-18 4.02611)
(3.1885 -6.01277e-19 4.11821)
(3.63821 -6.08147e-19 4.29586)
(2.49577 0 4.31421)
(2.95039 -5.28527e-19 4.54092)
(1.76733 -1.34683e-18 4.46132)
(2.23549 5.57784e-19 4.7404)
(1.0214 1.74493e-19 4.51107)
(1.4128 -1.32969e-18 4.87865)
(0.744503 8.34383e-19 4.85253)
(9.98485 7.54284e-22 0.12274)
(9.98767 4.49072e-22 0.085586)
(9.95517 -2.1978e-21 0.203298)
(9.9716 -3.1665e-21 0.169805)
(9.91104 -9.65181e-22 0.284608)
(9.93879 9.17582e-22 0.254077)
(9.85251 -5.66463e-21 0.368397)
(9.8889 1.8078e-21 0.340099)
(9.77962 1.3755e-22 0.456331)
(9.82441 -1.12594e-20 0.42964)
(9.69228 7.84434e-21 0.549893)
(9.7463 7.62162e-21 0.524337)
(9.59015 -1.23987e-20 0.650389)
(9.65431 1.57308e-20 0.625641)
(9.47276 -2.45466e-20 0.758967)
(9.54784 -2.40569e-20 0.734837)
(9.3395 -1.30096e-20 0.876602)
(9.42631 -8.48642e-21 0.853045)
(9.18969 1.3104e-20 1.00409)
(9.28914 -4.57187e-21 0.981193)
(9.0226 5.8769e-20 1.14209)
(9.13565 2.16709e-20 1.12004)
(8.83744 2.24074e-20 1.29117)
(8.96513 3.66274e-20 1.27022)
(8.63334 -7.06034e-21 1.45187)
(8.7768 -8.78004e-21 1.43232)
(8.40936 -3.97175e-20 1.62477)
(8.5698 4.84085e-20 1.60696)
(8.16441 -1.33742e-19 1.81053)
(8.34316 -9.52146e-21 1.79483)
(7.8972 3.25974e-21 2.0099)
(8.09572 -9.21155e-20 1.99677)
(7.60614 1.75211e-19 2.22368)
(7.82605 3.40104e-21 2.2137)
(7.28925 -3.0842e-21 2.45264)
(7.53238 9.01162e-20 2.44665)
(6.94407 -2.6188e-19 2.69741)
(7.21243 -6.88013e-20 2.69662)
(6.56752 5.77897e-20 2.95825)
(6.86329 -1.69904e-19 2.96445)
(6.15582 2.47983e-19 3.2348)
(6.4813 4.12551e-19 3.25058)
(5.70439 -1.46515e-22 3.52561)
(6.06183 -3.36427e-19 3.55469)
(5.20795 -4.86985e-19 3.8276)
(5.5992 1.98153e-19 3.87518)
(4.66068 -5.35911e-21 4.13527)
(5.08669 -4.55594e-19 4.2084)
(4.05696 4.35494e-19 4.43962)
(4.51646 6.819e-19 4.54763)
(3.39263 -5.34568e-19 4.72737)
(3.88243 2.53112e-21 4.88143)
(2.66761 4.13565e-20 4.97922)
(3.17148 -1.0013e-18 5.19293)
(1.88882 5.49912e-19 5.17263)
(2.41124 5.55605e-19 5.45567)
(1.07454 -6.56771e-19 5.2398)
(1.52174 2.59698e-19 5.64378)
(0.777196 -6.85959e-19 5.62427)
(9.98542 -3.51869e-21 0.13355)
(9.98792 -4.00359e-21 0.0926075)
(9.95696 0 0.221462)
(9.97275 4.43997e-22 0.183856)
(9.91487 3.70256e-21 0.31043)
(9.94163 0 0.275394)
(9.85924 -3.95134e-21 0.402224)
(9.89431 -3.60882e-21 0.368997)
(9.7901 -3.53864e-21 0.498571)
(9.83328 -3.76211e-21 0.46647)
(9.70738 1.56092e-20 0.601062)
(9.75952 3.78809e-21 0.56953)
(9.61079 3.57657e-21 0.711126)
(9.67281 4.01659e-21 0.679749)
(9.49992 -7.80306e-21 0.830019)
(9.5726 -7.99801e-21 0.798523)
(9.37424 0 0.95881)
(9.45839 2.40641e-20 0.927066)
(9.23314 4.31851e-21 1.09839)
(9.32967 -1.6266e-20 1.06639)
(9.07596 -2.87424e-22 1.24948)
(9.18586 4.01739e-23 1.21734)
(8.902 4.88327e-21 1.41276)
(9.02635 -4.44646e-21 1.38062)
(8.71048 4.739e-20 1.58887)
(8.85043 9.16331e-21 1.55693)
(8.5005 7.79096e-20 1.77855)
(8.65734 3.78781e-20 1.74699)
(8.27103 3.11212e-20 1.98267)
(8.44618 4.94336e-20 1.9517)
(8.02078 -9.08233e-20 2.20223)
(8.21587 1.39421e-21 2.1721)
(7.74813 -8.06724e-20 2.43842)
(7.96503 -7.67771e-20 2.40947)
(7.451 2.25232e-20 2.69247)
(7.69185 5.00303e-21 2.66525)
(7.12668 2.19987e-20 2.96563)
(7.39398 2.2261e-20 2.94105)
(6.77167 1.91594e-19 3.25893)
(7.0683 0 3.23845)
(6.38147 -1.80441e-19 3.57291)
(6.7107 1.03558e-19 3.55885)
(5.95034 -1.32118e-19 3.90715)
(6.31577 -2.73916e-19 3.90313)
(5.47116 2.22259e-19 4.25963)
(5.87647 2.24795e-19 4.27108)
(4.93536 2.44212e-19 4.62568)
(5.38386 1.1577e-20 4.66059)
(4.33328 2.4138e-19 4.99647)
(4.8265 1.46567e-19 5.0663)
(3.65534 -4.75865e-19 5.35722)
(4.19293 1.02943e-19 5.47736)
(2.89503 -4.69618e-19 5.68433)
(3.46266 -4.6948e-19 5.87511)
(2.05355 2.62376e-19 5.94675)
(2.65255 -6.08801e-20 6.22747)
(1.14804 2.21071e-19 6.05261)
(1.67643 3.18754e-19 6.49514)
(0.826496 -2.79162e-21 6.50562)
(9.98611 1.64942e-23 0.143876)
(9.98821 -4.40371e-22 0.0992931)
(9.95909 4.38364e-22 0.238745)
(9.97408 3.94845e-21 0.197198)
(9.91927 -7.35681e-21 0.334911)
(9.94487 8.89434e-22 0.29556)
(9.8668 -3.42159e-21 0.434214)
(9.90036 -4.55259e-21 0.396251)
(9.80174 3.65909e-21 0.538445)
(9.84307 3.70552e-21 0.50113)
(9.72402 -7.80181e-21 0.649289)
(9.774 3.72439e-21 0.611987)
(9.63343 -7.70784e-21 0.768284)
(9.69295 -1.52151e-20 0.730495)
(9.52962 2.42668e-20 0.896782)
(9.59947 3.81954e-21 0.858151)
(9.41214 7.30081e-21 1.03594)
(9.49312 1.23591e-20 0.996253)
(9.28048 -2.03436e-20 1.18671)
(9.37349 -1.62665e-20 1.14589)
(9.13408 -4.17369e-21 1.34992)
(9.24011 -8.29514e-21 1.30796)
(8.97234 0 1.52631)
(9.09247 4.16067e-21 1.48326)
(8.79457 0 1.71664)
(8.93 3.46358e-20 1.67256)
(8.60001 9.54222e-21 1.9218)
(8.75205 -3.92651e-20 1.87673)
(8.38771 1.91327e-20 2.14286)
(8.55786 1.38821e-20 2.0968)
(8.15647 1.45171e-20 2.38112)
(8.34648 1.42568e-20 2.33407)
(7.90474 9.87836e-21 2.63815)
(8.11665 9.26895e-23 2.59014)
(7.63045 4.94414e-21 2.91574)
(7.86671 1.06878e-22 2.86694)
(7.33083 0 3.21585)
(7.59436 0 3.16669)
(7.00217 -8.68521e-20 3.54046)
(7.29651 0 3.49187)
(6.63944 5.79009e-21 3.89135)
(6.96888 -8.34481e-20 3.84505)
(6.23599 8.86187e-20 4.26967)
(6.60562 7.94452e-20 4.22869)
(5.78296 1.17091e-20 4.6753)
(6.19872 0 4.64468)
(5.26881 -8.45862e-20 5.10571)
(5.73726 5.1128e-22 5.09359)
(4.67901 7.72357e-21 5.55403)
(5.20617 -1.1606e-19 5.57325)
(3.99634 1.02554e-19 6.00623)
(4.58746 1.43065e-19 6.07615)
(3.20343 -5.61155e-20 6.43604)
(3.8502 -3.99714e-20 6.58533)
(2.28886 1.88827e-21 6.80264)
(2.99319 -5.86361e-20 7.06557)
(1.26244 9.16871e-20 6.98075)
(1.91003 2.58339e-19 7.46094)
(0.911771 -1.96511e-19 7.53916)
(9.98691 3.54823e-21 0.153641)
(9.98855 -1.08257e-22 0.105594)
(9.9615 4.36072e-21 0.255044)
(9.97557 5.48702e-22 0.209747)
(9.92416 3.62518e-21 0.357931)
(9.94844 1.33049e-21 0.314469)
(9.87509 2.67823e-21 0.464222)
(9.90695 1.82521e-21 0.421737)
(9.81438 3.77104e-21 0.575773)
(9.85365 0 0.533467)
(9.74201 -3.92519e-21 0.694356)
(9.78955 7.36108e-21 0.651521)
(9.65782 -3.45103e-21 0.821598)
(9.71452 -3.77315e-21 0.777655)
(9.56154 -7.98243e-21 0.958937)
(9.62816 3.96254e-21 0.91345)
(9.45282 -1.15615e-20 1.1076)
(9.53015 -4.0047e-21 1.06028)
(9.33126 -4.11965e-21 1.26862)
(9.42017 1.58045e-20 1.21928)
(9.1964 1.9196e-22 1.44287)
(9.29787 -1.59487e-20 1.39143)
(9.04778 3.91694e-20 1.63116)
(9.16288 4.05827e-23 1.57756)
(8.88485 -5.52212e-21 1.83437)
(9.01477 1.04956e-21 1.77854)
(8.70699 -3.42835e-20 2.05351)
(8.85305 -3.26851e-21 1.9953)
(8.51342 9.01026e-21 2.28985)
(8.67715 6.32591e-23 2.22906)
(8.30313 -3.36718e-22 2.54498)
(8.48633 7.28196e-23 2.48131)
(8.07473 -9.6769e-21 2.82087)
(8.27956 -4.78025e-21 2.75399)
(7.82635 -4.83753e-21 3.11986)
(8.05543 -5.45992e-21 3.04947)
(7.55537 0 3.4447)
(7.81195 0 3.37062)
(7.25814 2.43961e-21 3.79847)
(7.54631 -4.62954e-21 3.72084)
(6.92957 -7.9389e-21 4.18444)
(7.25449 -4.07659e-20 4.10401)
(6.56252 -1.00853e-20 4.60586)
(6.93076 3.81232e-20 4.52446)
(6.14698 -1.11892e-20 5.06548)
(6.56688 0 4.9868)
(5.66888 -3.22857e-20 5.56454)
(6.15092 -1.10614e-20 5.49548)
(5.10869 2.22945e-20 6.10094)
(5.66516 7.5847e-20 6.0538)
(4.43984 -1.63199e-21 6.6656)
(5.08535 1.1421e-19 6.66171)
(3.62849 -4.2718e-20 7.23498)
(4.36807 -3.09293e-19 7.3109)
(2.63767 2.02315e-19 7.76151)
(3.48489 1.55084e-19 7.97256)
(1.44859 -3.0011e-20 8.07393)
(2.2813 1.99707e-19 8.57995)
(1.07265 -2.18544e-19 8.81369)
(9.98779 -3.099e-21 0.162787)
(9.98891 -1.08257e-22 0.111471)
(9.96412 -2.47181e-21 0.270272)
(9.97717 3.7309e-22 0.221431)
(9.92944 -4.62401e-22 0.379381)
(9.95227 9.85132e-22 0.332031)
(9.88399 -8.75971e-22 0.492117)
(9.91399 2.1703e-21 0.445346)
(9.82788 3.68216e-21 0.610397)
(9.86488 -1.78384e-21 0.563352)
(9.76115 7.37403e-21 0.736067)
(9.806 1.80919e-21 0.687971)
(9.68371 3.73607e-21 0.870831)
(9.73727 1.10459e-20 0.821031)
(9.59537 7.84153e-21 1.0162)
(9.65838 -1.10728e-20 0.964184)
(9.49588 2.36058e-20 1.17346)
(9.56911 2.08829e-20 1.11886)
(9.38497 3.58707e-21 1.34369)
(9.46924 8.16471e-21 1.28624)
(9.26231 -1.59045e-20 1.52781)
(9.35858 -1.18799e-20 1.46734)
(9.12758 -3.8068e-20 1.7267)
(9.23688 -4.11993e-21 1.66304)
(8.98042 3.24836e-21 1.94131)
(9.10388 -5.18673e-20 1.87424)
(8.82039 3.11209e-20 2.17276)
(8.95932 5.44378e-20 2.10197)
(8.64694 -8.87273e-21 2.42249)
(8.80284 -3.80208e-20 2.34754)
(8.45931 -4.4279e-21 2.69233)
(8.63397 2.92958e-20 2.61264)
(8.25645 -5.71001e-22 2.98463)
(8.45202 -1.05939e-21 2.89947)
(8.03683 -5.57576e-22 3.30227)
(8.25599 2.1298e-21 3.21078)
(7.79824 -4.68447e-21 3.64876)
(8.0444 0 3.55005)
(7.53752 -4.82603e-20 4.0283)
(7.81505 2.66575e-20 3.92151)
(7.25002 6.19754e-21 4.44581)
(7.56466 -6.09243e-20 4.33035)
(6.92897 4.7753e-20 4.90699)
(7.28839 1.33803e-20 4.78284)
(6.56429 0 5.41822)
(6.97891 1.74488e-20 5.28658)
(6.1409 9.80914e-20 5.98626)
(6.62509 -1.74224e-20 5.85075)
(5.63583 1.6822e-19 6.61721)
(6.20914 9.69415e-20 6.48626)
(5.0137 -1.98961e-19 7.31379)
(5.70407 -1.21212e-19 7.20533)
(4.22019 -1.05224e-19 8.06752)
(5.05699 -2.30956e-19 8.0192)
(3.17435 1.53107e-19 8.84235)
(4.20828 2.7644e-19 8.92825)
(1.77687 1.16799e-20 9.42311)
(2.91083 -2.21e-19 9.89392)
(1.40795 -2.19499e-19 10.5137)
(9.98874 3.37028e-21 0.171262)
(9.9893 2.12498e-22 0.116894)
(9.96693 3.83757e-21 0.284356)
(9.97887 -3.93342e-21 0.232194)
(9.93506 3.63343e-21 0.399172)
(9.95632 4.12821e-21 0.348171)
(9.89339 1.21278e-21 0.517789)
(9.9214 5.73661e-23 0.466986)
(9.84209 -3.61181e-21 0.642185)
(9.87666 -2.22162e-21 0.590671)
(9.78124 5.59629e-21 0.774266)
(9.82319 -5.35873e-21 0.721203)
(9.71083 -4.03758e-21 0.915799)
(9.76101 3.68846e-21 0.860464)
(9.63077 2.36284e-21 1.06835)
(9.68986 -1.29227e-20 1.01016)
(9.54091 5.28625e-21 1.23325)
(9.60964 1.50036e-20 1.17176)
(9.44109 -7.54668e-21 1.41161)
(9.52026 -9.08419e-23 1.34649)
(9.33117 0 1.60438)
(9.42165 -7.58612e-21 1.53536)
(9.21096 -1.85007e-20 1.81247)
(9.31374 1.91469e-21 1.73928)
(9.08032 6.01106e-22 2.03688)
(9.19646 -5.28855e-22 1.95918)
(8.93904 -1.58235e-20 2.27881)
(9.06977 2.61219e-21 2.19612)
(8.78683 9.4712e-22 2.53982)
(8.93358 -3.36325e-20 2.45148)
(8.62331 3.23014e-20 2.82194)
(8.78774 3.37796e-20 2.72707)
(8.44781 1.67942e-21 3.1278)
(8.63201 1.64478e-20 3.02525)
(8.25938 2.6619e-21 3.46072)
(8.46591 6.51055e-22 3.34911)
(8.05649 3.1658e-20 3.82488)
(8.28865 -8.43758e-21 3.70252)
(7.83685 1.29863e-20 4.22548)
(8.09896 2.3407e-20 4.09041)
(7.59694 -5.28788e-20 4.66898)
(7.89481 6.52999e-21 4.51901)
(7.33138 -1.68695e-20 5.16348)
(7.67305 -1.82012e-20 4.99625)
(7.03179 -3.6746e-22 5.71929)
(7.42869 1.74505e-20 5.53244)
(6.68481 -1.72106e-20 6.34966)
(7.15381 5.7446e-20 6.14134)
(6.26835 -1.95109e-19 7.07184)
(6.83506 -3.01317e-21 6.84203)
(5.74437 -1.54684e-19 7.90828)
(6.45088 -2.19461e-19 7.66206)
(5.04364 1.57889e-19 8.88642)
(5.95419 2.97988e-20 8.64309)
(4.03124 -1.04048e-19 10.0358)
(5.28017 1.04879e-19 9.85085)
(2.4318 -4.5762e-19 11.2072)
(4.0785 -2.21451e-19 11.3939)
(2.21279 -1.52307e-19 13.062)
(9.98973 -7.14365e-21 0.17903)
(9.9897 6.1425e-22 0.121839)
(9.96988 -3.54022e-21 0.297235)
(9.98064 -5.38356e-21 0.24199)
(9.94093 5.01194e-22 0.417221)
(9.96053 -1.9789e-21 0.362827)
(9.90319 -3.40534e-21 0.541134)
(9.92909 -3.05625e-21 0.486582)
(9.85687 -4.00789e-21 0.671004)
(9.88886 -4.45994e-22 0.615337)
(9.8021 -7.1537e-21 0.808782)
(9.84099 3.03041e-21 0.75111)
(9.73895 -5.40257e-21 0.956287)
(9.78554 -3.68919e-21 0.895827)
(9.66742 6.18167e-23 1.11512)
(9.72238 -1.2772e-22 1.05123)
(9.58748 9.4418e-21 1.28665)
(9.65149 1.85572e-21 1.21882)
(9.49911 -2.20659e-22 1.47198)
(9.57293 7.69177e-21 1.39982)
(9.40231 -5.5554e-21 1.6721)
(9.48677 -7.7289e-21 1.59525)
(9.2971 1.98571e-20 1.88791)
(9.39311 -7.0218e-21 1.80601)
(9.18353 1.52064e-21 2.12041)
(9.29209 4.02213e-20 2.033)
(9.06166 -1.56348e-20 2.37085)
(9.1839 -3.06656e-20 2.2773)
(8.93154 0 2.64085)
(9.06876 -1.4765e-20 2.54031)
(8.79316 1.77177e-20 2.93254)
(8.94691 1.47929e-20 2.82385)
(8.64641 1.52408e-20 3.24874)
(8.81856 2.14961e-20 3.13039)
(8.49098 -1.05444e-20 3.59306)
(8.68389 -1.3325e-20 3.46313)
(8.3263 -1.63174e-20 3.97012)
(8.54294 -1.31097e-21 3.82618)
(8.1513 1.67676e-20 4.38581)
(8.3956 -7.66312e-21 4.22485)
(7.96424 4.0913e-20 4.84773)
(8.24151 1.69715e-20 4.66593)
(7.76222 1.65231e-20 5.36584)
(8.07987 2.36042e-20 5.15831)
(7.54053 7.57916e-20 5.95357)
(7.9093 0 5.71394)
(7.29124 7.11569e-20 6.62984)
(7.72756 6.2653e-20 6.34944)
(7.00051 -2.98552e-20 7.42274)
(7.53084 5.36665e-20 7.08935)
(6.64239 -3.16019e-20 8.37705)
(7.31464 -8.17995e-20 7.97257)
(6.16292 -2.16867e-20 9.57247)
(7.06788 -3.29683e-20 9.06746)
(5.42811 -1.63814e-20 11.1927)
(6.82114 -2.39663e-20 10.5166)
(3.98085 7.9879e-20 13.7802)
(6.58659 7.18028e-20 12.7419)
(5.78516 4.87975e-19 17.4268)
(-0.562687 -1.98135e-19 0.344097)
(-0.154402 -2.49463e-18 0.534786)
(-1.22376 6.07394e-19 0.381577)
(-0.99721 4.2294e-18 0.610096)
(-1.97952 2.00962e-19 0.406229)
(-1.63731 -7.76596e-19 0.679679)
(-2.79599 -1.64766e-19 0.412917)
(-2.48395 -5.23571e-19 0.718567)
(-3.65294 -2.95439e-19 0.406254)
(-3.34111 3.24791e-19 0.73962)
(-4.51902 1.28738e-19 0.384172)
(-4.22495 -4.77785e-19 0.733409)
(-5.36022 1.58486e-21 0.347412)
(-5.09678 2.9714e-21 0.698769)
(-6.13884 1.14285e-19 0.296626)
(-5.92041 -8.04673e-20 0.634174)
(-6.81496 6.55779e-20 0.233127)
(-6.65582 5.4472e-21 0.539646)
(-7.34862 -7.86404e-20 0.158824)
(-7.26167 -7.89244e-20 0.417155)
(-7.70269 3.70897e-20 0.0760762)
(-7.69793 7.49827e-20 0.270913)
(-7.84567 3.47182e-20 -0.0127358)
(-7.92977 1.07356e-19 0.107011)
(-7.75657 3.03601e-22 -0.105142)
(-7.93238 1.26307e-20 -0.0653683)
(-7.42497 -1.66423e-20 -0.195767)
(-7.69206 -1.10748e-19 -0.237698)
(-6.8609 0 -0.276953)
(-7.21265 -3.89252e-21 -0.395305)
(-6.0922 0 -0.342652)
(-6.51637 2.68522e-20 -0.526637)
(-5.15931 0 -0.389227)
(-5.63997 -1.55693e-20 -0.624757)
(-4.10955 0 -0.415472)
(-4.62941 -4.46444e-22 -0.687179)
(-2.99198 0 -0.422565)
(-3.53315 9.96363e-21 -0.715048)
(-1.85102 0 -0.412726)
(-2.39074 -8.34232e-22 -0.713524)
(-0.724248 0 -0.388039)
(-1.24539 0 -0.688729)
(0.356049 -3.74225e-23 -0.353844)
(-0.0984772 7.81043e-22 -0.645412)
(1.37078 -3.82848e-23 -0.316429)
(0.933714 -1.17716e-21 -0.592572)
(2.30663 0 -0.279447)
(1.9218 4.20617e-22 -0.534203)
(3.16224 -9.26658e-24 -0.24481)
(2.83426 -7.49576e-23 -0.477432)
(3.93812 -1.08703e-23 -0.212925)
(3.66595 -2.37816e-24 -0.423248)
(4.63707 1.71224e-25 -0.184257)
(4.4189 1.69322e-25 -0.37277)
(5.26455 -2.9172e-23 -0.159302)
(5.09748 -4.12921e-23 -0.327206)
(5.82892 -2.9838e-23 -0.141212)
(5.70597 -6.31165e-24 -0.287774)
(6.37659 0 -0.264274)
(-0.60285 1.8776e-18 0.893614)
(-0.170073 9.82908e-20 1.15284)
(-1.33702 2.92934e-18 0.987842)
(-1.04223 3.45731e-18 1.29427)
(-2.13516 -1.5053e-18 1.05929)
(-1.73891 -9.34511e-19 1.40306)
(-2.98755 -4.30863e-20 1.1009)
(-2.61875 -2.07683e-18 1.473)
(-3.8703 1.52876e-19 1.11043)
(-3.50129 5.38029e-19 1.50444)
(-4.75533 -6.09042e-19 1.0803)
(-4.40453 -1.03729e-18 1.48464)
(-5.60873 -7.80079e-20 1.00732)
(-5.28937 7.04162e-19 1.40857)
(-6.39255 -1.90549e-19 0.889923)
(-6.12001 -3.85113e-20 1.27285)
(-7.06628 -1.38471e-19 0.729233)
(-6.85591 -1.53291e-19 1.07724)
(-7.5892 7.26174e-20 0.529443)
(-7.45474 1.73246e-20 0.825545)
(-7.92344 1.44867e-19 0.298032)
(-7.87526 5.60937e-20 0.526197)
(-8.03821 8.60873e-20 0.0452169)
(-8.08184 1.91833e-20 0.192414)
(-7.91186 -9.75647e-20 -0.21512)
(-8.04995 1.35858e-19 -0.158456)
(-7.53985 -9.89351e-20 -0.463952)
(-7.77063 -9.4291e-20 -0.504701)
(-6.93609 2.29096e-20 -0.68209)