/*--------------------------------*- C++ -*----------------------------------*\
  =========                 |
  \\      /  F ield         | OpenFOAM: The Open Source CFD Toolbox
   \\    /   O peration     | Website:  https://openfoam.org
    \\  /    A nd           | Version:  7
     \\/     M anipulation  |
\*---------------------------------------------------------------------------*/
FoamFile
{
    version     2.0;
    format      ascii;
    class       surfaceScalarField;
    location    "9.48";
    object      phi;
}
// * * * * * * * * * * * * * * * * * * * * * * * * * * * * * * * * * * * * * //

dimensions      [1 0 -1 0 0 0 0];

internalField   nonuniform List<scalar> 
23692
(
1.19563e-05
-3.2195e-07
1.24989e-05
-5.42491e-07
1.32222e-05
-7.23147e-07
1.40958e-05
-8.7338e-07
1.50987e-05
-1.0026e-06
1.6217e-05
-1.1179e-06
1.74422e-05
-1.22483e-06
1.87702e-05
-1.32758e-06
2.01995e-05
-1.42879e-06
2.17295e-05
-1.52949e-06
2.33593e-05
-1.62917e-06
2.50858e-05
-1.72598e-06
2.69037e-05
-1.81719e-06
2.8804e-05
-1.89967e-06
3.07751e-05
-1.97039e-06
3.28026e-05
-2.02681e-06
3.48704e-05
-2.06714e-06
3.69616e-05
-2.09042e-06
3.90588e-05
-2.09653e-06
4.11456e-05
-2.08607e-06
4.32066e-05
-2.06021e-06
4.52278e-05
-2.02049e-06
4.71973e-05
-1.9687e-06
4.91048e-05
-1.90672e-06
5.0942e-05
-1.83642e-06
5.27023e-05
-1.75958e-06
5.43809e-05
-1.67783e-06
5.59743e-05
-1.59265e-06
5.74803e-05
-1.50531e-06
5.8898e-05
-1.41694e-06
6.02272e-05
-1.32847e-06
6.14687e-05
-1.24068e-06
6.26236e-05
-1.1542e-06
6.36938e-05
-1.06956e-06
6.46817e-05
-9.87142e-07
6.55896e-05
-9.07265e-07
6.64205e-05
-8.30158e-07
6.71771e-05
-7.55984e-07
6.78626e-05
-6.84848e-07
6.84801e-05
-6.16812e-07
6.90326e-05
-5.519e-07
6.95233e-05
-4.90103e-07
6.99553e-05
-4.31388e-07
7.03315e-05
-3.75701e-07
7.0655e-05
-3.22969e-07
7.09287e-05
-2.73108e-07
7.11552e-05
-2.26016e-07
7.13372e-05
-1.81584e-07
7.14774e-05
-1.39689e-07
7.1578e-05
-1.00198e-07
7.16414e-05
-6.29661e-08
7.16696e-05
-2.78328e-08
7.16645e-05
5.35885e-09
7.16281e-05
3.67389e-08
7.15619e-05
6.6433e-08
7.14676e-05
9.46039e-08
7.13463e-05
1.21441e-07
7.11993e-05
1.4715e-07
7.10275e-05
1.71956e-07
7.08315e-05
1.96108e-07
7.06117e-05
2.19881e-07
7.03681e-05
2.43585e-07
7.01005e-05
2.67574e-07
6.98082e-05
2.9226e-07
6.949e-05
3.18123e-07
6.91441e-05
3.45742e-07
6.87681e-05
3.75823e-07
6.83587e-05
4.09248e-07
6.79113e-05
4.47152e-07
6.742e-05
4.9103e-07
6.68768e-05
5.42919e-07
6.62708e-05
6.05696e-07
6.55869e-05
6.83576e-07
6.48035e-05
7.83014e-07
6.38888e-05
9.14349e-07
6.27934e-05
1.09497e-06
6.14374e-05
1.35562e-06
5.9683e-05
1.75405e-06
5.72724e-05
2.41022e-06
5.36463e-05
3.62567e-06
6.73676e-06
4.69092e-05
1.27817e-05
-6.55642e-07
1.3358e-05
-1.11862e-06
1.41285e-05
-1.49345e-06
1.50599e-05
-1.80458e-06
1.613e-05
-2.07239e-06
1.73238e-05
-2.31135e-06
1.86324e-05
-2.53296e-06
2.00512e-05
-2.74598e-06
2.15789e-05
-2.95593e-06
2.3215e-05
-3.165e-06
2.49585e-05
-3.37211e-06
2.68066e-05
-3.57342e-06
2.87534e-05
-3.76325e-06
3.07895e-05
-3.93506e-06
3.29023e-05
-4.08249e-06
3.50764e-05
-4.20024e-06
3.72946e-05
-4.28453e-06
3.95383e-05
-4.33335e-06
4.1789e-05
-4.34645e-06
4.40288e-05
-4.32506e-06
4.6241e-05
-4.2716e-06
4.84106e-05
-4.18932e-06
5.05247e-05
-4.08192e-06
5.25721e-05
-3.95335e-06
5.4544e-05
-3.80747e-06
5.64332e-05
-3.648e-06
5.82345e-05
-3.47835e-06
5.99443e-05
-3.30157e-06
6.15601e-05
-3.12035e-06
6.30809e-05
-2.93698e-06
6.45067e-05
-2.75342e-06
6.58381e-05
-2.57128e-06
6.70765e-05
-2.39189e-06
6.8224e-05
-2.21631e-06
6.9283e-05
-2.04537e-06
7.02562e-05
-1.8797e-06
7.11465e-05
-1.71979e-06
7.19572e-05
-1.56596e-06
7.26915e-05
-1.41844e-06
7.33527e-05
-1.27736e-06
7.39443e-05
-1.14275e-06
7.44694e-05
-1.0146e-06
7.49315e-05
-8.92838e-07
7.53337e-05
-7.77349e-07
7.56793e-05
-6.67982e-07
7.59713e-05
-5.64557e-07
7.62127e-05
-4.66865e-07
7.64063e-05
-3.74676e-07
7.65548e-05
-2.87735e-07
7.66608e-05
-2.05766e-07
7.67268e-05
-1.28467e-07
7.67548e-05
-5.55071e-08
7.67471e-05
1.34318e-08
7.67056e-05
7.86226e-08
7.66319e-05
1.40339e-07
7.65279e-05
1.9892e-07
7.63948e-05
2.54755e-07
7.62338e-05
3.08268e-07
7.6046e-05
3.59923e-07
7.5832e-05
4.10225e-07
7.55922e-05
4.59738e-07
7.53267e-05
5.09093e-07
7.50352e-05
5.59009e-07
7.47171e-05
6.10312e-07
7.43712e-05
6.63968e-07
7.39957e-05
7.21131e-07
7.35881e-05
7.83196e-07
7.31453e-05
8.51894e-07
7.26627e-05
9.2942e-07
7.21349e-05
1.01863e-06
7.15541e-05
1.12334e-06
7.09107e-05
1.24881e-06
7.01914e-05
1.40252e-06
6.93786e-05
1.59545e-06
6.84483e-05
1.84424e-06
6.73679e-05
2.17498e-06
6.60935e-05
2.6296e-06
6.457e-05
3.27713e-06
6.27438e-05
4.23598e-06
6.06544e-05
5.71462e-06
8.00415e-06
5.93866e-05
1.36598e-05
-9.97123e-07
1.42668e-05
-1.72547e-06
1.50824e-05
-2.30883e-06
1.60714e-05
-2.79332e-06
1.72095e-05
-3.21023e-06
1.84807e-05
-3.58217e-06
1.98754e-05
-3.9272e-06
2.1389e-05
-4.25907e-06
2.30202e-05
-4.5865e-06
2.47688e-05
-4.91297e-06
2.66341e-05
-5.23684e-06
2.86135e-05
-5.55212e-06
3.07008e-05
-5.84981e-06
3.28861e-05
-6.11959e-06
3.51558e-05
-6.35142e-06
3.74932e-05
-6.53686e-06
3.98794e-05
-6.6699e-06
4.22942e-05
-6.74737e-06
4.47174e-05
-6.7688e-06
4.71294e-05
-6.73616e-06
4.95119e-05
-6.65324e-06
5.18486e-05
-6.52515e-06
5.41253e-05
-6.35775e-06
5.633e-05
-6.15719e-06
5.8453e-05
-5.92961e-06
6.04866e-05
-5.68079e-06
6.24253e-05
-5.41611e-06
6.42649e-05
-5.14032e-06
6.6003e-05
-4.85765e-06
6.76386e-05
-4.57167e-06
6.91715e-05
-4.28544e-06
7.06025e-05
-4.00148e-06
7.19333e-05
-3.72185e-06
7.3166e-05
-3.44819e-06
7.43032e-05
-3.1818e-06
7.5348e-05
-2.92367e-06
7.63035e-05
-2.67452e-06
7.71732e-05
-2.43489e-06
7.79606e-05
-2.20509e-06
7.86693e-05
-1.98533e-06
7.93029e-05
-1.77566e-06
7.9865e-05
-1.57605e-06
8.03592e-05
-1.38638e-06
8.0789e-05
-1.20648e-06
8.11577e-05
-1.0361e-06
8.14687e-05
-8.74954e-07
8.17252e-05
-7.22719e-07
8.19301e-05
-5.7903e-07
8.20863e-05
-4.4349e-07
8.21967e-05
-3.15666e-07
8.22638e-05
-1.95088e-07
8.22899e-05
-8.12446e-08
8.22774e-05
2.6349e-08
8.22283e-05
1.28119e-07
8.21444e-05
2.24513e-07
8.20275e-05
3.16064e-07
8.18791e-05
4.03374e-07
8.17005e-05
4.87096e-07
8.14926e-05
5.67938e-07
8.12563e-05
6.46672e-07
8.09919e-05
7.24152e-07
8.06997e-05
8.01328e-07
8.03794e-05
8.79276e-07
8.00305e-05
9.59222e-07
7.96517e-05
1.04259e-06
7.92417e-05
1.13106e-06
7.8798e-05
1.22663e-06
7.8318e-05
1.33175e-06
7.77976e-05
1.44948e-06
7.72323e-05
1.58367e-06
7.6616e-05
1.73934e-06
7.59413e-05
1.92315e-06
7.51993e-05
2.14411e-06
7.43797e-05
2.41464e-06
7.34714e-05
2.75211e-06
7.2465e-05
3.181e-06
7.13586e-05
3.73558e-06
7.01726e-05
4.46265e-06
6.89859e-05
5.42221e-06
6.80256e-05
6.67448e-06
8.2076e-06
6.78217e-05
1.45961e-05
-1.34397e-06
1.52305e-05
-2.35982e-06
1.60892e-05
-3.16733e-06
1.7135e-05
-3.83883e-06
1.83417e-05
-4.41656e-06
1.96919e-05
-4.93193e-06
2.11755e-05
-5.41026e-06
2.27878e-05
-5.87084e-06
2.45279e-05
-6.32601e-06
2.63963e-05
-6.78076e-06
2.8393e-05
-7.23286e-06
3.05156e-05
-7.67389e-06
3.27577e-05
-8.09116e-06
3.51089e-05
-8.46999e-06
3.75544e-05
-8.7961e-06
4.00758e-05
-9.05744e-06
4.26522e-05
-9.24544e-06
4.52613e-05
-9.35555e-06
4.78805e-05
-9.38711e-06
5.04881e-05
-9.34287e-06
5.30641e-05
-9.22823e-06
5.55902e-05
-9.0504e-06
5.80511e-05
-8.81764e-06
6.04334e-05
-8.53864e-06
6.27268e-05
-8.22199e-06
6.49227e-05
-7.87584e-06
6.70153e-05
-7.50769e-06
6.90001e-05
-7.12421e-06
7.08746e-05
-6.73126e-06
7.26377e-05
-6.33386e-06
7.42894e-05
-5.93622e-06
7.58306e-05
-5.54185e-06
7.72633e-05
-5.15359e-06
7.85897e-05
-4.77373e-06
7.98128e-05
-4.40404e-06
8.09359e-05
-4.04589e-06
8.19624e-05
-3.70027e-06
8.28963e-05
-3.3679e-06
8.37412e-05
-3.04921e-06
8.45011e-05
-2.74447e-06
8.518e-05
-2.45374e-06
8.57816e-05
-2.17697e-06
8.631e-05
-1.914e-06
8.67687e-05
-1.66454e-06
8.71616e-05
-1.42827e-06
8.7492e-05
-1.20478e-06
8.77635e-05
-9.93618e-07
8.79794e-05
-7.94264e-07
8.81426e-05
-6.0617e-07
8.82562e-05
-4.28735e-07
8.83229e-05
-2.61308e-07
8.83453e-05
-1.03187e-07
8.83257e-05
4.62858e-08
8.82665e-05
1.87702e-07
8.81697e-05
3.21705e-07
8.8037e-05
4.49046e-07
8.78701e-05
5.70548e-07
8.76703e-05
6.871e-07
8.74387e-05
7.99656e-07
8.71762e-05
9.09252e-07
8.68834e-05
1.01702e-06
8.65606e-05
1.12423e-06
8.62076e-05
1.23226e-06
8.5824e-05
1.34271e-06
8.54091e-05
1.4574e-06
8.49616e-05
1.57841e-06
8.44798e-05
1.70822e-06
8.39615e-05
1.84977e-06
8.34041e-05
2.00662e-06
8.28043e-05
2.18314e-06
8.21586e-05
2.38476e-06
8.1463e-05
2.61831e-06
8.07143e-05
2.89248e-06
7.99102e-05
3.21825e-06
7.90524e-05
3.60949e-06
7.81497e-05
4.08321e-06
7.72257e-05
4.65916e-06
7.63301e-05
5.35773e-06
7.55578e-05
6.19407e-06
7.50675e-05
7.16431e-06
8.21361e-06
7.5061e-05
1.55958e-05
-1.69494e-06
1.62552e-05
-3.01908e-06
1.71552e-05
-4.06713e-06
1.8257e-05
-4.94025e-06
1.95325e-05
-5.69168e-06
2.09631e-05
-6.36213e-06
2.25383e-05
-6.98498e-06
2.42538e-05
-7.58574e-06
2.61094e-05
-8.18093e-06
2.81067e-05
-8.77733e-06
3.02466e-05
-9.37207e-06
3.25275e-05
-9.95393e-06
3.4943e-05
-1.05059e-05
3.74819e-05
-1.1008e-05
4.01278e-05
-1.14411e-05
4.28601e-05
-1.17888e-05
4.56551e-05
-1.20395e-05
4.84876e-05
-1.21871e-05
5.13322e-05
-1.22307e-05
5.41644e-05
-1.21741e-05
5.69617e-05
-1.20246e-05
5.97041e-05
-1.17918e-05
6.23743e-05
-1.14868e-05
6.49579e-05
-1.11213e-05
6.74434e-05
-1.07065e-05
6.98219e-05
-1.02533e-05
7.20867e-05
-9.77152e-06
7.42335e-05
-9.27e-06
7.62596e-05
-8.75638e-06
7.81639e-05
-8.23723e-06
7.99467e-05
-7.71804e-06
8.16092e-05
-7.20337e-06
8.31535e-05
-6.6969e-06
8.45822e-05
-6.20158e-06
8.58988e-05
-5.71971e-06
8.71069e-05
-5.25302e-06
8.82103e-05
-4.8028e-06
8.92132e-05
-4.36993e-06
9.01198e-05
-3.95498e-06
9.09345e-05
-3.55824e-06
9.16613e-05
-3.1798e-06
9.23047e-05
-2.81956e-06
9.28688e-05
-2.47728e-06
9.33576e-05
-2.1526e-06
9.37751e-05
-1.84506e-06
9.41251e-05
-1.55413e-06
9.44114e-05
-1.2792e-06
9.46373e-05
-1.0196e-06
9.48064e-05
-7.7461e-07
9.49216e-05
-5.43442e-07
9.49861e-05
-3.25258e-07
9.50025e-05
-1.19154e-07
9.49736e-05
7.57048e-08
9.49016e-05
2.6009e-07
9.47888e-05
4.34871e-07
9.46371e-05
6.01028e-07
9.44483e-05
7.59617e-07
9.42239e-05
9.11759e-07
9.39651e-05
1.05865e-06
9.36728e-05
1.20158e-06
9.3348e-05
1.34195e-06
9.2991e-05
1.48127e-06
9.2602e-05
1.62122e-06
9.2181e-05
1.76369e-06
9.17275e-05
1.91076e-06
9.12409e-05
2.06481e-06
9.07204e-05
2.22857e-06
9.01647e-05
2.4052e-06
8.95727e-05
2.59835e-06
8.89432e-05
2.81234e-06
8.82753e-05
3.05223e-06
8.75693e-05
3.32398e-06
8.68268e-05
3.63453e-06
8.60528e-05
3.9918e-06
8.52574e-05
4.40441e-06
8.44591e-05
4.88104e-06
8.36889e-05
5.42886e-06
8.29953e-05
6.05078e-06
8.24481e-05
6.74077e-06
8.21352e-05
7.4767e-06
8.20932e-06
8.2139e-05
1.66646e-05
-2.04983e-06
1.73472e-05
-3.70154e-06
1.82872e-05
-5.00691e-06
1.94442e-05
-6.09696e-06
2.0789e-05
-7.03603e-06
2.23019e-05
-7.87454e-06
2.39722e-05
-8.65472e-06
2.57963e-05
-9.40924e-06
2.77755e-05
-1.01595e-05
2.99133e-05
-1.09144e-05
3.22123e-05
-1.16703e-05
3.46718e-05
-1.24125e-05
3.72856e-05
-1.31188e-05
4.00412e-05
-1.37627e-05
4.292e-05
-1.4319e-05
4.58981e-05
-1.47659e-05
4.89481e-05
-1.50885e-05
5.20408e-05
-1.52787e-05
5.5147e-05
-1.53358e-05
5.82388e-05
-1.52649e-05
6.12908e-05
-1.50755e-05
6.42806e-05
-1.47805e-05
6.7189e-05
-1.43942e-05
7.00004e-05
-1.39315e-05
7.27022e-05
-1.34072e-05
7.52849e-05
-1.28349e-05
7.77417e-05
-1.22272e-05
8.0068e-05
-1.15953e-05
8.22613e-05
-1.09487e-05
8.43209e-05
-1.02957e-05
8.62471e-05
-9.64321e-06
8.80416e-05
-8.99686e-06
8.9707e-05
-8.36125e-06
9.12464e-05
-7.74e-06
9.26636e-05
-7.13594e-06
9.39628e-05
-6.55118e-06
9.51482e-05
-5.98729e-06
9.62245e-05
-5.44532e-06
9.71964e-05
-4.92594e-06
9.80685e-05
-4.42948e-06
9.88456e-05
-3.956e-06
9.95323e-05
-3.50536e-06
0.000100133
-3.07722e-06
0.000100652
-2.6711e-06
0.000101094
-2.28643e-06
0.000101464
-1.9225e-06
0.000101764
-1.57854e-06
0.000101998
-1.25371e-06
0.000102172
-9.47107e-07
0.000102286
-6.57745e-07
0.000102346
-3.84586e-07
0.000102354
-1.26521e-07
0.000102313
1.17476e-07
0.000102225
3.48374e-07
0.000102093
5.67289e-07
0.000101919
7.75446e-07
0.000101705
9.74133e-07
0.000101452
1.1647e-06
0.000101162
1.34857e-06
0.000100837
1.52726e-06
0.000100476
1.70238e-06
0.000100082
1.87568e-06
9.96542e-05
2.04905e-06
9.91933e-05
2.22453e-06
9.86996e-05
2.4044e-06
9.81731e-05
2.59114e-06
9.76139e-05
2.78749e-06
9.70223e-05
2.99653e-06
9.63987e-05
3.22165e-06
9.57441e-05
3.46661e-06
9.50605e-05
3.73553e-06
9.43512e-05
4.03283e-06
9.36222e-05
4.36309e-06
9.28827e-05
4.73076e-06
9.21471e-05
5.13957e-06
9.14359e-05
5.5917e-06
9.07779e-05
6.08636e-06
9.02102e-05
6.61793e-06
8.97768e-05
7.17358e-06
8.95223e-05
7.73064e-06
8.25471e-06
8.94764e-05
1.7808e-05
-2.40928e-06
1.8513e-05
-4.40639e-06
1.94924e-05
-5.98611e-06
2.07048e-05
-7.30893e-06
2.21198e-05
-8.45061e-06
2.37173e-05
-9.47155e-06
2.54871e-05
-1.04239e-05
2.74271e-05
-1.13485e-05
2.9541e-05
-1.22727e-05
3.18353e-05
-1.32078e-05
3.4315e-05
-1.41492e-05
3.6981e-05
-1.50776e-05
3.98269e-05
-1.59637e-05
4.28382e-05
-1.67731e-05
4.59927e-05
-1.74724e-05
4.92618e-05
-1.80339e-05
5.26126e-05
-1.84382e-05
5.60108e-05
-1.86758e-05
5.94222e-05
-1.87461e-05
6.28147e-05
-1.86563e-05
6.61596e-05
-1.84193e-05
6.94317e-05
-1.80515e-05
7.261e-05
-1.75713e-05
7.56775e-05
-1.69979e-05
7.86209e-05
-1.63494e-05
8.14302e-05
-1.56431e-05
8.40987e-05
-1.48945e-05
8.6622e-05
-1.41173e-05
8.89977e-05
-1.33233e-05
9.12257e-05
-1.25225e-05
9.33068e-05
-1.17232e-05
9.52432e-05
-1.09322e-05
9.70382e-05
-1.01551e-05
9.86955e-05
-9.39622e-06
0.000100219
-8.65882e-06
0.000101615
-7.94546e-06
0.000102886
-7.25791e-06
0.00010404
-6.59741e-06
0.000105079
-5.96469e-06
0.000106011
-5.36009e-06
0.000106839
-4.78363e-06
0.00010757
-4.23509e-06
0.000108208
-3.714e-06
0.000108757
-3.21977e-06
0.000109223
-2.75163e-06
0.00010961
-2.30873e-06
0.000109923
-1.8901e-06
0.000110164
-1.49471e-06
0.000110339
-1.12144e-06
0.000110451
-7.69121e-07
0.000110504
-4.36501e-07
0.0001105
-1.22267e-07
0.000110443
1.74819e-07
0.000110336
4.55944e-07
0.000110182
7.22494e-07
0.000109981
9.75942e-07
0.000109738
1.2178e-06
0.000109453
1.44963e-06
0.000109129
1.67306e-06
0.000108767
1.88979e-06
0.000108368
2.10163e-06
0.000107933
2.31046e-06
0.000107464
2.51829e-06
0.000106961
2.72726e-06
0.000106426
2.93965e-06
0.000105859
3.15788e-06
0.000105261
3.38453e-06
0.000104635
3.6223e-06
0.000103983
3.87405e-06
0.000103306
4.14269e-06
0.00010261
4.43109e-06
0.000101901
4.74195e-06
0.000101186
5.07757e-06
0.000100477
5.43943e-06
9.97879e-05
5.8277e-06
9.91384e-05
6.2406e-06
9.85507e-05
6.67352e-06
9.80499e-05
7.11816e-06
9.76612e-05
7.56175e-06
9.74045e-05
7.98672e-06
8.37173e-06
9.72869e-05
1.90317e-05
-2.77459e-06
1.97593e-05
-5.1338e-06
2.07786e-05
-7.0051e-06
2.2047e-05
-8.57699e-06
2.35341e-05
-9.93727e-06
2.52198e-05
-1.11567e-05
2.70952e-05
-1.22986e-05
2.91611e-05
-1.34137e-05
3.14253e-05
-1.45361e-05
3.38985e-05
-1.56801e-05
3.65895e-05
-1.68392e-05
3.95006e-05
-1.79878e-05
4.26247e-05
-1.90867e-05
4.59435e-05
-2.00909e-05
4.94292e-05
-2.09569e-05
5.30459e-05
-2.16495e-05
5.67536e-05
-2.21448e-05
6.05109e-05
-2.24319e-05
6.42776e-05
-2.25116e-05
6.80169e-05
-2.23943e-05
7.1696e-05
-2.20971e-05
7.52872e-05
-2.16415e-05
7.87679e-05
-2.10508e-05
8.21199e-05
-2.03487e-05
8.53296e-05
-1.95578e-05
8.83871e-05
-1.86993e-05
9.12857e-05
-1.77919e-05
9.40215e-05
-1.6852e-05
9.65932e-05
-1.58937e-05
9.90009e-05
-1.4929e-05
0.000101247
-1.39676e-05
0.000103333
-1.30176e-05
0.000105264
-1.20853e-05
0.000107045
-1.11758e-05
0.00010868
-1.02929e-05
0.000110176
-9.43947e-06
0.000111536
-8.61748e-06
0.000112768
-7.8283e-06
0.000113877
-7.07268e-06
0.000114869
-6.35095e-06
0.00011575
-5.66305e-06
0.000116524
-5.00862e-06
0.000117198
-4.38707e-06
0.000117777
-3.79762e-06
0.000118266
-3.23933e-06
0.000118669
-2.71114e-06
0.000118991
-2.21188e-06
0.000119238
-1.74029e-06
0.000119412
-1.29506e-06
0.000119519
-8.74787e-07
0.000119561
-4.78009e-07
0.000119542
-1.03223e-07
0.000119467
2.51041e-07
0.000119337
5.86229e-07
0.000119156
9.04009e-07
0.000118926
1.20609e-06
0.00011865
1.49419e-06
0.00011833
1.77007e-06
0.000117968
2.03553e-06
0.000117565
2.29241e-06
0.000117124
2.54263e-06
0.000116647
2.78817e-06
0.000116134
3.03108e-06
0.000115588
3.27345e-06
0.00011501
3.51747e-06
0.000114402
3.76534e-06
0.000113767
4.01931e-06
0.000113108
4.28158e-06
0.000112427
4.55429e-06
0.00011173
4.8394e-06
0.000111022
5.13857e-06
0.000110311
5.45297e-06
0.000109605
5.78307e-06
0.000108915
6.12833e-06
0.000108255
6.48686e-06
0.00010764
6.85507e-06
0.000107086
7.22732e-06
0.000106608
7.59569e-06
0.000106219
7.94996e-06
0.000105927
8.27812e-06
8.56776e-06
0.00010573
2.03417e-05
-3.14754e-06
2.10929e-05
-5.88482e-06
2.21533e-05
-8.06523e-06
2.34798e-05
-9.90304e-06
2.50421e-05
-1.1499e-05
2.68212e-05
-1.29352e-05
2.8811e-05
-1.42877e-05
3.10172e-05
-1.56191e-05
3.3454e-05
-1.6972e-05
3.61384e-05
-1.83635e-05
3.90836e-05
-1.97834e-05
4.22932e-05
-2.11964e-05
4.57572e-05
-2.25495e-05
4.94508e-05
-2.37833e-05
5.33369e-05
-2.48419e-05
5.73699e-05
-2.56812e-05
6.14997e-05
-2.62733e-05
6.56763e-05
-2.66073e-05
6.98527e-05
-2.66867e-05
7.39866e-05
-2.65269e-05
7.80418e-05
-2.6151e-05
8.19882e-05
-2.55866e-05
8.5802e-05
-2.48632e-05
8.94645e-05
-2.40099e-05
9.29624e-05
-2.30543e-05
9.62861e-05
-2.20217e-05
9.943e-05
-2.09344e-05
0.000102391
-1.98118e-05
0.000105169
-1.86702e-05
0.000107765
-1.75236e-05
0.000110182
-1.63833e-05
0.000112424
-1.52583e-05
0.000114496
-1.41561e-05
0.000116403
-1.30821e-05
0.000118152
-1.20407e-05
0.000119749
-1.10349e-05
0.0001212
-1.00671e-05
0.000122511
-9.13856e-06
0.00012369
-8.25003e-06
0.000124742
-7.40176e-06
0.000125673
-6.59358e-06
0.000126491
-5.82497e-06
0.0001272
-5.09515e-06
0.000127807
-4.40313e-06
0.000128316
-3.74776e-06
0.000128733
-3.12774e-06
0.000129064
-2.54168e-06
0.000129313
-1.9881e-06
0.000129484
-1.46543e-06
0.000129582
-9.72049e-07
0.000129611
-5.06284e-07
0.000129575
-6.64697e-08
0.000129477
3.49123e-07
0.000129322
7.42265e-07
0.000129112
1.1149e-06
0.000128849
1.46895e-06
0.000128537
1.80631e-06
0.000128179
2.12891e-06
0.000127776
2.43868e-06
0.000127331
2.73757e-06
0.000126846
3.02756e-06
0.000126324
3.31064e-06
0.000125766
3.58881e-06
0.000125176
3.86405e-06
0.000124555
4.13835e-06
0.000123906
4.41361e-06
0.000123234
4.69164e-06
0.000122541
4.9741e-06
0.000121832
5.26242e-06
0.000121114
5.55769e-06
0.000120391
5.86056e-06
0.000119673
6.17107e-06
0.000118967
6.48852e-06
0.000118283
6.81129e-06
0.000117633
7.13665e-06
0.000117027
7.46068e-06
0.000116475
7.77819e-06
0.000115987
8.08284e-06
0.000115569
8.36736e-06
0.000115223
8.62415e-06
8.8464e-06
0.000114944
2.1744e-05
-3.53026e-06
2.25208e-05
-6.66138e-06
2.36247e-05
-9.16885e-06
2.50123e-05
-1.12902e-05
2.66544e-05
-1.31406e-05
2.85346e-05
-1.48148e-05
3.06519e-05
-1.64042e-05
3.30199e-05
-1.79863e-05
3.5662e-05
-1.96132e-05
3.86038e-05
-2.13043e-05
4.18634e-05
-2.30419e-05
4.54436e-05
-2.47754e-05
4.93278e-05
-2.64325e-05
5.348e-05
-2.79343e-05
5.78496e-05
-2.92102e-05
6.23771e-05
-3.02073e-05
6.70003e-05
-3.08952e-05
7.16593e-05
-3.12649e-05
7.62997e-05
-3.13257e-05
8.08744e-05
-3.11001e-05
8.53441e-05
-3.06193e-05
8.96775e-05
-2.99185e-05
9.38501e-05
-2.90343e-05
9.7844e-05
-2.80023e-05
0.000101647
-2.68555e-05
0.00010525
-2.56234e-05
0.000108649
-2.43323e-05
0.000111843
-2.30044e-05
0.000114833
-2.16587e-05
0.000117621
-2.03107e-05
0.000120213
-1.89732e-05
0.000122612
-1.76564e-05
0.000124826
-1.63684e-05
0.000126861
-1.51154e-05
0.000128723
-1.39019e-05
0.000130421
-1.27313e-05
0.000131961
-1.16059e-05
0.000133351
-1.0527e-05
0.000134597
-9.49536e-06
0.000135708
-8.51098e-06
0.000136689
-7.57355e-06
0.000137548
-6.68234e-06
0.00013829
-5.83633e-06
0.000138922
-5.03431e-06
0.00013945
-4.27485e-06
0.00013988
-3.55642e-06
0.000140217
-2.87736e-06
0.000140465
-2.23593e-06
0.000140631
-1.63033e-06
0.000140719
-1.05868e-06
0.000140732
-5.19064e-07
0.000140676
-9.76315e-09
0.000140555
4.71238e-07
0.000140371
9.26214e-07
0.00014013
1.35729e-06
0.000139832
1.76655e-06
0.000139483
2.15607e-06
0.000139085
2.52789e-06
0.000138639
2.88404e-06
0.000138151
3.22655e-06
0.000137621
3.55738e-06
0.000137053
3.87849e-06
0.00013645
4.19178e-06
0.000135815
4.49906e-06
0.000135152
4.80205e-06
0.000134463
5.10233e-06
0.000133753
5.40129e-06
0.000133027
5.70007e-06
0.000132289
5.99949e-06
0.000131547
6.29998e-06
0.000130805
6.60151e-06
0.000130072
6.90345e-06
0.000129356
7.20455e-06
0.000128664
7.50282e-06
0.000128004
7.79553e-06
0.000127385
8.07924e-06
0.000126813
8.34984e-06
0.000126292
8.60277e-06
0.000125826
8.83332e-06
0.000125412
9.03697e-06
9.21034e-06
0.000125048
2.32451e-05
-3.92513e-06
2.40501e-05
-7.46624e-06
2.5201e-05
-1.03194e-05
2.66543e-05
-1.27431e-05
2.83831e-05
-1.48688e-05
3.03758e-05
-1.68068e-05
3.26401e-05
-1.86677e-05
3.52016e-05
-2.05468e-05
3.8097e-05
-2.25075e-05
4.13621e-05
-2.45682e-05
4.50185e-05
-2.66971e-05
4.90639e-05
-2.88196e-05
5.34686e-05
-3.08359e-05
5.81789e-05
-3.26433e-05
6.31252e-05
-3.41551e-05
6.82308e-05
-3.53114e-05
7.34195e-05
-3.60824e-05
7.86213e-05
-3.64652e-05
8.37751e-05
-3.6478e-05
8.88301e-05
-3.61536e-05
9.37455e-05
-3.5533e-05
9.84895e-05
-3.4661e-05
0.000103039
-3.35822e-05
0.000107377
-3.23391e-05
0.000111494
-3.09704e-05
0.000115383
-2.95105e-05
0.000119041
-2.79892e-05
0.00012247
-2.64317e-05
0.000125672
-2.48593e-05
0.000128652
-2.32892e-05
0.000131416
-2.17356e-05
0.000133971
-2.02096e-05
0.000136324
-1.87198e-05
0.000138483
-1.72728e-05
0.000140456
-1.58736e-05
0.000142251
-1.45255e-05
0.000143877
-1.32307e-05
0.000145342
-1.19906e-05
0.000146654
-1.08056e-05
0.00014782
-9.67566e-06
0.000148848
-8.60013e-06
0.000149745
-7.57803e-06
0.000150518
-6.60808e-06
0.000151173
-5.68876e-06
0.000151718
-4.81837e-06
0.000152158
-3.99507e-06
0.000152498
-3.21695e-06
0.000152746
-2.48199e-06
0.000152904
-1.78813e-06
0.00015298
-1.13326e-06
0.000152977
-5.1527e-07
0.0001529
6.79085e-08
0.000152753
6.18543e-07
0.000152541
1.13912e-06
0.000152267
1.63204e-06
0.000151935
2.09956e-06
0.000151547
2.54389e-06
0.000151108
2.96718e-06
0.000150621
3.37152e-06
0.000150089
3.75895e-06
0.000149515
4.13142e-06
0.000148903
4.49079e-06
0.000148256
4.83884e-06
0.000147578
5.17719e-06
0.000146873
5.5073e-06
0.000146144
5.83043e-06
0.000145398
6.14763e-06
0.000144638
6.45962e-06
0.00014387
6.76682e-06
0.000143101
7.06925e-06
0.000142335
7.3665e-06
0.000141581
7.65769e-06
0.000140843
7.94148e-06
0.00014013
8.21602e-06
0.000139445
8.47905e-06
0.000138796
8.72791e-06
0.000138186
8.95972e-06
0.000137616
9.17151e-06
0.000137088
9.36048e-06
0.0001366
9.52423e-06
9.66139e-06
0.000136149
2.48515e-05
-4.33478e-06
2.56886e-05
-8.30302e-06
2.68909e-05
-1.15214e-05
2.84165e-05
-1.42681e-05
3.0242e-05
-1.66937e-05
3.23645e-05
-1.89285e-05
3.48053e-05
-2.11076e-05
3.76079e-05
-2.33484e-05
4.08261e-05
-2.57246e-05
4.45062e-05
-2.82471e-05
4.86688e-05
-3.08584e-05
5.32979e-05
-3.34474e-05
5.83415e-05
-3.5878e-05
6.37202e-05
-3.80206e-05
6.93404e-05
-3.97737e-05
7.51057e-05
-4.10752e-05
8.0926e-05
-4.19011e-05
8.67223e-05
-4.22599e-05
9.24287e-05
-4.21828e-05
9.79926e-05
-4.17158e-05
0.000103373
-4.09122e-05
0.000108541
-3.98272e-05
0.000113475
-3.85145e-05
0.000118162
-3.70237e-05
0.000122592
-3.53994e-05
0.000126764
-3.36808e-05
0.000130678
-3.19011e-05
0.000134336
-3.00884e-05
0.000137745
-2.8266e-05
0.00014091
-2.64527e-05
0.00014384
-2.46637e-05
0.000146543
-2.29108e-05
0.000149028
-2.12032e-05
0.000151304
-1.95477e-05
0.000153381
-1.79493e-05
0.000155269
-1.64112e-05
0.000156975
-1.49358e-05
0.00015851
-1.35239e-05
0.000159882
-1.21758e-05
0.000161099
-1.08912e-05
0.000162169
-9.66919e-06
0.000163101
-8.50834e-06
0.000163901
-7.40709e-06
0.000164577
-6.36358e-06
0.000165136
-5.37579e-06
0.000165584
-4.44157e-06
0.000165927
-3.55869e-06
0.000166171
-2.72486e-06
0.000166321
-1.93774e-06
0.000166384
-1.195e-06
0.000166364
-4.94297e-07
0.000166266
1.66791e-07
0.000166094
7.90821e-07
0.000165854
1.38048e-06
0.000165548
1.93835e-06
0.000165181
2.46687e-06
0.000164758
2.96836e-06
0.00016428
3.44505e-06
0.000163753
3.89907e-06
0.00016318
4.33244e-06
0.000162564
4.74708e-06
0.000161911
5.14477e-06
0.000161223
5.52713e-06
0.000160504
5.8956e-06
0.00015976
6.25146e-06
0.000158995
6.59572e-06
0.000158213
6.92917e-06
0.00015742
7.25228e-06
0.000156621
7.56526e-06
0.000155822
7.86794e-06
0.000155028
8.15985e-06
0.000154246
8.44016e-06
0.000153479
8.70773e-06
0.000152733
8.96114e-06
0.000152013
9.19875e-06
0.000151321
9.4188e-06
0.000150661
9.61949e-06
0.000150033
9.79914e-06
0.000149436
9.95629e-06
0.00014887
1.00899e-05
1.01999e-05
0.000148331
2.65706e-05
-4.76209e-06
2.74441e-05
-9.17629e-06
2.87042e-05
-1.2781e-05
3.03111e-05
-1.58744e-05
3.22484e-05
-1.86303e-05
3.45269e-05
-2.12062e-05
3.7189e-05
-2.37687e-05
4.03029e-05
-2.64612e-05
4.39428e-05
-2.93633e-05
4.81616e-05
-3.24647e-05
5.29687e-05
-3.5664e-05
5.83216e-05
-3.87988e-05
6.41343e-05
-4.16892e-05
7.02943e-05
-4.41789e-05
7.66804e-05
-4.61582e-05
8.3177e-05
-4.757e-05
8.96818e-05
-4.84042e-05
9.61097e-05
-4.8686e-05
0.000102393
-4.84642e-05
0.00010848
-4.78009e-05
0.000114332
-4.6763e-05
0.000119924
-4.54173e-05
0.000125239
-4.38268e-05
0.000130265
-4.20485e-05
0.000135
-4.01327e-05
0.000139444
-3.81229e-05
0.000143601
-3.60557e-05
0.000147476
-3.39617e-05
0.000151078
-3.18659e-05
0.000154415
-2.97883e-05
0.000157498
-2.77449e-05
0.000160337
-2.57481e-05
0.000162943
-2.38072e-05
0.000165326
-2.19291e-05
0.000167497
-2.01187e-05
0.000169467
-1.83792e-05
0.000171245
-1.67124e-05
0.000172842
-1.5119e-05
0.000174267
-1.35989e-05
0.000175528
-1.21514e-05
0.000176636
-1.07751e-05
0.000177597
-9.46836e-06
0.000178421
-8.22915e-06
0.000179114
-7.05523e-06
0.000179684
-5.94423e-06
0.000180137
-4.89364e-06
0.000180481
-3.90091e-06
0.00018072
-2.96343e-06
0.000180862
-2.07861e-06
0.000180912
-1.24384e-06
0.000180876
-4.56552e-07
0.000180757
2.86011e-07
0.000180562
9.86705e-07
0.000180295
1.64842e-06
0.000179961
2.27391e-06
0.000179562
2.86572e-06
0.000179105
3.4263e-06
0.000178593
3.95792e-06
0.00017803
4.46274e-06
0.00017742
4.94278e-06
0.000176767
5.39991e-06
0.000176076
5.83583e-06
0.000175351
6.25204e-06
0.000174597
6.64989e-06
0.000173818
7.03048e-06
0.000173019
7.3947e-06
0.000172205
7.74321e-06
0.000171381
8.07639e-06
0.000170551
8.39439e-06
0.000169722
8.6971e-06
0.000168897
8.98414e-06
0.000168082
9.25496e-06
0.000167281
9.50878e-06
0.000166496
9.7447e-06
0.000165733
9.96177e-06
0.000164992
1.0159e-05
0.000164275
1.03355e-05
0.000163583
1.04906e-05
0.000162915
1.06237e-05
0.00016227
1.07347e-05
1.08242e-05
0.000161645
2.84099e-05
-5.21032e-06
2.93257e-05
-1.00918e-05
3.06518e-05
-1.41067e-05
3.2353e-05
-1.7575e-05
3.44247e-05
-2.07012e-05
3.68994e-05
-2.36799e-05
3.98504e-05
-2.67187e-05
4.33779e-05
-2.99874e-05
4.75754e-05
-3.35595e-05
5.24917e-05
-3.73796e-05
5.81078e-05
-4.12786e-05
6.43381e-05
-4.50275e-05
7.10513e-05
-4.84007e-05
7.80967e-05
-5.12226e-05
8.5326e-05
-5.33857e-05
9.26071e-05
-5.48493e-05
9.983e-05
-5.56251e-05
0.000106907
-5.57614e-05
0.000113774
-5.53283e-05
0.00012038
-5.44059e-05
0.000126695
-5.30759e-05
0.000132697
-5.14172e-05
0.000138375
-4.95019e-05
0.000143722
-4.73941e-05
0.000148741
-4.51496e-05
0.000153436
-4.28157e-05
0.000157814
-4.04318e-05
0.000161885
-3.80307e-05
0.00016566
-3.56386e-05
0.00016915
-3.32764e-05
0.000172368
-3.09606e-05
0.000175325
-2.87038e-05
0.000178035
-2.65153e-05
0.00018051
-2.44018e-05
0.000182761
-2.23679e-05
0.0001848
-2.04165e-05
0.000186638
-1.85488e-05
0.000188287
-1.67653e-05
0.000189755
-1.50653e-05
0.000191053
-1.34477e-05
0.00019219
-1.19106e-05
0.000193175
-1.04518e-05
0.000194016
-9.06895e-06
0.000194722
-7.75936e-06
0.000195299
-6.52024e-06
0.000195756
-5.34872e-06
0.000196098
-4.24187e-06
0.000196333
-3.19679e-06
0.000196466
-2.21057e-06
0.000196504
-1.28034e-06
0.000196452
-4.03289e-07
0.000196315
4.23667e-07
0.000196099
1.20367e-06
0.000195809
1.93981e-06
0.000195449
2.63497e-06
0.000195023
3.29182e-06
0.000194537
3.91289e-06
0.000193995
4.50052e-06
0.000193402
5.05689e-06
0.000192761
5.58402e-06
0.000192078
6.08375e-06
0.000191356
6.55773e-06
0.000190601
7.00743e-06
0.000189817
7.43412e-06
0.000189009
7.83885e-06
0.000188181
8.22248e-06
0.000187338
8.58565e-06
0.000186486
8.9288e-06
0.000185628
9.25216e-06
0.000184769
9.55579e-06
0.000183913
9.83958e-06
0.000183064
1.01033e-05
0.000182226
1.03467e-05
0.000181401
1.05693e-05
0.000180591
1.07707e-05
0.000179799
1.09508e-05
0.000179025
1.11093e-05
0.000178269
1.12461e-05
0.00017753
1.13614e-05
0.000176808
1.14557e-05
1.15299e-05
0.000176102
3.03777e-05
-5.68324e-06
3.13431e-05
-1.10569e-05
3.27466e-05
-1.55097e-05
3.45614e-05
-1.93891e-05
3.68019e-05
-2.29409e-05
3.95343e-05
-2.64113e-05
4.28747e-05
-3.00579e-05
4.69596e-05
-3.40711e-05
5.18928e-05
-3.84913e-05
5.76982e-05
-4.31834e-05
6.43047e-05
-4.78834e-05
7.15663e-05
-5.22873e-05
7.92987e-05
-5.61313e-05
8.73131e-05
-5.92351e-05
9.54387e-05
-6.15094e-05
0.000103533
-6.29414e-05
0.000111484
-6.35735e-05
0.000119206
-6.3482e-05
0.000126641
-6.27608e-05
0.000133746
-6.15093e-05
0.000140498
-5.98248e-05
0.00014688
-5.77976e-05
0.000152889
-5.55087e-05
0.000158526
-5.30287e-05
0.000163797
-5.04181e-05
0.000168711
-4.77275e-05
0.00017328
-4.49987e-05
0.000177517
-4.22657e-05
0.000181437
-3.95557e-05
0.000185053
-3.68902e-05
0.00018838
-3.42857e-05
0.000191433
-3.17545e-05
0.000194225
-2.93057e-05
0.000196771
-2.69457e-05
0.000199084
-2.46784e-05
0.000201175
-2.25062e-05
0.000203059
-2.04299e-05
0.000204744
-1.84493e-05
0.000206244
-1.65631e-05
0.000207568
-1.47696e-05
0.000208726
-1.30664e-05
0.000209726
-1.14508e-05
0.000210579
-9.91997e-06
0.000211292
-8.47068e-06
0.000211873
-7.09973e-06
0.00021233
-5.80384e-06
0.000212669
-4.57972e-06
0.000212898
-3.42409e-06
0.000213023
-2.33376e-06
0.000213049
-1.30557e-06
0.000212984
-3.36445e-07
0.000212832
5.76999e-07
0.000212598
1.43817e-06
0.000212289
2.25035e-06
0.000211908
3.01654e-06
0.000211461
3.73953e-06
0.000210953
4.42192e-06
0.000210388
5.06613e-06
0.000209771
5.67439e-06
0.000209107
6.24872e-06
0.0002084
6.79099e-06
0.000207656
7.30284e-06
0.000206878
7.78576e-06
0.000206071
8.24102e-06
0.00020524
8.66972e-06
0.00020439
9.07276e-06