/*--------------------------------*- C++ -*----------------------------------*\
  =========                 |
  \\      /  F ield         | OpenFOAM: The Open Source CFD Toolbox
   \\    /   O peration     | Website:  https://openfoam.org
    \\  /    A nd           | Version:  7
     \\/     M anipulation  |
\*---------------------------------------------------------------------------*/
FoamFile
{
    version     2.0;
    format      ascii;
    class       volVectorField;
    location    "0.7";
    object      U;
}
// * * * * * * * * * * * * * * * * * * * * * * * * * * * * * * * * * * * * * //

dimensions      [0 1 -1 0 0 0 0];

internalField   nonuniform List<vector> 
12013
(
(0.0999982 8.56671e-07 0)
(0.0999833 2.6794e-06 0)
(0.0999431 5.68197e-06 0)
(0.0998676 9.53924e-06 0)
(0.0997527 1.35111e-05 0)
(0.099603 1.68088e-05 0)
(0.0994297 1.89627e-05 0)
(0.0992456 1.9952e-05 0)
(0.0990609 2.00858e-05 0)
(0.0988816 1.97847e-05 0)
(0.0987095 1.94065e-05 0)
(0.0985437 1.9168e-05 0)
(0.0983823 1.91507e-05 0)
(0.0982234 1.93468e-05 0)
(0.0980653 1.97065e-05 0)
(0.0979069 2.01734e-05 0)
(0.0977477 2.07024e-05 0)
(0.0975875 2.12636e-05 0)
(0.0974262 2.18413e-05 0)
(0.0972639 2.24299e-05 0)
(0.0971005 2.30299e-05 0)
(0.0969361 2.36455e-05 0)
(0.0967707 2.42807e-05 0)
(0.0966042 2.49418e-05 0)
(0.0964365 2.56331e-05 0)
(0.0962676 2.63599e-05 0)
(0.0960972 2.71261e-05 0)
(0.0959254 2.79365e-05 0)
(0.0957519 2.87936e-05 0)
(0.0955765 2.97015e-05 0)
(0.0953991 3.06629e-05 0)
(0.0952196 3.16809e-05 0)
(0.0950378 3.27579e-05 0)
(0.0948534 3.38968e-05 0)
(0.0946664 3.51002e-05 0)
(0.0944765 3.63718e-05 0)
(0.0942836 3.77138e-05 0)
(0.0940875 3.9131e-05 0)
(0.093888 4.06272e-05 0)
(0.093685 4.22082e-05 0)
(0.0934781 4.38795e-05 0)
(0.0932674 4.56489e-05 0)
(0.0930524 4.75244e-05 0)
(0.0928329 4.95163e-05 0)
(0.0926088 5.16363e-05 0)
(0.0923796 5.38978e-05 0)
(0.092145 5.63172e-05 0)
(0.0919046 5.89134e-05 0)
(0.0916581 6.17078e-05 0)
(0.0914048 6.47264e-05 0)
(0.0911443 6.79993e-05 0)
(0.0908758 7.15618e-05 0)
(0.0905986 7.54561e-05 0)
(0.090312 7.97312e-05 0)
(0.0900148 8.44466e-05 0)
(0.0897059 8.96728e-05 0)
(0.0893841 9.54945e-05 0)
(0.0890478 0.000102015 0)
(0.0886951 0.000109358 0)
(0.088324 0.000117679 0)
(0.0879319 0.000127166 0)
(0.0875159 0.000138057 0)
(0.0870723 0.00015065 0)
(0.0865967 0.000165326 0)
(0.086084 0.000182575 0)
(0.0855275 0.000203036 0)
(0.0849192 0.000227556 0)
(0.0842488 0.000257271 0)
(0.0835032 0.000293734 0)
(0.0826658 0.000339101 0)
(0.0817142 0.000396428 0)
(0.0806188 0.000470125 0)
(0.0793394 0.000566694 0)
(0.07782 0.000695913 0)
(0.0759815 0.00087282 0)
(0.0737105 0.001121 0)
(0.0708404 0.00147825 0)
(0.0671108 0.00200819 0)
(0.0621224 0.00283758 0)
(0.0554199 0.0043196 0)
(0.0479611 0.00804785 0)
(0.0999985 2.6033e-06 0)
(0.0999839 8.18533e-06 0)
(0.0999443 1.7385e-05 0)
(0.0998696 2.92106e-05 0)
(0.0997556 4.13993e-05 0)
(0.0996068 5.15276e-05 0)
(0.0994343 5.81525e-05 0)
(0.0992507 6.12064e-05 0)
(0.0990665 6.16324e-05 0)
(0.0988874 6.07201e-05 0)
(0.0987154 5.9566e-05 0)
(0.0985497 5.88365e-05 0)
(0.0983884 5.87831e-05 0)
(0.0982295 5.9382e-05 0)
(0.0980715 6.04819e-05 0)
(0.0979133 6.19113e-05 0)
(0.0977543 6.3531e-05 0)
(0.0975943 6.52502e-05 0)
(0.0974333 6.70205e-05 0)
(0.0972712 6.88251e-05 0)
(0.0971081 7.06657e-05 0)
(0.096944 7.25533e-05 0)
(0.0967789 7.45025e-05 0)
(0.0966127 7.65305e-05 0)
(0.0964453 7.86522e-05 0)
(0.0962766 8.08825e-05 0)
(0.0961066 8.32342e-05 0)
(0.095935 8.57202e-05 0)
(0.0957618 8.83509e-05 0)
(0.0955867 9.11366e-05 0)
(0.0954097 9.40868e-05 0)
(0.0952305 9.72102e-05 0)
(0.0950489 0.000100514 0)
(0.0948648 0.000104008 0)
(0.0946781 0.0001077 0)
(0.0944886 0.0001116 0)
(0.094296 0.000115717 0)
(0.0941002 0.000120064 0)
(0.0939011 0.000124653 0)
(0.0936985 0.000129501 0)
(0.093492 0.000134626 0)
(0.0932817 0.000140051 0)
(0.0930671 0.000145801 0)
(0.0928482 0.000151908 0)
(0.0926245 0.000158406 0)
(0.0923959 0.000165338 0)
(0.0921618 0.000172753 0)
(0.0919221 0.000180708 0)
(0.0916762 0.000189269 0)
(0.0914237 0.000198516 0)
(0.091164 0.000208539 0)
(0.0908964 0.000219448 0)
(0.0906202 0.000231368 0)
(0.0903347 0.000244452 0)
(0.0900388 0.000258879 0)
(0.0897314 0.000274863 0)
(0.0894112 0.000292661 0)
(0.0890767 0.000312585 0)
(0.0887263 0.000335015 0)
(0.0883577 0.000360413 0)
(0.0879687 0.000389353 0)
(0.0875563 0.000422548 0)
(0.0871171 0.000460897 0)
(0.086647 0.000505539 0)
(0.0861409 0.000557937 0)
(0.0855928 0.000619996 0)
(0.0849952 0.000694221 0)
(0.0843387 0.000783963 0)
(0.0836116 0.000893762 0)
(0.0827988 0.00102988 0)
(0.0818812 0.00120109 0)
(0.0808337 0.00141989 0)
(0.0796233 0.0017044 0)
(0.0782066 0.00208126 0)
(0.0765255 0.00259017 0)
(0.074504 0.00329069 0)
(0.0720439 0.00427159 0)
(0.0690183 0.00566268 0)
(0.06529 0.00764861 0)
(0.0609195 0.0104287 0)
(0.0570542 0.0138222 0)
(0.0999986 4.38964e-06 0)
(0.0999845 1.39414e-05 0)
(0.099946 2.96856e-05 0)
(0.0998729 4.99625e-05 0)
(0.099761 7.09049e-05 0)
(0.0996144 8.8352e-05 0)
(0.0994438 9.98126e-05 0)
(0.0992619 0.000105149 0)
(0.0990786 0.000105961 0)
(0.0989001 0.000104452 0)
(0.0987284 0.000102503 0)
(0.0985628 0.000101262 0)
(0.0984016 0.000101167 0)
(0.0982429 0.000102184 0)
(0.0980851 0.000104058 0)
(0.0979272 0.000106499 0)
(0.0977686 0.000109268 0)
(0.0976091 0.000112212 0)
(0.0974486 0.000115247 0)
(0.0972871 0.000118344 0)
(0.0971246 0.000121504 0)
(0.0969611 0.000124747 0)
(0.0967966 0.000128099 0)
(0.096631 0.000131586 0)
(0.0964642 0.000135235 0)
(0.0962962 0.000139072 0)
(0.0961268 0.000143118 0)
(0.0959559 0.000147394 0)
(0.0957832 0.000151919 0)
(0.0956088 0.000156711 0)
(0.0954323 0.000161785 0)
(0.0952537 0.000167155 0)
(0.0950728 0.000172837 0)
(0.0948894 0.000178843 0)
(0.0947033 0.00018519 0)
(0.0945144 0.000191892 0)
(0.0943226 0.000198968 0)
(0.0941275 0.000206436 0)
(0.0939292 0.00021432 0)
(0.0937273 0.000222647 0)
(0.0935217 0.000231449 0)
(0.0933122 0.000240764 0)
(0.0930985 0.000250637 0)
(0.0928805 0.000261119 0)
(0.0926579 0.000272271 0)
(0.0924303 0.000284165 0)
(0.0921974 0.000296883 0)
(0.091959 0.000310525 0)
(0.0917144 0.000325202 0)
(0.0914634 0.000341048 0)
(0.0912052 0.000358219 0)
(0.0909394 0.000376897 0)
(0.0906652 0.000397299 0)
(0.0903818 0.000419679 0)
(0.0900883 0.000444341 0)
(0.0897836 0.000471645 0)
(0.0894666 0.000502025 0)
(0.0891357 0.000536002 0)
(0.0887893 0.000574211 0)
(0.0884256 0.000617425 0)
(0.0880422 0.000666597 0)
(0.0876366 0.000722909 0)
(0.0872055 0.000787838 0)
(0.0867452 0.000863253 0)
(0.0862513 0.000951536 0)
(0.0857184 0.00105576 0)
(0.08514 0.00117993 0)
(0.0845082 0.00132935 0)
(0.0838133 0.0015111 0)
(0.0830435 0.00173478 0)
(0.0821841 0.00201354 0)
(0.0812172 0.00236567 0)
(0.080121 0.00281673 0)
(0.0788695 0.0034027 0)
(0.0774332 0.00417405 0)
(0.0757822 0.00520032 0)
(0.0738938 0.00657293 0)
(0.0717674 0.00839998 0)
(0.0694632 0.0107797 0)
(0.0672174 0.0136878 0)
(0.0656454 0.0165491 0)
(0.0999987 6.19679e-06 0)
(0.0999853 1.98864e-05 0)
(0.0999483 4.24541e-05 0)
(0.0998778 7.1603e-05 0)
(0.0997692 0.000101806 0)
(0.0996262 0.000127082 0)
(0.099459 0.00014381 0)
(0.0992796 0.000151737 0)
(0.0990981 0.000153119 0)
(0.0989206 0.000151098 0)
(0.0987493 0.000148378 0)
(0.098584 0.000146621 0)
(0.0984229 0.000146478 0)
(0.0982644 0.000147916 0)
(0.098107 0.000150583 0)
(0.0979496 0.000154067 0)
(0.0977917 0.000158032 0)
(0.097633 0.000162257 0)
(0.0974734 0.000166622 0)
(0.0973128 0.000171083 0)
(0.0971513 0.000175642 0)
(0.0969888 0.000180326 0)
(0.0968252 0.00018517 0)
(0.0966606 0.000190212 0)
(0.0964949 0.000195491 0)
(0.0963279 0.000201042 0)
(0.0961595 0.000206896 0)
(0.0959895 0.000213083 0)
(0.0958179 0.00021963 0)
(0.0956444 0.000226561 0)
(0.095469 0.000233898 0)
(0.0952914 0.000241663 0)
(0.0951114 0.000249877 0)
(0.0949291 0.000258559 0)
(0.094744 0.000267729 0)
(0.0945562 0.000277412 0)
(0.0943655 0.000287631 0)
(0.0941716 0.000298414 0)
(0.0939744 0.000309796 0)
(0.0937738 0.000321815 0)
(0.0935695 0.000334517 0)
(0.0933613 0.000347955 0)
(0.0931491 0.000362194 0)
(0.0929327 0.000377306 0)
(0.0927116 0.000393381 0)
(0.0924858 0.000410518 0)
(0.0922548 0.000428837 0)
(0.0920183 0.000448476 0)
(0.0917759 0.000469597 0)
(0.0915272 0.000492388 0)
(0.0912716 0.00051707 0)
(0.0910085 0.000543901 0)
(0.0907374 0.000573186 0)
(0.0904574 0.000605285 0)
(0.0901677 0.000640623 0)
(0.0898673 0.000679705 0)
(0.0895551 0.000723137 0)
(0.0892297 0.000771647 0)
(0.0888897 0.000826114 0)
(0.0885334 0.000887605 0)
(0.0881588 0.00095743 0)
(0.0877634 0.0010372 0)
(0.0873447 0.00112892 0)
(0.0868993 0.00123511 0)
(0.0864237 0.00135893 0)
(0.0859135 0.00150442 0)
(0.0853635 0.0016768 0)
(0.0847678 0.00188281 0)
(0.0841195 0.00213134 0)
(0.0834107 0.00243407 0)
(0.0826323 0.00280663 0)
(0.0817747 0.00326985 0)
(0.0808282 0.00385158 0)
(0.0797847 0.00458869 0)
(0.0786406 0.00552884 0)
(0.077403 0.00673063 0)
(0.0760989 0.00825825 0)
(0.0747906 0.0101633 0)
(0.0735952 0.0124399 0)
(0.0727069 0.0149222 0)
(0.0723584 0.0170685 0)
(0.0999988 8.01665e-06 0)
(0.0999862 2.59406e-05 0)
(0.0999512 5.55181e-05 0)
(0.0998842 9.38664e-05 0)
(0.0997803 0.000133788 0)
(0.0996425 0.000167417 0)
(0.0994801 0.000189922 0)
(0.0993045 0.000200862 0)
(0.0991256 0.000203113 0)
(0.0989495 0.000200757 0)
(0.098779 0.000197346 0)
(0.098614 0.000195094 0)
(0.0984532 0.000194895 0)
(0.098295 0.000196742 0)
(0.0981381 0.000200197 0)
(0.0979815 0.000204737 0)
(0.0978245 0.000209925 0)
(0.097667 0.000215474 0)
(0.0975086 0.000221224 0)
(0.0973493 0.000227117 0)
(0.0971892 0.000233152 0)
(0.0970281 0.00023936 0)
(0.096866 0.000245789 0)
(0.0967029 0.000252487 0)
(0.0965385 0.000259502 0)
(0.0963729 0.000266879 0)
(0.0962059 0.000274661 0)
(0.0960374 0.000282885 0)
(0.0958672 0.000291586 0)
(0.0956951 0.000300795 0)
(0.0955211 0.000310541 0)
(0.0953449 0.000320854 0)
(0.0951665 0.000331757 0)
(0.0949855 0.000343279 0)
(0.094802 0.000355445 0)
(0.0946158 0.000368286 0)
(0.0944266 0.000381835 0)
(0.0942343 0.000396128 0)
(0.0940389 0.000411208 0)
(0.09384 0.000427128 0)
(0.0936376 0.000443946 0)
(0.0934314 0.000461734 0)
(0.0932213 0.000480573 0)
(0.093007 0.000500561 0)
(0.0927883 0.000521811 0)
(0.0925649 0.000544456 0)
(0.0923366 0.000568649 0)
(0.0921029 0.00059457 0)
(0.0918636 0.000622428 0)
(0.0916181 0.000652467 0)
(0.0913662 0.000684972 0)
(0.0911071 0.000720275 0)
(0.0908403 0.000758768 0)
(0.0905651 0.000800909 0)
(0.0902808 0.000847243 0)
(0.0899864 0.000898411 0)
(0.0896811 0.000955181 0)
(0.0893635 0.00101847 0)
(0.0890325 0.00108937 0)
(0.0886866 0.00116922 0)
(0.088324 0.00125964 0)
(0.0879429 0.0013626 0)
(0.0875412 0.00148053 0)
(0.0871163 0.00161645 0)
(0.0866655 0.00177412 0)
(0.0861856 0.00195824 0)
(0.0856733 0.00217476 0)
(0.0851248 0.00243127 0)
(0.0845364 0.00273741 0)
(0.0839041 0.00310555 0)
(0.0832249 0.00355155 0)
(0.0824968 0.00409563 0)
(0.0817208 0.00476324 0)
(0.0809026 0.00558567 0)
(0.0800565 0.00659944 0)
(0.0792101 0.0078431 0)
(0.0784109 0.00934814 0)
(0.0777325 0.0111191 0)
(0.0772763 0.0130964 0)
(0.0771557 0.0150968 0)
(0.0774287 0.0167441 0)
(0.0999989 9.83219e-06 0)
(0.0999872 3.20064e-05 0)
(0.0999547 6.86648e-05 0)
(0.0998921 0.000116423 0)
(0.0997942 0.000166447 0)
(0.0996631 0.000208961 0)
(0.0995069 0.000237835 0)
(0.0993364 0.000252341 0)
(0.099161 0.000255893 0)
(0.098987 0.000253489 0)
(0.0988176 0.00024954 0)
(0.0986531 0.000246846 0)
(0.0984927 0.000246585 0)
(0.0983351 0.000248812 0)
(0.098179 0.000253029 0)
(0.0980234 0.00025861 0)
(0.0978677 0.000265028 0)
(0.0977116 0.000271926 0)
(0.0975549 0.000279105 0)
(0.0973974 0.000286488 0)
(0.0972391 0.000294071 0)
(0.0970799 0.000301889 0)
(0.0969197 0.000309995 0)
(0.0967584 0.00031845 0)
(0.096596 0.000327311 0)
(0.0964323 0.000336633 0)
(0.0962672 0.000346467 0)
(0.0961006 0.000356859 0)
(0.0959322 0.00036785 0)
(0.095762 0.000379481 0)
(0.0955899 0.000391785 0)
(0.0954156 0.000404799 0)
(0.0952391 0.000418552 0)
(0.0950601 0.000433079 0)
(0.0948786 0.000448413 0)
(0.0946944 0.00046459 0)
(0.0945073 0.00048165 0)
(0.0943173 0.00049964 0)
(0.0941241 0.000518614 0)
(0.0939277 0.000538634 0)
(0.0937277 0.000559774 0)
(0.0935242 0.000582122 0)
(0.0933168 0.000605779 0)
(0.0931055 0.000630865 0)
(0.0928899 0.000657519 0)
(0.0926698 0.000685904 0)
(0.092445 0.000716208 0)
(0.0922151 0.000748651 0)
(0.0919799 0.000783488 0)
(0.0917389 0.000821015 0)
(0.0914917 0.000861577 0)
(0.0912379 0.000905578 0)
(0.0909769 0.000953489 0)
(0.0907082 0.00100586 0)
(0.090431 0.00106334 0)
(0.0901447 0.0011267 0)
(0.0898484 0.00119683 0)
(0.0895411 0.00127483 0)
(0.0892219 0.00136196 0)
(0.0888895 0.00145977 0)
(0.0885427 0.00157012 0)
(0.0881802 0.00169524 0)
(0.0878002 0.00183785 0)
(0.0874014 0.00200128 0)
(0.0869818 0.00218959 0)
(0.0865398 0.0024078 0)
(0.0860736 0.00266207 0)
(0.085582 0.00296005 0)
(0.0850641 0.00331117 0)
(0.0845198 0.00372705 0)
(0.083951 0.00422188 0)
(0.0833618 0.0048128 0)
(0.0827607 0.00551985 0)
(0.0821617 0.0063655 0)
(0.0815877 0.00737265 0)
(0.0810726 0.00856027 0)
(0.0806642 0.00993478 0)
(0.0804236 0.0114751 0)
(0.0804185 0.0131106 0)
(0.0807021 0.0146953 0)
(0.0812675 0.0159963 0)
(0.099999 1.16191e-05 0)
(0.0999883 3.79765e-05 0)
(0.0999587 8.1657e-05 0)
(0.0999013 0.000138895 0)
(0.0998105 0.000199316 0)
(0.0996875 0.000251241 0)
(0.099539 0.000287156 0)
(0.0993747 0.000305913 0)
(0.0992038 0.00031135 0)
(0.0990326 0.00030931 0)
(0.0988648 0.000305057 0)
(0.0987012 0.000302014 0)
(0.0985415 0.000301694 0)
(0.0983847 0.000304259 0)
(0.0982296 0.000309185 0)
(0.0980754 0.000315768 0)
(0.0979214 0.000323396 0)
(0.0977672 0.000331649 0)
(0.0976125 0.000340286 0)
(0.0974573 0.000349209 0)
(0.0973012 0.000358406 0)
(0.0971444 0.000367913 0)
(0.0969866 0.000377791 0)
(0.0968277 0.000388106 0)
(0.0966677 0.000398926 0)
(0.0965063 0.000410314 0)
(0.0963436 0.000422327 0)
(0.0961793 0.000435021 0)
(0.0960133 0.000448443 0)
(0.0958455 0.000462641 0)
(0.0956757 0.000477654 0)
(0.0955039 0.000493523 0)
(0.0953298 0.000510286 0)
(0.0951533 0.000527982 0)
(0.0949744 0.000546649 0)
(0.0947928 0.000566332 0)
(0.0946084 0.000587079 0)
(0.0944212 0.000608943 0)
(0.0942309 0.00063199 0)
(0.0940375 0.000656294 0)
(0.0938408 0.000681943 0)
(0.0936406 0.000709039 0)
(0.0934368 0.000737705 0)
(0.0932291 0.00076808 0)
(0.0930175 0.000800328 0)
(0.0928017 0.000834641 0)
(0.0925814 0.00087124 0)
(0.0923564 0.000910382 0)
(0.0921264 0.000952364 0)
(0.091891 0.00099753 0)
(0.09165 0.00104628 0)
(0.091403 0.00109908 0)
(0.0911494 0.00115647 0)
(0.0908888 0.00121907 0)
(0.0906208 0.00128764 0)
(0.0903446 0.00136302 0)
(0.0900597 0.00144624 0)
(0.0897654 0.00153848 0)
(0.0894609 0.00164117 0)
(0.0891454 0.00175597 0)
(0.0888182 0.00188488 0)
(0.0884783 0.00203028 0)
(0.088125 0.002195 0)
(0.0877574 0.00238246 0)
(0.087375 0.00259672 0)
(0.0869773 0.0028427 0)
(0.0865644 0.00312626 0)
(0.0861368 0.00345442 0)
(0.0856964 0.0038355 0)
(0.0852461 0.0042793 0)
(0.0847912 0.00479711 0)
(0.0843398 0.00540162 0)
(0.083904 0.00610638 0)
(0.0835012 0.00692473 0)
(0.0831555 0.00786751 0)
(0.0828982 0.0089392 0)
(0.0827679 0.0101317 0)
(0.0828071 0.0114153 0)
(0.0830547 0.0127285 0)
(0.0835299 0.0139699 0)
(0.0842086 0.0150026 0)
(0.099999 1.33536e-05 0)
(0.0999894 4.3744e-05 0)
(0.099963 9.4255e-05 0)
(0.0999113 0.000160894 0)
(0.0998286 0.000231896 0)
(0.0997147 0.000293731 0)
(0.0995751 0.000337425 0)
(0.0994183 0.000361247 0)
(0.0992528 0.000369297 0)
(0.0990853 0.000368163 0)
(0.0989196 0.000363936 0)
(0.0987574 0.000360689 0)
(0.0985988 0.000360327 0)
(0.0984431 0.000363179 0)
(0.0982895 0.000368741 0)
(0.098137 0.00037626 0)
(0.097985 0.000385056 0)
(0.0978332 0.000394648 0)
(0.097681 0.000404757 0)
(0.0975284 0.000415257 0)
(0.0973752 0.000426128 0)
(0.0972211 0.000437402 0)
(0.0970662 0.000449143 0)
(0.0969102 0.000461423 0)
(0.096753 0.000474315 0)
(0.0965946 0.00048789 0)
(0.0964347 0.000502214 0)
(0.0962732 0.000517346 0)
(0.0961101 0.000533341 0)
(0.0959452 0.00055025 0)
(0.0957783 0.000568121 0)
(0.0956094 0.000586998 0)
(0.0954383 0.000606926 0)
(0.0952649 0.000627946 0)
(0.095089 0.000650106 0)
(0.0949106 0.000673455 0)
(0.0947296 0.000698047 0)
(0.0945458 0.000723947 0)
(0.0943591 0.000751227 0)
(0.0941695 0.000779975 0)
(0.0939767 0.00081029 0)
(0.0937806 0.000842291 0)
(0.0935812 0.000876116 0)
(0.0933782 0.000911925 0)
(0.0931714 0.000949906 0)
(0.0929608 0.000990275 0)
(0.0927461 0.00103328 0)
(0.0925271 0.00107922 0)
(0.0923036 0.00112841 0)
(0.0920752 0.00118125 0)
(0.0918418 0.00123819 0)
(0.0916031 0.00129972 0)
(0.0913586 0.00136646 0)
(0.0911081 0.00143909 0)
(0.0908511 0.0015184 0)
(0.0905874 0.00160533 0)
(0.0903164 0.00170096 0)
(0.0900377 0.00180655 0)
(0.0897509 0.00192358 0)
(0.0894557 0.00205377 0)
(0.0891517 0.00219914 0)
(0.0888385 0.00236205 0)
(0.088516 0.00254529 0)
(0.0881844 0.00275211 0)
(0.087844 0.00298631 0)
(0.0874956 0.0032523 0)
(0.0871405 0.00355521 0)
(0.0867812 0.0039009 0)
(0.086421 0.00429602 0)
(0.0860651 0.0047479 0)
(0.0857204 0.00526443 0)
(0.0853968 0.00585365 0)
(0.0851072 0.00652304 0)
(0.0848685 0.00727836 0)
(0.0847015 0.00812176 0)
(0.0846311 0.00904906 0)
(0.0846845 0.0100461 0)
(0.084888 0.0110843 0)
(0.085261 0.0121169 0)
(0.0858068 0.0130781 0)
(0.0865022 0.0138897 0)
(0.0999991 1.50169e-05 0)
(0.0999906 4.92173e-05 0)
(0.0999674 0.000106244 0)
(0.0999217 0.000182056 0)
(0.0998474 0.000263705 0)
(0.0997435 0.000335903 0)
(0.0996137 0.000388148 0)
(0.0994653 0.000417949 0)
(0.0993062 0.000429473 0)
(0.0991432 0.000429912 0)
(0.0989804 0.000426136 0)
(0.0988203 0.00042289 0)
(0.0986633 0.000422531 0)
(0.0985093 0.00042562 0)
(0.0983575 0.000431732 0)
(0.0982072 0.000440102 0)
(0.0980577 0.000450002 0)
(0.0979086 0.000460901 0)
(0.0977594 0.000472479 0)
(0.0976099 0.000484585 0)
(0.0974598 0.00049718 0)
(0.0973091 0.000510293 0)
(0.0971574 0.000523986 0)
(0.0970048 0.000538333 0)
(0.0968509 0.000553411 0)
(0.0966958 0.000569297 0)
(0.0965393 0.00058606 0)
(0.0963812 0.000603765 0)
(0.0962214 0.000622472 0)
(0.0960599 0.000642236 0)
(0.0958964 0.000663109 0)
(0.0957309 0.00068514 0)
(0.0955633 0.000708377 0)
(0.0953935 0.000732869 0)
(0.0952214 0.000758665 0)
(0.0950468 0.000785821 0)
(0.0948698 0.000814399 0)
(0.0946901 0.00084447 0)
(0.0945077 0.000876117 0)
(0.0943225 0.000909434 0)
(0.0941344 0.000944536 0)
(0.0939433 0.000981552 0)
(0.0937491 0.00102064 0)
(0.0935516 0.00106197 0)
(0.0933508 0.00110575 0)
(0.0931464 0.00115222 0)
(0.0929384 0.00120166 0)
(0.0927266 0.00125438 0)
(0.0925108 0.00131073 0)
(0.0922909 0.00137114 0)
(0.0920666 0.00143608 0)
(0.0918377 0.00150611 0)
(0.0916041 0.00158184 0)
(0.0913655 0.001664 0)
(0.0911218 0.00175343 0)
(0.0908726 0.00185107 0)
(0.090618 0.00195804 0)
(0.0903576 0.00207558 0)
(0.0900915 0.00220518 0)
(0.0898196 0.00234849 0)
(0.0895419 0.00250746 0)
(0.0892589 0.0026843 0)
(0.088971 0.00288155 0)
(0.0886789 0.0031021 0)
(0.0883838 0.0033492 0)
(0.0880876 0.00362654 0)
(0.0877927 0.00393817 0)
(0.0875023 0.00428852 0)
(0.087221 0.00468226 0)
(0.0869547 0.0051242 0)
(0.086711 0.00561894 0)
(0.0864995 0.00617045 0)
(0.0863319 0.00678142 0)
(0.0862225 0.00745231 0)
(0.0861873 0.00818008 0)
(0.0862439 0.00895659 0)
(0.0864096 0.00976684 0)
(0.086699 0.0105873 0)
(0.0871202 0.0113849 0)
(0.0876705 0.0121188 0)
(0.0883316 0.0127442 0)
(0.0999991 1.65983e-05 0)
(0.0999917 5.43339e-05 0)
(0.0999716 0.000117466 0)
(0.0999318 0.000202096 0)
(0.0998661 0.000294336 0)
(0.0997722 0.000377274 0)
(0.0996527 0.000438838 0)
(0.0995135 0.000475589 0)
(0.0993618 0.000491541 0)
(0.0992041 0.000494327 0)
(0.0990452 0.000491519 0)
(0.0988879 0.000488546 0)
(0.0987333 0.000488273 0)
(0.0985815 0.000491568 0)
(0.098432 0.000498144 0)
(0.0982843 0.000507269 0)
(0.0981377 0.000518197 0)
(0.0979918 0.000530356 0)
(0.0978459 0.00054339 0)
(0.0976999 0.000557118 0)
(0.0975535 0.000571482 0)
(0.0974064 0.0005865 0)
(0.0972585 0.000602229 0)
(0.0971096 0.000618742 0)
(0.0969595 0.000636118 0)
(0.0968082 0.000654434 0)
(0.0966554 0.000673763 0)
(0.0965011 0.000694172 0)
(0.0963452 0.000715724 0)
(0.0961875 0.000738478 0)
(0.096028 0.000762489 0)
(0.0958665 0.000787808 0)
(0.095703 0.000814486 0)
(0.0955373 0.000842576 0)
(0.0953695 0.000872132 0)
(0.0951994 0.000903214 0)
(0.0950269 0.00093589 0)
(0.094852 0.000970236 0)
(0.0946746 0.00100634 0)
(0.0944947 0.00104431 0)
(0.0943121 0.00108427 0)
(0.0941268 0.00112636 0)
(0.0939387 0.00117074 0)
(0.0937477 0.0012176 0)
(0.0935537 0.00126717 0)
(0.0933567 0.0013197 0)
(0.0931565 0.00137548 0)
(0.0929531 0.00143483 0)
(0.0927464 0.00149815 0)
(0.0925362 0.00156585 0)
(0.0923225 0.00163844 0)
(0.0921052 0.00171647 0)
(0.0918842 0.00180058 0)
(0.0916594 0.00189151 0)
(0.0914309 0.00199007 0)
(0.0911986 0.0020972 0)
(0.0909625 0.00221397 0)
(0.0907229 0.00234158 0)
(0.0904799 0.00248141 0)
(0.090234 0.00263498 0)
(0.0899855 0.00280404 0)
(0.0897353 0.00299052 0)
(0.0894843 0.00319657 0)
(0.089234 0.00342455 0)
(0.088986 0.00367704 0)
(0.0887429 0.00395678 0)
(0.0885075 0.00426666 0)
(0.0882837 0.00460957 0)
(0.0880763 0.00498831 0)
(0.0878912 0.00540539 0)
(0.0877354 0.00586268 0)
(0.0876172 0.00636111 0)
(0.0875464 0.0069001 0)
(0.0875336 0.007477 0)
(0.0875901 0.00808632 0)
(0.0877272 0.00871902 0)
(0.0879548 0.00936183 0)
(0.0882801 0.00999685 0)
(0.0887053 0.0106019 0)
(0.0892258 0.0111516 0)
(0.0898282 0.0116206 0)
(0.0999992 1.80988e-05 0)
(0.0999926 5.90716e-05 0)
(0.0999754 0.00012784 0)
(0.099941 0.000220838 0)
(0.0998834 0.000323503 0)
(0.0997996 0.000417464 0)
(0.0996905 0.000489059 0)
(0.0995608 0.00053373 0)
(0.0994172 0.000555109 0)
(0.0992658 0.000561086 0)
(0.0991116 0.000559842 0)
(0.098958 0.00055748 0)
(0.0988064 0.000557429 0)
(0.0986575 0.000560929 0)
(0.098511 0.0005679 0)
(0.0983664 0.000577693 0)
(0.0982232 0.00058957 0)
(0.0980808 0.000602937 0)
(0.0979387 0.000617406 0)
(0.0977966 0.000632765 0)
(0.0976541 0.000648936 0)
(0.097511 0.00066592 0)
(0.0973672 0.000683764 0)
(0.0972224 0.000702537 0)
(0.0970765 0.000722315 0)
(0.0969293 0.000743174 0)
(0.0967807 0.000765188 0)
(0.0966307 0.000788423 0)
(0.096479 0.000812945 0)
(0.0963256 0.000838812 0)
(0.0961705 0.00086608 0)
(0.0960135 0.000894803 0)
(0.0958546 0.000925033 0)
(0.0956937 0.000956826 0)
(0.0955307 0.000990237 0)
(0.0953656 0.00102533 0)
(0.0951984 0.00106218 0)
(0.095029 0.00110086 0)
(0.0948573 0.00114148 0)
(0.0946834 0.00118413 0)
(0.0945071 0.00122895 0)
(0.0943284 0.00127609 0)
(0.0941473 0.00132573 0)
(0.0939637 0.00137805 0)
(0.0937776 0.00143329 0)
(0.093589 0.0014917 0)
(0.0933978 0.00155359 0)
(0.0932041 0.0016193 0)
(0.0930077 0.0016892 0)
(0.0928087 0.00176373 0)
(0.092607 0.00184338 0)
(0.0924028 0.00192869 0)
(0.0921961 0.00202029 0)
(0.0919869 0.00211889 0)
(0.0917754 0.00222524 0)
(0.0915618 0.00234025 0)
(0.0913464 0.00246487 0)
(0.0911296 0.00260019 0)
(0.0909119 0.00274742 0)
(0.0906939 0.00290788 0)
(0.0904765 0.003083 0)
(0.0902607 0.00327435 0)
(0.090048 0.00348359 0)
(0.0898401 0.00371248 0)
(0.0896391 0.00396282 0)
(0.0894477 0.0042364 0)
(0.0892689 0.00453494 0)
(0.0891068 0.00485997 0)
(0.0889656 0.00521267 0)
(0.0888507 0.00559373 0)
(0.0887681 0.00600306 0)
(0.0887243 0.00643957 0)
(0.0887265 0.00690084 0)
(0.0887822 0.00738277 0)
(0.0888985 0.00787929 0)
(0.0890821 0.00838206 0)
(0.089338 0.0088804 0)
(0.0896689 0.00936136 0)
(0.0900742 0.00981027 0)
(0.0905493 0.0102117 0)
(0.0910846 0.0105508 0)
(0.0999992 1.95318e-05 0)
(0.0999934 6.34523e-05 0)
(0.0999786 0.000137376 0)
(0.099949 0.000238243 0)
(0.0998988 0.000351075 0)
(0.0998242 0.00045623 0)
(0.0997252 0.000538467 0)
(0.0996053 0.000591964 0)
(0.0994701 0.000619752 0)
(0.0993258 0.00062979 0)
(0.0991773 0.000630758 0)
(0.0990283 0.000629413 0)
(0.0988807 0.000629778 0)
(0.0987354 0.000633533 0)
(0.0985924 0.000640866 0)
(0.0984515 0.000651258 0)
(0.098312 0.000664017 0)
(0.0981735 0.000678544 0)
(0.0980355 0.000694425 0)
(0.0978975 0.000711423 0)
(0.0977593 0.000729432 0)
(0.0976206 0.000748436 0)
(0.0974811 0.000768467 0)
(0.0973408 0.000789586 0)
(0.0971993 0.000811863 0)
(0.0970566 0.000835368 0)
(0.0969126 0.000860173 0)
(0.0967672 0.000886343 0)
(0.0966202 0.000913941 0)
(0.0964716 0.000943024 0)
(0.0963213 0.000973649 0)
(0.0961692 0.00100587 0)
(0.0960154 0.00103973 0)
(0.0958598 0.0010753 0)
(0.0957023 0.00111263 0)
(0.0955428 0.00115178 0)
(0.0953815 0.00119283 0)
(0.0952182 0.00123586 0)
(0.0950529 0.00128096 0)
(0.0948857 0.00132826 0)
(0.0947165 0.00137789 0)
(0.0945452 0.00142998 0)
(0.094372 0.00148473 0)
(0.0941968 0.00154232 0)
(0.0940196 0.001603 0)
(0.0938405 0.001667 0)
(0.0936594 0.00173464 0)
(0.0934764 0.00180624 0)
(0.0932916 0.00188216 0)
(0.093105 0.00196284 0)
(0.0929169 0.00204872 0)
(0.0927272 0.00214033 0)
(0.0925362 0.00223825 0)
(0.0923442 0.0023431 0)
(0.0921513 0.00245558 0)
(0.0919581 0.00257647 0)
(0.091765 0.00270661 0)
(0.0915726 0.0028469 0)
(0.0913815 0.00299831 0)
(0.0911927 0.0031619 0)
(0.0910073 0.00333876 0)
(0.0908266 0.00353 0)
(0.0906521 0.00373679 0)
(0.0904858 0.00396024 0)
(0.0903299 0.0042014 0)
(0.0901869 0.00446118 0)
(0.09006 0.00474031 0)
(0.0899525 0.00503918 0)
(0.0898683 0.00535777 0)
(0.0898117 0.00569547 0)
(0.0897874 0.00605099 0)
(0.0898 0.00642214 0)
(0.0898547 0.0068057 0)
(0.089956 0.00719726 0)
(0.0901082 0.00759117 0)
(0.0903146 0.00798049 0)
(0.0905772 0.00835709 0)
(0.0908965 0.00871188 0)
(0.0912707 0.00903527 0)
(0.0916954 0.00931775 0)
(0.0921639 0.00955066 0)
(0.0999992 2.09207e-05 0)
(0.099994 6.75366e-05 0)
(0.0999811 0.000146167 0)
(0.0999556 0.000254401 0)
(0.0999117 0.00037708 0)
(0.0998454 0.000493483 0)
(0.0997558 0.000586836 0)
(0.0996454 0.000649942 0)
(0.0995191 0.000685046 0)
(0.0993824 0.000699992 0)
(0.0992404 0.000703845 0)
(0.0990968 0.000703974 0)
(0.098954 0.000705014 0)
(0.0988131 0.000709133 0)
(0.0986743 0.000716841 0)
(0.0985375 0.000727802 0)
(0.0984022 0.000741399 0)
(0.0982679 0.000757052 0)
(0.0981342 0.00077433 0)
(0.0980007 0.000792973 0)
(0.0978671 0.000812849 0)
(0.0977329 0.00083392 0)
(0.0975981 0.000856203 0)
(0.0974624 0.000879743 0)
(0.0973257 0.000904601 0)
(0.0971879 0.00093084 0)
(0.0970487 0.000958526 0)
(0.0969082 0.000987719 0)
(0.0967663 0.00101848 0)
(0.0966228 0.00105086 0)
(0.0964778 0.00108491 0)
(0.0963312 0.00112068 0)
(0.0961829 0.00115823 0)
(0.0960331 0.0011976 0)
(0.0958815 0.00123886 0)
(0.0957283 0.00128206 0)
(0.0955735 0.00132728 0)
(0.095417 0.00137461 0)
(0.0952588 0.00142413 0)
(0.095099 0.00147596 0)
(0.0949376 0.00153023 0)
(0.0947747 0.00158709 0)
(0.0946102 0.0016467 0)
(0.0944442 0.00170927 0)
(0.0942768 0.001775 0)
(0.0941081 0.00184416 0)
(0.0939382 0.001917 0)
(0.0937671 0.00199385 0)
(0.093595 0.00207504 0)
(0.0934221 0.00216096 0)
(0.0932486 0.00225202 0)
(0.0930747 0.00234869 0)
(0.0929008 0.00245146 0)
(0.0927272 0.00256087 0)
(0.0925543 0.00267751 0)
(0.0923826 0.002802 0)
(0.0922128 0.00293501 0)
(0.0920457 0.00307723 0)
(0.091882 0.00322939 0)
(0.0917228 0.0033922 0)
(0.0915694 0.0035664 0)
(0.0914231 0.00375267 0)
(0.0912855 0.00395166 0)
(0.0911586 0.00416389 0)
(0.0910443 0.00438976 0)
(0.0909452 0.00462947 0)
(0.0908638 0.00488293 0)
(0.0908031 0.00514975 0)
(0.090766 0.00542907 0)
(0.0907558 0.00571955 0)
(0.0907759 0.00601926 0)
(0.0908294 0.00632561 0)
(0.0909195 0.00663527 0)
(0.0910488 0.00694419 0)
(0.0912195 0.00724756 0)
(0.0914329 0.00753996 0)
(0.0916894 0.00781543 0)
(0.091988 0.00806774 0)
(0.0923268 0.00829063 0)
(0.0927019 0.00847821 0)
(0.0931086 0.00862531 0)
(0.0999992 2.22941e-05 0)
(0.0999945 7.14101e-05 0)
(0.099983 0.000154366 0)
(0.0999607 0.0002695 0)
(0.0999221 0.000401675 0)
(0.099863 0.000529274 0)
(0.0997819 0.000634058 0)
(0.0996805 0.000707396 0)
(0.099563 0.000750597 0)
(0.0994344 0.000771234 0)
(0.0992995 0.000778636 0)
(0.0991622 0.000780728 0)
(0.099025 0.000782758 0)
(0.0988891 0.000787413 0)
(0.098755 0.000795571 0)
(0.0986228 0.000807116 0)
(0.0984921 0.000821543 0)
(0.0983624 0.000838307 0)
(0.0982333 0.00085698 0)
(0.0981045 0.000877279 0)
(0.0979756 0.000899049 0)
(0.0978463 0.00092223 0)
(0.0977163 0.000946816 0)
(0.0975856 0.000972838 0)
(0.0974539 0.00100034 0)
(0.0973211 0.00102939 0)
(0.0971871 0.00106002 0)
(0.0970519 0.0010923 0)
(0.0969153 0.00112627 0)
(0.0967774 0.00116199 0)
(0.096638 0.0011995 0)
(0.0964973 0.00123885 0)
(0.0963551 0.00128008 0)
(0.0962115 0.00132324 0)
(0.0960665 0.00136839 0)
(0.0959201 0.00141558 0)
(0.0957723 0.00146489 0)
(0.0956232 0.00151638 0)
(0.0954728 0.00157015 0)
(0.0953211 0.00162631 0)
(0.0951683 0.00168498 0)
(0.0950144 0.0017463 0)
(0.0948594 0.00181042 0)
(0.0947035 0.00187752 0)
(0.0945468 0.0019478 0)
(0.0943895 0.0020215 0)
(0.0942316 0.00209884 0)
(0.0940734 0.00218012 0)
(0.093915 0.00226562 0)
(0.0937568 0.00235567 0)
(0.093599 0.00245063 0)
(0.0934419 0.00255087 0)
(0.093286 0.00265679 0)
(0.0931317 0.00276882 0)
(0.0929795 0.0028874 0)
(0.0928301 0.00301299 0)
(0.0926842 0.00314606 0)
(0.0925426 0.00328707 0)
(0.0924062 0.00343645 0)
(0.0922762 0.00359464 0)
(0.0921537 0.00376199 0)
(0.0920401 0.0039388 0)
(0.091937 0.00412524 0)
(0.0918461 0.00432137 0)
(0.0917692 0.00452705 0)
(0.0917083 0.00474194 0)
(0.0916655 0.00496543 0)
(0.0916431 0.00519659 0)
(0.0916434 0.00543412 0)
(0.0916686 0.00567635 0)
(0.0917209 0.00592116 0)
(0.0918023 0.00616597 0)
(0.0919145 0.00640777 0)
(0.0920588 0.00664312 0)
(0.0922359 0.0068682 0)
(0.0924462 0.00707894 0)
(0.092689 0.0072711 0)
(0.092963 0.00744045 0)
(0.0932661 0.00758296 0)
(0.0935954 0.00769494 0)
(0.0939471 0.00777323 0)
(0.0999992 2.36799e-05 0)
(0.0999948 7.51665e-05 0)
(0.0999844 0.000162151 0)
(0.0999645 0.000283784 0)
(0.0999301 0.000425102 0)
(0.0998771 0.000563756 0)
(0.0998036 0.000680132 0)
(0.0997107 0.000764146 0)
(0.0996018 0.000816072 0)
(0.0994814 0.000843079 0)
(0.0993541 0.000854653 0)
(0.0992237 0.00085921 0)
(0.0990926 0.00086259 0)
(0.0989623 0.000868012 0)
(0.0988336 0.000876751 0)
(0.0987064 0.000888946 0)
(0.0985806 0.000904232 0)
(0.0984558 0.000922123 0)
(0.0983316 0.000942203 0)
(0.0982077 0.000964176 0)
(0.0980837 0.000987866 0)
(0.0979594 0.00101319 0)
(0.0978345 0.00104012 0)