/*--------------------------------*- C++ -*----------------------------------*\
  =========                 |
  \\      /  F ield         | OpenFOAM: The Open Source CFD Toolbox
   \\    /   O peration     | Website:  https://openfoam.org
    \\  /    A nd           | Version:  7
     \\/     M anipulation  |
\*---------------------------------------------------------------------------*/
FoamFile
{
    version     2.0;
    format      ascii;
    class       surfaceScalarField;
    location    "6.16";
    object      phi;
}
// * * * * * * * * * * * * * * * * * * * * * * * * * * * * * * * * * * * * * //

dimensions      [1 0 -1 0 0 0 0];

internalField   nonuniform List<scalar> 
23692
(
1.18958e-05
-2.61193e-07
1.23466e-05
-4.50503e-07
1.2957e-05
-6.09905e-07
1.37026e-05
-7.44978e-07
1.45661e-05
-8.62575e-07
1.55345e-05
-9.6745e-07
1.65987e-05
-1.06303e-06
1.77519e-05
-1.15183e-06
1.89888e-05
-1.23543e-06
2.0305e-05
-1.31459e-06
2.1696e-05
-1.38932e-06
2.31568e-05
-1.45898e-06
2.46813e-05
-1.52249e-06
2.62618e-05
-1.57855e-06
2.78898e-05
-1.62581e-06
2.9555e-05
-1.66311e-06
3.12469e-05
-1.68959e-06
3.29539e-05
-1.70474e-06
3.46647e-05
-1.70847e-06
3.63682e-05
-1.70104e-06
3.80536e-05
-1.68304e-06
3.97114e-05
-1.6553e-06
4.13327e-05
-1.61884e-06
4.29099e-05
-1.57477e-06
4.44366e-05
-1.52424e-06
4.59076e-05
-1.46841e-06
4.73184e-05
-1.40836e-06
4.8666e-05
-1.34514e-06
4.99482e-05
-1.27967e-06
5.11634e-05
-1.21279e-06
5.23111e-05
-1.14525e-06
5.33912e-05
-1.07769e-06
5.44042e-05
-1.01065e-06
5.53512e-05
-9.44601e-07
5.62334e-05
-8.7991e-07
5.70525e-05
-8.16892e-07
5.78105e-05
-7.55794e-07
5.85094e-05
-6.96806e-07
5.91516e-05
-6.4007e-07
5.97393e-05
-5.8569e-07
6.02749e-05
-5.33729e-07
6.0761e-05
-4.84221e-07
6.11999e-05
-4.37174e-07
6.15941e-05
-3.92572e-07
6.19461e-05
-3.50379e-07
6.22581e-05
-3.10543e-07
6.25324e-05
-2.72994e-07
6.27713e-05
-2.37648e-07
6.29768e-05
-2.04411e-07
6.31509e-05
-1.73174e-07
6.32956e-05
-1.43817e-07
6.34125e-05
-1.16209e-07
6.35033e-05
-9.02083e-08
6.35693e-05
-6.56605e-08
6.3612e-05
-4.24007e-08
6.36324e-05
-2.0253e-08
6.36314e-05
9.79613e-10
6.36097e-05
2.14615e-08
6.35679e-05
4.14337e-08
6.35063e-05
6.11261e-08
6.34249e-05
8.08156e-08
6.33232e-05
1.00812e-07
6.32008e-05
1.21465e-07
6.30566e-05
1.43181e-07
6.28889e-05
1.66431e-07
6.26957e-05
1.91781e-07
6.24743e-05
2.19918e-07
6.2221e-05
2.517e-07
6.19311e-05
2.88225e-07
6.15984e-05
3.30944e-07
6.12146e-05
3.81834e-07
6.0769e-05
4.43692e-07
6.02463e-05
5.20625e-07
5.96253e-05
6.18928e-07
5.88745e-05
7.48702e-07
5.79455e-05
9.26937e-07
5.67597e-05
1.18367e-06
5.51823e-05
1.57521e-06
5.2962e-05
2.2183e-06
4.95553e-05
3.40464e-06
6.39058e-06
4.31628e-05
1.27202e-05
-5.32682e-07
1.31995e-05
-9.2948e-07
1.38503e-05
-1.26021e-06
1.4646e-05
-1.53995e-06
1.5568e-05
-1.78366e-06
1.66026e-05
-2.00098e-06
1.77399e-05
-2.19906e-06
1.89725e-05
-2.38309e-06
2.02951e-05
-2.55641e-06
2.17028e-05
-2.72059e-06
2.3191e-05
-2.87564e-06
2.47542e-05
-3.02024e-06
2.63859e-05
-3.15215e-06
2.80782e-05
-3.26865e-06
2.98216e-05
-3.36694e-06
3.16054e-05
-3.4446e-06
3.3418e-05
-3.49981e-06
3.52472e-05
-3.53151e-06
3.70808e-05
-3.5395e-06
3.89066e-05
-3.52431e-06
4.07133e-05
-3.48718e-06
4.24905e-05
-3.42982e-06
4.42286e-05
-3.35435e-06
4.59196e-05
-3.26307e-06
4.75564e-05
-3.15838e-06
4.91333e-05
-3.04266e-06
5.06458e-05
-2.9182e-06
5.20905e-05
-2.78714e-06
5.34649e-05
-2.65141e-06
5.47675e-05
-2.51277e-06
5.59976e-05
-2.37275e-06
5.71551e-05
-2.23268e-06
5.82407e-05
-2.09369e-06
5.92554e-05
-1.95675e-06
6.02005e-05
-1.82262e-06
6.1078e-05
-1.69196e-06
6.18898e-05
-1.56528e-06
6.26383e-05
-1.44297e-06
6.33258e-05
-1.32533e-06
6.39548e-05
-1.21256e-06
6.45279e-05
-1.1048e-06
6.50478e-05
-1.00212e-06
6.5517e-05
-9.04525e-07
6.59382e-05
-8.11992e-07
6.63139e-05
-7.24442e-07
6.66467e-05
-6.41762e-07
6.6939e-05
-5.63809e-07
6.7193e-05
-4.9041e-07
6.74112e-05
-4.21366e-07
6.75955e-05
-3.56451e-07
6.7748e-05
-2.95418e-07
6.78705e-05
-2.37993e-07
6.79648e-05
-1.83883e-07
6.80324e-05
-1.32769e-07
6.80746e-05
-8.43089e-08
6.80926e-05
-3.81362e-08
6.80874e-05
6.13323e-09
6.80598e-05
4.88801e-08
6.80103e-05
9.05555e-08
6.79392e-05
1.31652e-07
6.78466e-05
1.72729e-07
6.77321e-05
2.14418e-07
6.75952e-05
2.57428e-07
6.74346e-05
3.02574e-07
6.72489e-05
3.50807e-07
6.7036e-05
4.03249e-07
6.67931e-05
4.61261e-07
6.65165e-05
5.26522e-07
6.62018e-05
6.01158e-07
6.58428e-05
6.87935e-07
6.54321e-05
7.90555e-07
6.49596e-05
9.14122e-07
6.44121e-05
1.0659e-06
6.37723e-05
1.25659e-06
6.30163e-05
1.5024e-06
6.21122e-05
1.82877e-06
6.1017e-05
2.27657e-06
5.9677e-05
2.91299e-06
5.80399e-05
3.85313e-06
5.61442e-05
5.29819e-06
7.51591e-06
5.50168e-05
1.35987e-05
-8.11933e-07
1.4105e-05
-1.43544e-06
1.47954e-05
-1.95003e-06
1.56418e-05
-2.38555e-06
1.6624e-05
-2.76488e-06
1.77273e-05
-3.1031e-06
1.89409e-05
-3.41138e-06
2.02573e-05
-3.69789e-06
2.16704e-05
-3.96783e-06
2.31753e-05
-4.2237e-06
2.47672e-05
-4.46551e-06
2.64402e-05
-4.69122e-06
2.81876e-05
-4.89732e-06
3.00008e-05
-5.07951e-06
3.18697e-05
-5.23343e-06
3.37828e-05
-5.35523e-06
3.57276e-05
-5.44203e-06
3.76909e-05
-5.49217e-06
3.96594e-05
-5.50528e-06
4.162e-05
-5.48221e-06
4.35605e-05
-5.42485e-06
4.54694e-05
-5.33591e-06
4.73365e-05
-5.21866e-06
4.9153e-05
-5.07671e-06
5.09113e-05
-4.91382e-06
5.26052e-05
-4.73371e-06
5.42298e-05
-4.53995e-06
5.57814e-05
-4.33588e-06
5.72574e-05
-4.12454e-06
5.86561e-05
-3.90865e-06
5.99767e-05
-3.69061e-06
6.12193e-05
-3.47248e-06
6.23843e-05
-3.25604e-06
6.34731e-05
-3.04278e-06
6.4487e-05
-2.83392e-06
6.5428e-05
-2.63045e-06
6.62984e-05
-2.43316e-06
6.71006e-05
-2.24268e-06
6.78371e-05
-2.05945e-06
6.85106e-05
-1.8838e-06
6.9124e-05
-1.71594e-06
6.96799e-05
-1.55596e-06
7.01813e-05
-1.40389e-06
7.06309e-05
-1.25967e-06
7.10314e-05
-1.12318e-06
7.13856e-05
-9.9425e-07
7.16959e-05
-8.72646e-07
7.1965e-05
-7.581e-07
7.21952e-05
-6.50298e-07
7.23888e-05
-5.48891e-07
7.25478e-05
-4.5349e-07
7.26743e-05
-3.63673e-07
7.27701e-05
-2.78982e-07
7.28367e-05
-1.98922e-07
7.28757e-05
-1.22963e-07
7.28882e-05
-5.05389e-08
7.28754e-05
1.89305e-08
7.2838e-05
8.60404e-08
7.27767e-05
1.51468e-07
7.26918e-05
2.15973e-07
7.25834e-05
2.80405e-07
7.24512e-05
3.4571e-07
7.22946e-05
4.1295e-07
7.21126e-05
4.83337e-07
7.19037e-05
5.58264e-07
7.16661e-05
6.3937e-07
7.1397e-05
7.28604e-07
7.10934e-05
8.2834e-07
7.07511e-05
9.41526e-07
7.0365e-05
1.0719e-06
6.99291e-05
1.22432e-06
6.94358e-05
1.40523e-06
6.8876e-05
1.62337e-06
6.82394e-05
1.8908e-06
6.7515e-05
2.2244e-06
6.66933e-05
2.64799e-06
6.57725e-05
3.19496e-06
6.47722e-05
3.91088e-06
6.37687e-05
4.85421e-06
6.29817e-05
6.08291e-06
7.57889e-06
6.29164e-05
1.45367e-05
-1.0976e-06
1.50682e-05
-1.96655e-06
1.57974e-05
-2.6787e-06
1.66949e-05
-3.2822e-06
1.77388e-05
-3.80773e-06
1.89132e-05
-4.27625e-06
2.02066e-05
-4.70337e-06
2.16109e-05
-5.1005e-06
2.31198e-05
-5.47493e-06
2.47282e-05
-5.83016e-06
2.64311e-05
-6.16626e-06
2.82225e-05
-6.48038e-06
3.00951e-05
-6.7676e-06
3.204e-05
-7.0219e-06
3.40463e-05
-7.2371e-06
3.61015e-05
-7.40778e-06
3.81921e-05
-7.52984e-06
4.03036e-05
-7.60092e-06
4.24217e-05
-7.62045e-06
4.4532e-05
-7.58958e-06
4.6621e-05
-7.51093e-06
4.86764e-05
-7.38827e-06
5.06869e-05
-7.22617e-06
5.26429e-05
-7.02967e-06
5.45362e-05
-6.80401e-06
5.63599e-05
-6.55438e-06
5.81088e-05
-6.28577e-06
5.97788e-05
-6.00281e-06
6.1367e-05
-5.70976e-06
6.28718e-05
-5.41039e-06
6.42922e-05
-5.10804e-06
6.56283e-05
-4.80559e-06
6.68807e-05
-4.50549e-06
6.80505e-05
-4.20979e-06
6.91397e-05
-3.9202e-06
7.01501e-05
-3.6381e-06
7.10842e-05
-3.36458e-06
7.19446e-05
-3.10048e-06
7.27341e-05
-2.84642e-06
7.34556e-05
-2.60286e-06
7.41121e-05
-2.37006e-06
7.47066e-05
-2.14817e-06
7.5242e-05
-1.9372e-06
7.57215e-05
-1.73709e-06
7.61479e-05
-1.54764e-06
7.6524e-05
-1.36862e-06
7.68528e-05
-1.19971e-06
7.71367e-05
-1.04053e-06
7.73784e-05
-8.90644e-07
7.75803e-05
-7.49563e-07
7.77446e-05
-6.16751e-07
7.78734e-05
-4.91624e-07
7.79687e-05
-3.73549e-07
7.80321e-05
-2.61847e-07
7.80653e-05
-1.5579e-07
7.80695e-05
-5.46057e-08
7.8046e-05
4.24847e-08
7.79955e-05
1.36284e-07
7.79188e-05
2.27709e-07
7.78164e-05
3.17786e-07
7.76884e-05
4.07644e-07
7.75346e-05
4.98527e-07
7.73546e-05
5.91824e-07
7.71475e-05
6.89094e-07
7.69122e-05
7.92115e-07
7.6647e-05
9.02935e-07
7.63498e-05
1.02395e-06
7.60182e-05
1.15801e-06
7.56491e-05
1.30856e-06
7.5239e-05
1.4798e-06
7.4784e-05
1.67699e-06
7.42801e-05
1.90672e-06
7.37236e-05
2.17738e-06
7.31123e-05
2.49962e-06
7.24472e-05
2.88687e-06
7.1737e-05
3.35563e-06
7.10042e-05
3.92513e-06
7.02973e-05
4.61522e-06
6.97083e-05
5.44064e-06
6.93915e-05
6.39716e-06
7.42813e-06
6.95399e-05
1.55391e-05
-1.38914e-06
1.60944e-05
-2.52153e-06
1.68621e-05
-3.44572e-06
1.78111e-05
-4.23032e-06
1.89182e-05
-4.91369e-06
2.01662e-05
-5.52296e-06
2.1543e-05
-6.0786e-06
2.30398e-05
-6.59556e-06
2.46503e-05
-7.0835e-06
2.63693e-05
-7.54705e-06
2.81917e-05
-7.98636e-06
3.01114e-05
-8.39768e-06
3.21208e-05
-8.77451e-06
3.42104e-05
-9.10882e-06
3.63685e-05
-9.3924e-06
3.85815e-05
-9.61796e-06
4.08346e-05
-9.77999e-06
4.3112e-05
-9.87527e-06
4.53976e-05
-9.90298e-06
4.76758e-05
-9.86459e-06
4.99316e-05
-9.76353e-06
5.21513e-05
-9.60473e-06
5.43226e-05
-9.39422e-06
5.64348e-05
-9.13863e-06
5.84789e-05
-8.84486e-06
6.04476e-05
-8.51973e-06
6.23349e-05
-8.16979e-06
6.41365e-05
-7.80114e-06
6.58493e-05
-7.41932e-06
6.74715e-05
-7.0293e-06
6.90021e-05
-6.63543e-06
7.04411e-05
-6.24147e-06
7.17894e-05
-5.85061e-06
7.30482e-05
-5.46553e-06
7.42194e-05
-5.08844e-06
7.53054e-05
-4.72112e-06
7.63087e-05
-4.36499e-06
7.72322e-05
-4.02113e-06
7.80788e-05
-3.69035e-06
7.88518e-05
-3.37322e-06
7.95544e-05
-3.07007e-06
8.01898e-05
-2.7811e-06
8.07612e-05
-2.5063e-06
8.12719e-05
-2.24557e-06
8.1725e-05
-1.99868e-06
8.21236e-05
-1.7653e-06
8.24706e-05
-1.545e-06
8.2769e-05
-1.33729e-06
8.30214e-05
-1.1416e-06
8.32304e-05
-9.57293e-07
8.33985e-05
-7.83678e-07
8.35278e-05
-6.19996e-07
8.36205e-05
-4.6543e-07
8.36783e-05
-3.19107e-07
8.3703e-05
-1.80093e-07
8.3696e-05
-4.74146e-08
8.36585e-05
7.99019e-08
8.35917e-05
2.02863e-07
8.34964e-05
3.22633e-07
8.3373e-05
4.40489e-07
8.3222e-05
5.57817e-07
8.30434e-05
6.76129e-07
8.28369e-05
7.97085e-07
8.26021e-05
9.22526e-07
8.23381e-05
1.05451e-06
8.2044e-05
1.19535e-06
8.17183e-05
1.34769e-06
8.13597e-05
1.51458e-06
8.09664e-05
1.69956e-06
8.05371e-05
1.90678e-06
8.00706e-05
2.14109e-06
7.95665e-05
2.40824e-06
7.90263e-05
2.71491e-06
7.84546e-05
3.0687e-06
7.78607e-05
3.47795e-06
7.72626e-05
3.95102e-06
7.66901e-05
4.49483e-06
7.61904e-05
5.11213e-06
7.58314e-05
5.79694e-06
7.56986e-05
6.52723e-06
7.2535e-06
7.58706e-05
1.6611e-05
-1.68672e-06
1.71896e-05
-3.09973e-06
1.79956e-05
-4.25103e-06
1.89969e-05
-5.23062e-06
2.01689e-05
-6.0845e-06
2.14934e-05
-6.84608e-06
2.29576e-05
-7.54107e-06
2.45523e-05
-8.18837e-06
2.62711e-05
-8.80026e-06
2.8109e-05
-9.38273e-06
3.00611e-05
-9.93598e-06
3.21213e-05
-1.04553e-05
3.42818e-05
-1.09323e-05
3.65324e-05
-1.13566e-05
3.88605e-05
-1.17175e-05
4.12512e-05
-1.20056e-05
4.36879e-05
-1.22136e-05
4.61531e-05
-1.23372e-05
4.86288e-05
-1.23754e-05
5.10974e-05
-1.23298e-05
5.35423e-05
-1.22049e-05
5.5948e-05
-1.2007e-05
5.8301e-05
-1.17437e-05
6.05894e-05
-1.14235e-05
6.28033e-05
-1.10552e-05
6.49345e-05
-1.06474e-05
6.69766e-05
-1.02084e-05
6.89249e-05
-9.74597e-06
7.07762e-05
-9.2671e-06
7.25284e-05
-8.77804e-06
7.41807e-05
-8.28426e-06
7.57331e-05
-7.79048e-06
7.71866e-05
-7.3007e-06
7.85426e-05
-6.81827e-06
7.98034e-05
-6.34594e-06
8.09714e-05
-5.88592e-06
8.20495e-05
-5.43997e-06
8.30408e-05
-5.00944e-06
8.39487e-05
-4.5953e-06
8.47765e-05
-4.19824e-06
8.55279e-05
-3.81869e-06
8.62062e-05
-3.45684e-06
8.68151e-05
-3.1127e-06
8.7358e-05
-2.78611e-06
8.78383e-05
-2.47677e-06
8.82594e-05
-2.18425e-06
8.86243e-05
-1.90803e-06
8.89363e-05
-1.64747e-06
8.91981e-05
-1.40187e-06
8.94127e-05
-1.17043e-06
8.95825e-05
-9.52276e-07
8.971e-05
-7.46479e-07
8.97974e-05
-5.5203e-07
8.98468e-05
-3.6785e-07
8.98599e-05
-1.92795e-07
8.98384e-05
-2.57178e-08
8.97838e-05
1.34539e-07
8.96972e-05
2.89208e-07
8.95797e-05
4.39687e-07
8.94321e-05
5.8748e-07
8.92549e-05
7.34193e-07
8.90484e-05
8.81551e-07
8.88127e-05
1.03142e-06
8.8548e-05
1.18582e-06
8.82538e-05
1.34697e-06
8.793e-05
1.51729e-06
8.75762e-05
1.69944e-06
8.71922e-05
1.89638e-06
8.67781e-05
2.11138e-06
8.63343e-05
2.34804e-06
8.58625e-05
2.61031e-06
8.53656e-05
2.90241e-06
8.4849e-05
3.2287e-06
8.43215e-05
3.5934e-06
8.37964e-05
4.00008e-06
8.32938e-05
4.45072e-06
8.28412e-05
4.94446e-06
8.24747e-05
5.47569e-06
8.2237e-05
6.03171e-06
8.21713e-05
6.59004e-06
7.1164e-06
8.23055e-05
1.77579e-05
-1.9911e-06
1.83599e-05
-3.7012e-06
1.92048e-05
-5.09519e-06
2.02595e-05
-6.28436e-06
2.14987e-05
-7.32242e-06
2.29032e-05
-8.24901e-06
2.44594e-05
-9.09551e-06
2.61583e-05
-9.88519e-06
2.79935e-05
-1.06333e-05
2.99607e-05
-1.13474e-05
3.20551e-05
-1.20278e-05
3.42713e-05
-1.26686e-05
3.66011e-05
-1.32591e-05
3.90337e-05
-1.37861e-05
4.15552e-05
-1.42358e-05
4.4149e-05
-1.45961e-05
4.67964e-05
-1.48575e-05
4.94773e-05
-1.50146e-05
5.21713e-05
-1.50658e-05
5.48584e-05
-1.50133e-05
5.75197e-05
-1.48625e-05
6.01378e-05
-1.46215e-05
6.26976e-05
-1.42997e-05
6.51857e-05
-1.39079e-05
6.75912e-05
-1.34569e-05
6.99052e-05
-1.29576e-05
7.21208e-05
-1.24202e-05
7.42328e-05
-1.18542e-05
7.62379e-05
-1.12684e-05
7.8134e-05
-1.06704e-05
7.99204e-05
-1.00669e-05
8.15972e-05
-9.46364e-06
8.31656e-05
-8.86552e-06
8.46275e-05
-8.27658e-06
8.59852e-05
-7.70017e-06
8.72417e-05
-7.13895e-06
8.84e-05
-6.59502e-06
8.94639e-05
-6.06999e-06
9.04368e-05
-5.56503e-06
9.13225e-05
-5.08094e-06
9.2125e-05
-4.6182e-06
9.2848e-05
-4.17703e-06
9.34954e-05
-3.75741e-06
9.40709e-05
-3.35913e-06
9.45784e-05
-2.9818e-06
9.50212e-05
-2.62489e-06
9.5403e-05
-2.28774e-06
9.5727e-05
-1.96959e-06
9.59964e-05
-1.66956e-06
9.62142e-05
-1.38669e-06
9.63832e-05
-1.11993e-06
9.6506e-05
-8.68156e-07
9.65851e-05
-6.30165e-07
9.66226e-05
-4.04669e-07
9.66206e-05
-1.90312e-07
9.65809e-05
1.41921e-08
9.65053e-05
2.1016e-07
9.63952e-05
3.99099e-07
9.62518e-05
5.82604e-07
9.60763e-05
7.62365e-07
9.58694e-05
9.40162e-07
9.5632e-05
1.11787e-06
9.53646e-05
1.29748e-06
9.50677e-05
1.48108e-06
9.4742e-05
1.67092e-06
9.4388e-05
1.86934e-06
9.40065e-05
2.07884e-06
9.35985e-05
2.30205e-06
9.31657e-05
2.54167e-06
9.27106e-05
2.80048e-06
9.2237e-05
3.08121e-06
9.17501e-05
3.38641e-06
9.12577e-05
3.71819e-06
9.07701e-05
4.07791e-06
9.03015e-05
4.46561e-06
8.98696e-05
4.87942e-06
8.94962e-05
5.31472e-06
8.92055e-05
5.76325e-06
8.90218e-05
6.21232e-06
8.89642e-05
6.6445e-06
7.0385e-06
8.90391e-05
1.89855e-05
-2.3035e-06
1.96115e-05
-4.32671e-06
2.04966e-05
-5.97953e-06
2.16069e-05
-7.39353e-06
2.29162e-05
-8.63042e-06
2.44049e-05
-9.73601e-06
2.6059e-05
-1.07477e-05
2.78697e-05
-1.16937e-05
2.98315e-05
-1.25927e-05
3.19408e-05
-1.34541e-05
3.41941e-05
-1.42783e-05
3.65862e-05
-1.50578e-05
3.91092e-05
-1.5779e-05
4.17513e-05
-1.64249e-05
4.44969e-05
-1.6978e-05
4.73269e-05
-1.74225e-05
5.02194e-05
-1.77465e-05
5.31513e-05
-1.79428e-05
5.60988e-05
-1.80095e-05
5.90388e-05
-1.79493e-05
6.19495e-05
-1.77693e-05
6.48114e-05
-1.74794e-05
6.76072e-05
-1.70915e-05
7.03221e-05
-1.66188e-05
7.29441e-05
-1.60748e-05
7.54635e-05
-1.54729e-05
7.78729e-05
-1.48255e-05
8.01669e-05
-1.41442e-05
8.23422e-05
-1.34396e-05
8.43967e-05
-1.27209e-05
8.63299e-05
-1.19961e-05
8.81424e-05
-1.12722e-05
8.98356e-05
-1.05548e-05
9.14117e-05
-9.84889e-06
9.28736e-05
-9.15833e-06
9.42247e-05
-8.48628e-06
9.54684e-05
-7.83518e-06
9.66088e-05
-7.2069e-06
9.765e-05
-6.60279e-06
9.85961e-05
-6.02374e-06
9.94514e-05
-5.4703e-06
0.00010022
-4.94267e-06
0.000100906
-4.44081e-06
0.000101514
-3.96441e-06
0.000102048
-3.513e-06
0.000102512
-3.08593e-06
0.000102909
-2.68238e-06
0.000103242
-2.30145e-06
0.000103517
-1.94208e-06
0.000103735
-1.60313e-06
0.0001039
-1.28337e-06
0.000104014
-9.81481e-07
0.000104081
-6.96055e-07
0.000104103
-4.2561e-07
0.000104082
-1.68604e-07
0.00010402
7.64371e-08
0.000103919
3.10974e-07
0.000103781
5.36715e-07
0.000103608
7.55456e-07
0.000103401
9.69036e-07
0.000103161
1.17935e-06
0.000102889
1.38836e-06
0.000102587
1.59808e-06
0.000102256
1.81059e-06
0.000101897
2.02802e-06
0.000101512
2.25252e-06
0.000101102
2.48626e-06
0.00010067
2.73136e-06
0.000100219
2.98986e-06
9.97534e-05
3.2636e-06
9.92776e-05
3.55411e-06
9.87986e-05
3.86245e-06
9.83246e-05
4.18897e-06
9.78663e-05
4.53303e-06
9.7436e-05
4.89266e-06
9.70479e-05
5.26421e-06
9.67172e-05
5.64202e-06
9.6459e-05
6.01815e-06
9.62855e-05
6.38243e-06
9.62039e-05
6.72281e-06
7.02686e-06
9.62123e-05
2.02994e-05
-2.62551e-06
2.0951e-05
-4.97777e-06
2.18785e-05
-6.90616e-06
2.30471e-05
-8.56103e-06
2.44306e-05
-1.00124e-05
2.60089e-05
-1.13124e-05
2.77682e-05
-1.25049e-05
2.97004e-05
-1.36237e-05
3.18018e-05
-1.46915e-05
3.40703e-05
-1.57198e-05
3.65041e-05
-1.67091e-05
3.90991e-05
-1.76495e-05
4.18471e-05
-1.85236e-05
4.47351e-05
-1.93093e-05
4.77448e-05
-1.9984e-05
5.08535e-05
-2.05274e-05
5.40351e-05
-2.09242e-05
5.72619e-05
-2.11655e-05
6.05058e-05
-2.12492e-05
6.37398e-05
-2.11791e-05
6.69387e-05
-2.0964e-05
7.00802e-05
-2.06165e-05
7.31448e-05
-2.01518e-05
7.61164e-05
-1.9586e-05
7.89817e-05
-1.89357e-05
8.17305e-05
-1.82172e-05
8.43549e-05
-1.74455e-05
8.68497e-05
-1.66347e-05
8.92116e-05
-1.57971e-05
9.14389e-05
-1.49439e-05
9.35314e-05
-1.40843e-05
9.54902e-05
-1.32267e-05
9.73173e-05
-1.23777e-05
9.90154e-05
-1.15429e-05
0.000100588
-1.07269e-05
0.000102039
-9.93319e-06
0.000103372
-9.16469e-06
0.000104593
-8.42346e-06
0.000105705
-7.71099e-06
0.000106713
-7.02829e-06
0.000107622
-6.3759e-06
0.000108436
-5.75402e-06
0.000109161
-5.16252e-06
0.000109801
-4.60103e-06
0.000110359
-4.06893e-06
0.000110842
-3.56543e-06
0.000111251
-3.08958e-06
0.000111592
-2.64027e-06
0.000111869
-2.21628e-06
0.000112084
-1.81628e-06
0.000112241
-1.43883e-06
0.000112343
-1.08243e-06
0.000112393
-7.45473e-07
0.000112395
-4.2628e-07
0.00011235
-1.23165e-07
0.000112261
1.65525e-07
0.000112131
4.41419e-07
0.000111961
7.06425e-07
0.000111754
9.62484e-07
0.000111511
1.21154e-06
0.000111234
1.45554e-06
0.000110924
1.69646e-06
0.000110585
1.93628e-06
0.000110216
2.17698e-06
0.000109822
2.42047e-06
0.000109404
2.66863e-06
0.000108965
2.92321e-06
0.000108508
3.18579e-06
0.000108037
3.45772e-06
0.000107558
3.74e-06
0.000107076
4.03318e-06
0.000106598
4.33722e-06
0.000106132
4.65132e-06
0.000105688
4.97376e-06
0.000105275
5.30176e-06
0.000104905
5.63132e-06
0.000104586
5.95719e-06
0.000104328
6.27296e-06
0.000104135
6.5713e-06
0.00010401
6.84447e-06
7.08554e-06
0.000103948
2.17059e-05
-2.95902e-06
2.23852e-05
-5.65658e-06
2.33581e-05
-7.87807e-06
2.45891e-05
-9.79076e-06
2.60519e-05
-1.14736e-05
2.77265e-05
-1.29852e-05
2.96003e-05
-1.43765e-05
3.16669e-05
-1.56878e-05
3.3925e-05
-1.69468e-05
3.63757e-05
-1.81675e-05
3.90195e-05
-1.93497e-05
4.18536e-05
-2.04802e-05
4.48694e-05
-2.15358e-05
4.80515e-05
-2.24876e-05
5.13774e-05
-2.33059e-05
5.48189e-05
-2.39647e-05
5.83439e-05
-2.4445e-05
6.19187e-05
-2.4736e-05
6.55096e-05
-2.48357e-05
6.90847e-05
-2.47497e-05
7.2615e-05
-2.44898e-05
7.60753e-05
-2.40721e-05
7.94438e-05
-2.35156e-05
8.2703e-05
-2.28405e-05
8.58388e-05
-2.20668e-05
8.88406e-05
-2.12142e-05
9.17007e-05
-2.03009e-05
9.4414e-05
-1.93433e-05
9.69776e-05
-1.83561e-05
9.93906e-05
-1.73521e-05
0.000101653
-1.63425e-05
0.000103768
-1.53364e-05
0.000105736
-1.43417e-05
0.000107563
-1.33648e-05
0.000109251
-1.24107e-05
0.000110806
-1.14836e-05
0.000112232
-1.05865e-05
0.000113534
-9.72176e-06
0.000114718
-8.89098e-06
0.000115789
-8.09521e-06
0.000116752
-7.335e-06
0.000117612
-6.61048e-06
0.000118374
-5.92144e-06
0.000119044
-5.26738e-06
0.000119625
-4.64753e-06
0.000120124
-4.06095e-06
0.000120543
-3.50649e-06
0.000120888
-2.98287e-06
0.000121163
-2.48867e-06
0.000121371
-2.02236e-06
0.000121516
-1.58232e-06
0.000121602
-1.16683e-06
0.000121632
-7.74088e-07
0.000121609
-4.02217e-07
0.000121536
-4.95032e-08
0.000121416
2.85882e-07
0.000121252
6.05881e-07
0.000121046
9.12533e-07
0.0001208
1.20786e-06
0.000120517
1.49385e-06
0.000120199
1.77247e-06
0.000119849
2.04566e-06
0.000119468
2.3153e-06
0.00011906
2.5832e-06
0.000118628
2.85103e-06
0.000118174
3.12035e-06
0.000117702
3.3925e-06
0.000117217
3.66856e-06
0.000116722
3.9493e-06
0.000116224
4.23507e-06
0.000115728
4.52576e-06
0.000115241
4.82067e-06
0.000114771
5.11844e-06
0.000114324
5.41702e-06
0.000113909
5.71359e-06
0.000113532
6.00458e-06
0.000113199
6.2858e-06
0.000112916
6.55255e-06
0.000112684
6.79994e-06
0.000112501
7.02329e-06
7.21897e-06
0.000112364
2.32113e-05
-3.30615e-06
2.39214e-05
-6.36606e-06
2.49435e-05
-8.89915e-06
2.62419e-05
-1.10878e-05
2.77906e-05
-1.30206e-05
2.95706e-05
-1.47631e-05
3.1571e-05
-1.63745e-05
3.3789e-05
-1.79031e-05
3.62275e-05
-1.93822e-05
3.88919e-05
-2.08286e-05
4.17863e-05
-2.22405e-05
4.4909e-05
-2.35992e-05
4.82499e-05
-2.48728e-05
5.17891e-05
-2.60226e-05
5.54973e-05
-2.70098e-05
5.93383e-05
-2.78013e-05
6.32717e-05
-2.83738e-05
6.72559e-05
-2.87154e-05
7.12503e-05
-2.88253e-05
7.52177e-05
-2.87122e-05
7.91249e-05
-2.8392e-05
8.29436e-05
-2.78859e-05
8.66505e-05
-2.72175e-05
9.02269e-05
-2.64117e-05
9.36584e-05
-2.54932e-05
9.69345e-05
-2.44852e-05
0.000100048
-2.34093e-05
0.000102995
-2.22847e-05
0.000105772
-2.11286e-05
0.000108381
-1.99557e-05
0.000110822
-1.87785e-05
0.000113098
-1.76077e-05
0.000115214
-1.6452e-05
0.000117172
-1.53185e-05
0.000118979
-1.42128e-05
0.00012064
-1.31395e-05
0.000122159
-1.21018e-05
0.000123544
-1.11023e-05
0.000124801
-1.01427e-05
0.000125933
-9.22392e-06
0.000126949
-8.34653e-06
0.000127853
-7.51058e-06
0.000128651
-6.7157e-06
0.000129348
-5.96125e-06
0.00012995
-5.24628e-06
0.000130462
-4.56966e-06
0.000130889
-3.93005e-06
0.000131235
-3.32595e-06
0.000131504
-2.75576e-06
0.000131702
-2.21773e-06
0.000131831
-1.71004e-06
0.000131897
-1.23079e-06
0.000131902
-7.77976e-07
0.000131851
-3.49571e-07
0.000131746
5.62562e-08
0.000131591
4.41458e-07
0.000131389
8.08282e-07
0.000131143
1.15886e-06
0.000130855
1.49527e-06
0.000130529
1.81951e-06
0.000130167
2.13353e-06
0.000129772
2.43919e-06
0.000129347
2.73824e-06
0.000128897
3.0323e-06
0.000128423
3.32282e-06
0.00012793
3.61105e-06
0.000127422
3.89798e-06
0.000126903
4.18431e-06
0.000126379
4.4704e-06
0.000125855
4.75621e-06
0.000125336
5.04125e-06
0.000124829
5.32459e-06
0.000124339
5.60478e-06
0.000123872
5.87987e-06
0.000123435
6.14747e-06
0.000123031
6.40479e-06
0.000122664
6.6488e-06
0.000122336
6.87633e-06
0.000122048
7.08435e-06
0.000121797
7.27022e-06
7.43228e-06
0.00012158
2.48226e-05
-3.66927e-06
2.5567e-05
-7.10985e-06
2.66433e-05
-9.9743e-06
2.80155e-05
-1.24586e-05
2.96587e-05
-1.46619e-05
3.15557e-05
-1.66579e-05
3.36994e-05
-1.85156e-05
3.60923e-05
-2.02931e-05
3.87441e-05
-2.20308e-05
4.16665e-05
-2.37475e-05
4.48675e-05
-2.54377e-05
4.83459e-05
-2.70735e-05
5.20872e-05
-2.86098e-05
5.60635e-05
-2.99945e-05
6.02351e-05
-3.11768e-05
6.45543e-05
-3.21157e-05
6.89697e-05
-3.27843e-05
7.34301e-05
-3.31707e-05
7.78873e-05
-3.32773e-05
8.22984e-05
-3.31179e-05
8.66263e-05
-3.27145e-05
9.08404e-05
-3.20945e-05
9.49162e-05
-3.12878e-05
9.88348e-05
-3.03248e-05
0.000102582
-2.92351e-05
0.000106149
-2.80463e-05
0.000109529
-2.67835e-05
0.000112719
-2.54691e-05
0.000115718
-2.41224e-05
0.000118528
-2.27602e-05
0.000121151
-2.13966e-05
0.000123592
-2.00434e-05
0.000125856
-1.87101e-05
0.000127947
-1.74047e-05
0.000129873
-1.61331e-05
0.000131639
-1.49002e-05
0.000133251
-1.37096e-05
0.000134717
-1.25637e-05
0.000136044
-1.14643e-05
0.000137237
-1.04124e-05
0.000138303
-9.40825e-06
0.000139248
-8.45187e-06
0.00014008
-7.54271e-06
0.000140802
-6.67991e-06
0.000141422
-5.86233e-06
0.000141944
-5.08862e-06
0.000142375
-4.35722e-06
0.000142718
-3.66643e-06
0.000142979
-3.01439e-06
0.000143163
-2.39919e-06
0.000143274
-1.8188e-06
0.000143317
-1.27112e-06
0.000143294
-7.54037e-07
0.000143211
-2.65386e-07
0.000143072
1.97009e-07
0.000142879
6.35194e-07
0.000142636
1.05151e-06
0.000142347
1.44821e-06
0.000142014
1.82741e-06
0.000141642
2.19111e-06
0.000141234
2.54123e-06
0.000140792
2.87952e-06
0.000140321
3.20762e-06
0.000139825
3.52699e-06
0.000139307
3.83887e-06
0.000138771
4.14427e-06
0.000138223
4.44395e-06
0.000137666
4.73837e-06
0.000137106
5.02767e-06
0.000136547
5.31165e-06
0.000135995
5.58974e-06
0.000135455
5.86105e-06
0.000134932
6.12432e-06
0.00013443
6.378e-06
0.000133953
6.62032e-06
0.000133505
6.84932e-06
0.000133087
7.06301e-06
0.000132699
7.25947e-06
0.000132343
7.43699e-06
0.000132015
7.59426e-06
7.7308e-06
0.000131712
2.6547e-05
-4.05101e-06
2.73303e-05
-7.89245e-06
2.84668e-05
-1.11096e-05
2.99211e-05
-1.39114e-05
3.16698e-05
-1.64085e-05
3.36995e-05
-1.86851e-05
3.60094e-05
-2.08227e-05
3.86106e-05
-2.28912e-05
4.15226e-05
-2.49392e-05
4.47651e-05
-2.69861e-05
4.83497e-05
-2.90182e-05
5.22725e-05
-3.09918e-05
5.65102e-05
-3.28429e-05
6.10214e-05
-3.45008e-05
6.57509e-05
-3.59012e-05
7.06357e-05
-3.69953e-05
7.5611e-05
-3.77542e-05
8.06149e-05
-3.81691e-05
8.55916e-05
-3.82484e-05
9.04929e-05
-3.80135e-05
9.5279e-05
-3.74948e-05
9.99181e-05
-3.67277e-05
0.000104386
-3.57494e-05
0.000108664
-3.45968e-05
0.00011274
-3.3305e-05
0.000116605
-3.19062e-05
0.000120257
-3.04292e-05
0.000123693
-2.88993e-05
0.000126916
-2.73385e-05
0.000129927
-2.57653e-05
0.000132731
-2.41952e-05
0.000135335
-2.2641e-05
0.000137744
-2.11132e-05
0.000139965
-1.962e-05
0.000142005
-1.8168e-05
0.000143873
-1.67621e-05
0.000145574
-1.5406e-05
0.000147118
-1.41021e-05
0.000148511
-1.28521e-05
0.00014976
-1.16568e-05
0.000150874
-1.05165e-05
0.000151857
-9.43087e-06
0.000152718
-8.3991e-06
0.000153463
-7.42014e-06
0.000154097
-6.49261e-06
0.000154627
-5.6149e-06
0.000155059
-4.78522e-06
0.000155397
-4.00162e-06
0.000155648
-3.26206e-06
0.000155816
-2.56438e-06
0.000155906
-1.90636e-06
0.000155923
-1.28575e-06
0.000155871
-7.00245e-07
0.000155755
-1.47635e-07
0.000155578
3.7453e-07
0.000155346
8.68539e-07
0.000155061
1.33686e-06
0.000154728
1.78176e-06
0.00015435
2.20539e-06
0.000153931
2.60974e-06
0.000153475
2.99666e-06
0.000152985
3.36787e-06
0.000152467
3.72488e-06
0.000151923
4.06904e-06
0.000151358
4.40145e-06
0.000150777
4.72299e-06
0.000150184
5.03431e-06
0.000149584
5.33576e-06
0.000148982
5.62744e-06
0.000148381
5.90918e-06
0.000147787
6.18054e-06
0.000147203
6.44085e-06
0.000146635
6.68921e-06
0.000146084
6.9246e-06
0.000145555
7.14585e-06
0.000145048
7.3518e-06
0.000144565
7.54131e-06
0.000144107
7.71339e-06
0.000143673
7.86726e-06
0.00014326
8.00246e-06
8.11926e-06
0.000142868
2.83923e-05
-4.45433e-06
2.92199e-05
-8.7193e-06
3.04243e-05
-1.23128e-05
3.19713e-05
-1.54567e-05
3.38404e-05
-1.82753e-05
3.60245e-05
-2.08667e-05
3.85332e-05
-2.33283e-05
4.13908e-05
-2.57454e-05
4.46299e-05
-2.81745e-05
4.82789e-05
-3.0631e-05
5.23502e-05
-3.30851e-05
5.68312e-05
-3.5468e-05
6.16821e-05
-3.76888e-05
6.68408e-05
-3.96543e-05
7.2231e-05
-4.1286e-05
7.7771e-05
-4.25297e-05
8.33813e-05
-4.33587e-05
8.89896e-05
-4.37713e-05
9.45333e-05
-4.37859e-05
9.99609e-05
-4.34349e-05
0.000105231
-4.2759e-05
0.000110314
-4.18034e-05
0.000115184
-4.06137e-05
0.000119828
-3.92339e-05
0.000124234
-3.77049e-05
0.000128398
-3.60637e-05
0.000132319
-3.43427e-05
0.000135996
-3.25703e-05
0.000139435
-3.07705e-05
0.00014264
-2.89637e-05
0.000145617
-2.71665e-05
0.000148375
-2.53927e-05
0.000150922
-2.36532e-05
0.000153265
-2.19567e-05
0.000155413
-2.03099e-05
0.000157374
-1.87178e-05
0.000159158
-1.7184e-05
0.000160773
-1.57109e-05
0.000162227
-1.43e-05
0.000163527
-1.29518e-05
0.000164682
-1.16663e-05
0.000165699
-1.04429e-05
0.000166586
-9.2807e-06
0.000167349
-8.1782e-06
0.000167994
-7.1338e-06
0.000168529
-6.1456e-06
0.000168959
-5.21155e-06
0.000169291
-4.32946e-06
0.000169529
-3.49705e-06
0.00016968
-2.71195e-06
0.000169748
-1.97175e-06
0.000169739
-1.27397e-06
0.000169657
-6.16169e-07
0.000169508
3.81644e-09
0.000169295
5.88651e-07
0.000169024
1.14119e-06
0.000168697
1.66387e-06
0.000168321
2.15895e-06
0.000167898
2.62857e-06
0.000167433
3.07472e-06
0.000166929
3.49926e-06
0.000166393
3.90384e-06
0.000165826
4.28993e-06
0.000165235
4.65881e-06
0.000164623
5.01155e-06
0.000163995
5.34898e-06
0.000163355
5.67173e-06
0.000162708
5.98022e-06
0.000162058
6.27463e-06
0.000161409
6.55494e-06
0.000160765
6.82098e-06
0.00016013
7.07239e-06
0.000159506
7.30872e-06
0.000158898
7.52943e-06
0.000158305
7.73397e-06
0.000157731
7.92182e-06
0.000157176
8.09252e-06
0.000156639
8.24575e-06
0.000156121
8.38138e-06
0.000155619
8.49951e-06
8.60085e-06
0.000155133
3.03668e-05
-4.88269e-06
3.12454e-05
-9.59707e-06
3.25275e-05
-1.35935e-05
3.41809e-05
-1.71082e-05
3.61907e-05
-2.02827e-05
3.85604e-05
-2.32336e-05
4.13154e-05
-2.608e-05
4.44989e-05
-2.89251e-05
4.81594e-05
-3.18308e-05
5.23323e-05
-3.47994e-05
5.70234e-05
-3.77714e-05
6.2201e-05
-4.06404e-05
6.77985e-05
-4.32808e-05
7.3725e-05
-4.55751e-05
7.98782e-05
-4.74332e-05
8.61561e-05
-4.88014e-05
9.24652e-05
-4.96613e-05
9.87244e-05
-5.0024e-05
0.000104867
-4.99221e-05
0.000110841
-4.9402e-05
0.000116606
-4.85175e-05
0.000122135
-4.73244e-05
0.000127406
-4.58777e-05
0.000132408
-4.42288e-05
0.000137134
-4.24244e-05
0.000141584
-4.05062e-05
0.000145758
-3.85101e-05
0.000149662
-3.64671e-05
0.000153302
-3.44032e-05
0.000156686
-3.23402e-05
0.000159822
-3.02956e-05
0.00016272
-2.82838e-05
0.00016539
-2.63162e-05
0.000167842
-2.44015e-05
0.000170085
-2.25465e-05
0.00017213
-2.07559e-05
0.000173986
-1.90333e-05
0.000175662
-1.73807e-05
0.000177168
-1.57993e-05
0.000178511
-1.42894e-05
0.000179702
-1.28507e-05
0.000180746
-1.14821e-05
0.000181653
-1.01823e-05
0.00018243
-8.94975e-06
0.000183084
-7.78231e-06
0.000183621
-6.67787e-06
0.000184048
-5.63407e-06
0.000184371
-4.64846e-06
0.000184596
-3.71852e-06
0.000184729
-2.84168e-06
0.000184776
-2.01532e-06
0.000184742
-1.23687e-06
0.000184632
-5.03754e-07
0.000184451
1.86825e-07
0.000184204
8.37536e-07
0.000183896
1.45116e-06
0.000183531
2.0303e-06
0.000183113
2.57731e-06
0.000182648
3.09437e-06
0.000182139
3.5835e-06
0.000181592
4.04655e-06
0.00018101
4.48517e-06
0.000180398
4.90086e-06
0.00017976
5.29488e-06