/*--------------------------------*- C++ -*----------------------------------*\
  =========                 |
  \\      /  F ield         | OpenFOAM: The Open Source CFD Toolbox
   \\    /   O peration     | Website:  https://openfoam.org
    \\  /    A nd           | Version:  7
     \\/     M anipulation  |
\*---------------------------------------------------------------------------*/
FoamFile
{
    version     2.0;
    format      ascii;
    class       volScalarField;
    location    "0.86";
    object      T;
}
// * * * * * * * * * * * * * * * * * * * * * * * * * * * * * * * * * * * * * //

dimensions      [0 0 0 1 0 0 0];

internalField   nonuniform List<scalar> 
12013
(
300.006
300.019
300.034
300.049
300.067
300.087
300.111
300.137
300.168
300.203
300.243
300.289
300.341
300.4
300.466
300.541
300.625
300.718
300.822
300.937
301.063
301.202
301.355
301.521
301.703
301.9
302.113
302.344
302.592
302.86
303.147
303.455
303.785
304.136
304.511
304.911
305.335
305.786
306.264
306.77
307.307
307.874
308.473
309.107
309.775
310.48
311.224
312.008
312.835
313.705
314.623
315.59
316.608
317.681
318.812
320.004
321.26
322.585
323.982
325.457
327.014
328.659
330.398
332.238
334.186
336.251
338.443
340.771
343.247
345.887
348.706
351.724
354.963
358.452
362.228
366.336
370.839
375.828
381.44
387.908
395.682
300.006
300.019
300.034
300.049
300.067
300.087
300.111
300.137
300.168
300.203
300.243
300.289
300.341
300.4
300.466
300.541
300.625
300.718
300.822
300.936
301.063
301.202
301.354
301.521
301.702
301.899
302.113
302.343
302.592
302.86
303.147
303.455
303.784
304.136
304.511
304.91
305.334
305.785
306.263
306.769
307.306
307.873
308.472
309.105
309.774
310.479
311.222
312.006
312.832
313.703
314.62
315.587
316.605
317.677
318.807
319.998
321.254
322.577
323.974
325.447
327.002
328.645
330.382
332.219
334.164
336.225
338.411
340.733
343.202
345.832
348.638
351.64
354.859
358.321
362.06
366.116
370.542
375.408
380.805
386.848
393.635
300.006
300.019
300.034
300.049
300.067
300.087
300.11
300.137
300.168
300.203
300.243
300.289
300.341
300.4
300.466
300.541
300.625
300.718
300.821
300.936
301.063
301.202
301.354
301.52
301.702
301.899
302.112
302.343
302.591
302.859
303.146
303.454
303.783
304.135
304.509
304.908
305.333
305.783
306.261
306.767
307.303
307.87
308.47
309.103
309.771
310.475
311.219
312.002
312.828
313.698
314.614
315.58
316.597
317.668
318.797
319.986
321.24
322.561
323.955
325.425
326.977
328.615
330.347
332.178
334.115
336.166
338.341
340.649
343.101
345.709
348.49
351.457
354.633
358.038
361.699
365.648
369.922
374.56
379.602
385.065
390.9
300.006
300.019
300.034
300.049
300.067
300.087
300.11
300.137
300.168
300.203
300.243
300.288
300.34
300.399
300.466
300.541
300.624
300.717
300.821
300.936
301.062
301.201
301.353
301.52
301.701
301.898
302.111
302.341
302.59
302.857
303.144
303.452
303.781
304.132
304.507
304.906
305.33
305.78
306.258
306.764
307.3
307.866
308.465
309.098
309.765
310.469
311.212
311.995
312.82
313.689
314.604
315.568
316.584
317.653
318.78
319.966
321.217
322.535
323.924
325.389
326.934
328.566
330.288
332.108
334.033
336.069
338.225
340.51
342.935
345.509
348.247
351.161
354.268
357.584
361.13
364.923
368.985
373.328
377.953
382.835
387.892
300.006
300.019
300.034
300.049
300.067
300.087
300.11
300.137
300.167
300.202
300.242
300.288
300.34
300.399
300.465
300.54
300.624
300.717
300.82
300.935
301.061
301.2
301.352
301.518
301.699
301.896
302.109
302.339
302.588
302.855
303.142
303.449
303.778
304.129
304.504
304.902
305.326
305.776
306.253
306.759
307.294
307.86
308.459
309.091
309.757
310.461
311.202
311.984
312.808
313.675
314.589
315.551
316.564
317.63
318.754
319.936
321.182
322.495
323.877
325.335
326.871
328.491
330.201
332.006
333.912
335.926
338.056
340.309
342.694
345.22
347.898
350.739
353.753
356.952
360.347
363.947
367.757
371.773
375.976
380.326
384.752
300.006
300.019
300.033
300.049
300.067
300.087
300.11
300.137
300.167
300.202
300.242
300.288
300.34
300.398
300.465
300.539
300.623
300.716
300.819
300.934
301.06
301.198
301.35
301.517
301.697
301.894
302.107
302.337
302.585
302.852
303.138
303.446
303.774
304.125
304.499
304.897
305.321
305.77
306.247
306.752
307.287
307.852
308.449
309.08
309.746
310.448
311.189
311.969
312.79
313.656
314.567
315.526
316.536
317.598
318.717
319.894
321.134
322.438
323.812
325.259
326.783
328.389
330.081
331.865
333.746
335.731
337.825
340.035
342.368
344.832
347.434
350.181
353.08
356.137
359.357
362.738
366.276
369.959
373.759
377.639
381.54
300.006
300.019
300.033
300.049
300.067
300.087
300.11
300.136
300.167
300.202
300.242
300.287
300.339
300.398
300.464
300.538
300.622
300.715
300.818
300.932
301.058
301.197
301.348
301.514
301.695
301.891
302.104
302.333
302.581
302.848
303.134
303.441
303.769
304.119
304.493
304.89
305.313
305.762
306.238
306.742
307.276
307.841
308.437
309.067
309.731
310.431
311.17
311.948
312.767
313.629
314.537
315.493
316.498
317.555
318.667
319.837
321.068
322.363
323.725
325.158
326.665
328.252
329.921
331.679
333.528
335.475
337.524
339.681
341.95
344.338
346.847
349.484
352.25
355.146
358.171
361.32
364.582
367.94
371.369
374.833
378.29
300.006
300.019
300.033
300.049
300.067
300.087
300.11
300.136
300.166
300.201
300.241
300.287
300.338
300.397
300.463
300.537
300.62
300.713
300.816
300.93
301.056
301.194
301.346
301.511
301.691
301.887
302.099
302.329
302.576
302.842
303.128
303.434
303.762
304.111
304.484
304.881
305.303
305.751
306.226
306.73
307.262
307.825
308.42
309.048
309.711
310.409
311.145
311.92
312.736
313.595
314.498
315.448
316.447
317.498
318.602
319.762
320.982
322.264
323.611
325.026
326.513
328.076
329.717
331.441
333.251
335.152
337.146
339.239
341.433
343.731
346.135
348.646
351.264
353.987
356.809
359.722
362.713
365.764
368.852
371.949
375.023
300.006
300.019
300.033
300.049
300.066
300.086
300.109
300.136
300.166
300.201
300.24
300.286
300.337
300.396
300.462
300.536
300.619
300.711
300.814
300.928
301.053
301.191
301.342
301.507
301.687
301.882
302.094
302.323
302.57
302.835
303.12
303.426
303.753
304.101
304.473
304.869
305.29
305.737
306.211
306.713
307.244
307.805
308.398
309.024
309.684
310.38
311.112
311.884
312.695
313.549
314.447
315.391
316.382
317.424
318.518
319.666
320.872
322.138
323.466
324.86
326.322
327.854
329.461
331.145
332.909
334.755
336.686
338.704
340.812
343.009
345.296
347.671
350.132
352.675
355.291
357.971
360.701
363.466
366.246
369.017
371.756
300.006
300.019
300.033
300.049
300.066
300.086
300.109
300.135
300.165
300.2
300.24
300.285
300.336
300.394
300.46
300.534
300.617
300.709
300.811
300.924
301.05
301.187
301.338
301.502
301.682
301.876
302.087
302.316
302.562
302.826
303.111
303.415
303.741
304.089
304.46
304.854
305.274
305.719
306.192
306.692
307.221
307.78
308.371
308.993
309.65
310.342
311.071
311.837
312.644
313.491
314.382
315.317
316.299
317.33
318.411
319.545
320.734
321.98
323.286
324.654
326.085
327.583
329.149
330.786
332.495
334.279
336.138
338.073
340.084
342.172
344.333
346.565
348.865
351.224
353.637
356.092
358.577
361.078
363.578
366.059
368.504
300.006
300.019
300.033
300.048
300.066
300.086
300.109
300.135
300.165
300.199
300.239
300.284
300.335
300.393
300.458
300.532
300.614
300.706
300.808
300.921
301.045
301.182
301.332
301.496
301.675
301.869
302.079
302.306
302.552
302.815
303.098
303.402
303.727
304.073
304.443
304.836
305.254
305.697
306.167
306.665
307.192
307.748
308.335
308.955
309.607
310.295
311.018
311.779
312.578
313.418
314.3
315.225
316.195
317.213
318.279
319.395
320.564
321.786
323.065
324.402
325.798
327.255
328.774
330.358
332.006
333.719
335.498
337.343
339.251
341.222
343.252
345.338
347.474
349.653
351.868
354.109
356.365
358.623
360.871
363.094
365.277
300.006
300.019
300.033
300.048
300.066
300.085
300.108
300.134
300.164
300.198
300.237
300.282
300.333
300.391
300.456
300.529
300.611
300.702
300.804
300.916
301.04
301.176
301.325
301.489
301.666
301.86
302.069
302.295
302.539
302.802
303.084
303.386
303.709
304.053
304.421
304.812
305.228
305.669
306.137
306.632
307.155
307.708
308.291
308.906
309.554
310.235
310.952
311.705
312.497
313.327
314.198
315.111
316.067
317.068
318.116
319.211
320.356
321.551
322.799
324.1
325.455
326.866
328.333
329.856
331.437
333.074
334.767
336.515
338.315
340.165
342.061
344
345.974
347.978
350.004
352.043
354.087
356.123
358.143
360.134
362.087
300.006
300.019
300.033
300.048
300.065
300.085
300.107
300.133
300.163
300.197
300.236
300.28
300.331
300.388
300.453
300.525
300.607
300.698
300.799
300.91
301.033
301.169
301.317
301.48
301.656
301.848
302.056
302.281
302.524
302.785
303.065
303.365
303.687
304.029
304.395
304.783
305.196
305.635
306.099
306.59
307.11
307.658
308.236
308.845
309.487
310.161
310.87
311.615
312.396
313.215
314.073
314.971
315.91
316.893
317.919
318.989
320.106
321.27
322.482
323.742
325.052
326.411
327.82
329.278
330.786
332.341
333.943
335.59
337.279
339.006
340.769
342.561
344.378
346.214
348.062
349.913
351.76
353.595
355.409
357.194
358.939
300.006
300.019
300.032
300.047
300.065
300.084
300.106
300.132
300.161
300.195
300.234
300.278
300.328
300.385
300.449
300.521
300.602
300.692
300.792
300.903
301.026
301.16
301.307
301.469
301.644
301.835
302.041
302.265
302.506
302.765
303.043
303.341
303.66
304
304.362
304.748
305.158
305.592
306.052
306.539
307.054
307.596
308.169
308.771
309.405
310.071
310.77
311.504
312.273
313.078
313.921
314.801
315.721
316.681
317.682
318.725
319.81
320.938
322.11
323.325
324.584
325.887
327.233
328.622
330.052
331.521
333.029
334.572
336.148
337.753
339.384
341.034
342.701
344.377
346.057
347.734
349.402
351.053
352.681
354.28
355.841
300.006
300.018
300.032
300.047
300.064
300.083
300.105
300.131
300.16
300.193
300.232
300.275
300.325
300.382
300.445
300.517
300.597
300.686
300.785
300.895
301.016
301.15
301.296
301.455
301.629
301.818
302.023
302.245
302.483
302.74
303.016
303.311
303.627
303.964
304.323
304.705
305.111
305.541
305.996
306.477
306.986
307.522
308.086
308.681
309.305
309.961
310.649
311.37
312.124
312.913
313.738
314.598
315.495
316.43
317.403
318.413
319.463
320.551
321.679
322.845
324.049
325.291
326.57
327.885
329.234
330.616
332.027
333.466
334.93
336.414
337.916
339.43
340.953
342.478
344.002
345.519
347.022
348.507
349.968
351.4
352.797
300.006
300.018
300.032
300.047
300.063
300.082
300.104
300.129
300.158
300.191
300.229
300.272
300.322
300.377
300.44
300.511
300.59
300.678
300.777
300.885
301.005
301.137
301.282
301.44
301.612
301.799
302.001
302.22
302.457
302.711
302.983
303.276
303.588
303.921
304.276
304.653
305.054
305.478
305.927
306.402
306.903
307.431
307.987
308.571
309.185
309.828
310.503
311.208
311.946
312.717
313.52
314.357
315.229
316.134
317.075
318.05
319.06
320.105
321.184
322.297
323.443
324.621
325.83
327.069
328.335
329.627
330.942
332.277
333.63
334.997
336.374
337.759
339.145
340.531
341.91
343.278
344.632
345.966
347.276
348.558
349.807
300.006
300.018
300.031
300.046
300.062
300.081
300.103
300.128
300.156
300.189
300.226
300.269
300.317
300.372
300.434
300.504
300.582
300.669
300.766
300.874
300.992
301.122
301.265
301.421
301.591
301.775
301.976
302.192
302.425
302.676
302.945
303.233
303.541
303.869
304.219
304.591
304.985
305.403
305.845
306.312
306.804
307.322
307.868
308.44
309.041
309.67
310.329
311.017
311.735
312.484
313.264
314.075
314.917
315.79
316.695
317.632
318.599
319.596
320.624
321.68
322.765
323.876
325.013
326.173
327.355
328.557
329.776
331.009
332.254
333.508
334.767
336.028
337.288
338.542
339.788
341.021
342.238
343.435
344.608
345.756
346.873
300.006
300.018
300.031
300.045
300.061
300.08
300.101
300.126
300.154
300.186
300.222
300.264
300.312
300.366
300.428
300.496
300.573
300.659
300.754
300.86
300.977
301.105
301.245
301.399
301.566
301.748
301.945
302.158
302.387
302.634
302.899
303.182
303.485
303.808
304.151
304.517
304.904
305.314
305.747
306.204
306.686
307.193
307.726
308.284
308.87
309.483
310.123
310.791
311.487
312.211
312.964
313.746
314.555
315.394
316.26
317.154
318.075
319.022
319.995
320.992
322.012
323.055
324.118
325.199
326.297
327.409
328.534
329.668
330.809
331.955
333.102
334.247
335.388
336.521
337.643
338.752
339.844
340.917
341.968
342.994
343.993
300.006
300.017
300.03
300.044
300.06
300.078
300.099
300.123
300.151
300.182
300.218
300.26
300.306
300.36
300.42
300.487
300.563
300.647
300.74
300.844
300.959
301.084
301.222
301.373
301.537
301.716
301.909
302.118
302.343
302.585
302.844
303.122
303.419
303.735
304.071
304.429
304.807
305.208
305.631
306.077
306.547
307.04
307.558
308.101
308.669
309.263
309.882
310.527
311.198
311.895
312.618
313.367
314.141
314.941
315.765
316.613
317.485
318.379
319.295
320.231
321.186
322.158
323.146
324.149
325.163
326.188
327.22
328.259
329.3
330.343
331.384
332.42
333.45
334.471
335.48
336.475
337.454
338.414
339.353
340.27
341.162
300.006
300.017
300.029
300.043
300.059
300.077
300.097
300.12
300.147
300.178
300.213
300.254
300.3
300.352
300.41
300.476
300.55
300.633
300.724
300.826
300.938
301.061
301.196
301.343
301.504
301.678
301.867
302.071
302.291
302.527
302.781
303.052
303.341
303.65
303.978
304.325
304.694
305.083
305.495
305.928
306.383
306.861
307.362
307.887
308.435
309.007
309.602
310.222
310.865
311.532
312.222
312.935
313.671
314.429
315.208
316.008
316.828
317.667
318.524
319.397
320.285
321.186
322.1
323.024
323.957
324.896
325.839
326.785
327.732
328.677
329.618
330.553
331.48
332.397
333.302
334.193
335.068
335.925
336.763
337.58
338.375
300.005
300.017
300.029
300.042
300.057
300.075
300.095
300.117
300.144
300.174
300.208
300.247
300.292
300.343
300.4
300.464
300.536
300.616
300.706
300.804
300.913
301.033
301.165
301.308
301.464
301.634
301.818
302.017
302.23
302.46
302.706
302.97
303.251
303.55
303.868
304.205
304.562
304.939
305.336
305.754
306.193
306.653
307.135
307.639
308.165
308.712
309.281
309.872
310.484
311.118
311.772
312.447
313.142
313.855
314.587
315.337
316.103
316.885
317.681
318.49
319.311
320.142
320.981
321.828
322.68
323.536
324.394
325.252
326.108
326.961
327.808
328.648
329.479
330.3
331.109
331.904
332.685
333.448
334.194
334.921
335.628
300.005
300.016
300.028
300.041
300.056
300.072
300.092
300.114
300.139
300.168
300.202
300.24
300.283
300.332
300.388
300.45
300.52
300.598
300.684
300.78
300.886
301.002
301.129
301.268
301.419
301.584
301.762
301.954
302.161
302.383
302.621
302.875
303.146
303.435
303.741
304.066
304.409
304.771
305.153
305.554
305.974
306.415
306.875
307.355
307.856
308.376
308.916
309.476
310.054
310.652
311.268
311.901
312.552
313.219
313.901
314.598
315.309
316.032
316.767
317.511
318.265
319.025
319.792
320.563
321.338
322.113
322.889
323.662
324.433
325.198
325.957
326.709
327.451
328.183
328.903
329.611
330.304
330.981
331.643
332.288
332.914
300.005
300.015
300.027
300.039
300.054
300.07
300.088
300.11
300.134
300.162
300.195
300.231
300.273
300.32
300.374
300.434
300.501
300.576
300.66
300.752
300.854
300.966
301.088
301.222
301.368
301.526
301.697
301.882
302.081
302.294
302.523
302.767
303.027
303.303
303.596
303.907
304.235
304.58
304.944
305.325
305.725
306.143
306.579
307.034
307.506
307.997
308.505
309.031
309.573
310.132
310.707
311.297
311.901
312.52
313.151
313.794
314.448
315.111
315.784
316.464
317.15
317.841
318.537
319.234
319.932
320.63
321.327
322.02
322.709
323.393
324.069
324.738
325.397
326.047
326.685
327.311
327.924
328.523
329.107
329.676
330.229
300.005
300.015
300.026
300.038
300.051
300.067
300.085
300.105
300.129
300.156
300.186
300.222
300.262
300.307
300.358
300.416
300.48
300.552
300.632
300.72
300.818
300.925
301.042
301.17
301.31
301.461
301.624
301.8
301.99
302.194
302.411
302.643
302.891
303.153
303.432
303.726
304.037
304.364
304.707
305.067
305.444
305.837
306.247
306.673
307.116
307.574
308.048
308.537
309.041
309.559
310.09
310.634
311.191
311.759
312.337
312.925
313.521
314.125
314.735
315.351
315.971
316.594
317.219
317.845
318.47
319.094
319.715
320.331
320.943
321.549
322.148
322.739
323.322
323.895
324.457
325.008
325.547
326.073
326.586
327.085
327.571
300.005
300.014
300.025
300.036
300.049
300.064
300.081
300.1
300.122
300.148
300.177
300.211
300.249
300.292
300.341
300.396
300.457
300.525
300.601
300.685
300.778
300.879
300.991
301.112
301.244
301.387
301.542
301.709
301.888
302.08
302.286
302.505
302.738
302.985
303.247
303.524
303.815
304.121
304.443
304.779
305.131
305.497
305.878
306.274
306.683
307.107
307.545
307.995
308.458
308.933
309.42
309.917
310.424
310.94
311.464
311.996
312.535
313.079
313.627
314.179
314.734
315.29
315.847
316.403
316.958
317.51
318.059
318.603
319.142
319.675
320.202
320.72
321.231
321.732
322.224
322.705
323.175
323.634
324.082
324.517
324.94
300.004
300.013
300.023
300.034
300.046
300.06
300.076
300.095
300.116
300.14
300.168
300.199
300.235
300.276
300.322
300.373
300.431
300.495
300.567
300.646
300.733
300.828
300.933
301.047
301.171
301.306
301.451
301.607
301.775
301.955
302.147
302.351
302.569
302.799
303.043
303.3
303.57
303.854
304.151
304.462
304.786
305.123
305.474
305.836
306.212
306.599
306.998
307.408
307.829
308.259
308.699
309.148
309.605
310.068
310.539
311.014
311.495
311.98
312.467
312.957
313.448
313.939
314.43
314.919
315.406
315.89
316.37
316.846
317.317
317.781
318.239
318.69
319.134
319.568
319.994
320.411
320.818
321.215
321.602
321.978
322.343
300.004
300.012
300.022
300.032
300.043
300.056
300.071
300.088
300.108
300.131
300.157
300.186
300.22
300.258
300.301
300.349
300.403
300.463
300.529
300.603
300.684
300.773
300.87
300.976
301.091
301.216
301.35
301.495
301.651
301.817
301.994
302.183
302.383
302.595
302.819
303.055
303.303
303.562
303.834
304.117
304.412
304.719
305.037
305.365
305.704
306.054
306.413
306.781
307.158
307.543
307.936
308.336
308.741
309.153
309.569
309.989
310.413
310.839
311.267
311.696
312.125
312.553
312.981
313.406
313.828
314.248
314.663
315.075
315.481
315.881
316.276
316.663
317.044
317.417
317.783
318.14
318.488
318.828
319.158
319.48
319.792
300.004
300.012
300.02
300.029
300.04
300.052
300.066
300.082
300.1
300.121
300.145
300.172
300.203
300.238
300.278
300.322
300.372
300.427
300.488
300.556
300.63
300.712
300.802
300.899
301.004
301.119
301.242
301.374
301.516
301.668
301.829
302.001
302.183
302.375
302.578
302.791
303.015
303.249
303.494
303.749
304.013
304.288
304.572
304.865
305.167
305.477
305.796
306.122
306.455
306.794
307.139
307.49
307.845
308.205
308.568
308.933
309.301
309.67
310.04
310.411
310.781
311.149
311.516
311.881
312.243
312.601
312.956
313.307
313.653
313.994
314.329
314.658
314.981
315.297
315.607
315.909
316.203
316.49
316.769
317.041
317.304
300.003
300.011
300.018
300.027
300.037
300.048
300.06
300.075
300.091
300.11
300.132
300.157
300.185
300.217
300.253
300.294
300.339
300.389
300.445
300.506
300.574
300.648
300.728
300.816
300.912
301.015
301.126
301.245
301.373
301.509
301.654
301.807
301.97
302.142
302.323
302.513
302.712
302.919
303.136
303.361
303.595
303.836
304.086
304.343
304.607
304.879
305.156
305.44
305.729
306.023
306.321
306.624
306.93
307.239
307.55
307.863
308.177
308.492
308.807
309.121
309.435
309.747
310.057
310.366
310.671
310.973
311.272
311.566
311.857
312.142
312.423
312.698
312.968
313.232
313.49
313.741
313.987
314.226
314.458
314.683
314.902
300.003
300.01
300.017
300.024
300.033
300.043
300.054
300.067
300.082
300.099
300.119
300.141
300.167
300.195
300.228
300.264
300.304
300.349
300.399
300.454
300.514
300.58
300.652
300.73
300.815
300.906
301.004
301.11
301.223
301.343
301.47
301.606
301.749
301.899
302.058
302.224
302.397
302.578
302.766
302.962
303.164
303.373
303.588
303.809
304.036
304.269
304.506
304.748
304.994
305.244
305.497
305.754
306.012
306.273
306.535
306.798
307.061
307.325
307.588
307.85
308.111
308.371
308.629
308.885
309.138
309.388
309.635
309.878
310.118
310.353
310.584
310.81
311.031
311.248
311.459
311.665
311.866
312.061
312.251
312.435
312.614
300.003
300.008
300.015
300.022
300.029
300.038
300.048
300.06
300.073
300.088
300.105
300.125
300.147
300.173
300.201
300.233
300.268
300.308
300.351
300.399
300.452
300.51
300.573
300.641
300.715
300.794
300.88
300.971
301.069
301.173
301.283
301.399
301.523
301.652
301.788
301.93
302.078
302.232
302.392
302.558
302.73
302.906
303.088
303.274
303.465
303.66
303.859
304.061
304.267
304.475
304.685
304.897
305.111
305.326
305.542
305.759
305.975
306.191
306.407
306.621
306.835
307.047
307.257
307.465
307.671
307.873
308.073
308.27
308.464
308.654
308.84
309.022
309.2
309.375
309.544
309.71
309.871
310.028
310.18
310.327
310.47
300.002
300.007
300.013
300.019
300.025
300.033
300.042
300.052
300.063
300.076
300.091
300.108
300.128
300.15
300.174
300.201
300.232
300.266
300.303
300.345
300.39
300.439
300.493
300.551
300.614
300.682
300.754
300.832
300.914
301.002
301.095
301.194
301.297
301.406
301.519
301.638
301.762
301.89
302.023
302.161
302.303
302.449
302.599
302.752
302.909
303.068
303.231
303.396
303.563
303.732
303.903
304.075
304.248
304.421
304.595
304.769
304.943
305.116
305.289
305.46
305.631
305.8
305.967
306.133
306.296
306.457
306.615
306.771
306.924
307.074
307.221
307.364
307.505
307.642
307.775
307.905
308.031
308.154
308.273
308.389
308.501
300.002
300.006
300.011
300.016
300.022
300.028
300.036
300.044
300.054
300.065
300.078
300.092
300.108
300.127
300.147
300.17
300.196
300.225
300.256
300.29
300.328
300.37
300.414
300.463
300.515
300.571
300.631
300.695
300.764
300.836
300.913
300.993
301.078
301.167
301.26
301.356
301.457
301.561
301.669
301.78
301.894
302.012
302.132
302.255
302.38
302.507
302.637
302.768
302.901
303.034
303.169
303.305
303.441
303.577
303.714
303.85
303.986
304.122
304.257
304.391
304.523
304.655
304.785
304.913
305.039
305.164
305.286
305.406
305.524
305.639
305.752
305.863
305.97
306.075
306.178
306.277
306.374
306.468
306.559
306.647
306.733
300.002
300.005
300.009
300.013
300.018
300.023
300.03
300.037
300.045
300.054
300.064
300.076
300.09
300.105
300.122
300.141
300.162
300.185
300.21
300.239
300.269
300.303
300.339
300.378
300.421
300.466
300.514
300.566
300.621
300.679
300.74
300.804
300.872
300.942
301.016
301.092
301.171
301.253
301.338
301.425
301.515
301.606
301.7
301.796
301.893
301.992
302.092
302.193
302.295
302.398
302.502
302.606
302.71
302.814
302.918
303.022
303.126
303.229
303.331
303.433
303.533
303.632
303.73
303.827
303.922
304.016
304.107
304.198
304.286
304.372
304.457
304.539
304.619
304.698
304.774
304.848
304.92
304.99
305.058
305.123
305.187
300.001
300.004
300.007
300.011
300.015
300.019
300.024
300.03
300.036
300.043
300.052
300.061
300.072
300.084
300.098
300.113
300.129
300.148
300.168
300.19
300.215
300.241
300.269
300.3
300.333
300.369
300.407
300.447
300.489
300.534
300.581
300.631
300.683
300.737
300.794
300.852
300.913
300.976
301.04
301.106
301.174
301.243
301.314
301.386
301.459
301.533
301.608
301.684
301.76
301.837
301.914
301.991
302.068
302.146
302.223
302.3
302.376
302.452
302.527
302.601
302.675
302.748
302.819
302.89
302.959
303.027
303.094
303.16
303.224
303.286
303.347
303.407
303.465
303.522
303.577
303.63
303.682
303.733
303.782
303.829
303.874
300.001
300.003
300.006
300.008
300.011
300.015
300.019
300.023
300.028
300.034
300.04
300.048
300.056
300.065
300.076
300.087
300.1
300.114
300.13
300.147
300.165
300.185
300.207
300.231
300.256
300.282
300.311
300.341
300.373
300.407
300.442
300.479
300.518
300.558
300.6
300.643
300.688
300.734
300.781
300.829
300.879
300.93
300.981
301.034
301.087
301.14
301.195
301.249
301.304
301.359
301.415
301.47
301.526
301.581
301.636
301.691
301.745
301.799
301.852
301.905
301.957
302.009
302.059
302.109
302.158
302.206
302.253
302.299
302.344
302.388
302.43
302.472
302.513
302.552
302.591
302.628
302.664
302.7
302.734
302.766
302.798
300.001
300.003
300.004
300.006
300.009
300.011
300.014
300.017
300.021
300.026
300.03
300.036
300.042
300.049
300.057
300.065
300.075
300.086
300.097
300.11
300.123
300.138
300.154
300.171
300.189
300.209
300.229
300.251
300.274
300.298
300.324
300.351
300.378
300.407
300.437
300.468
300.499
300.532
300.565
300.6
300.635
300.67
300.706
300.743
300.78
300.818
300.856
300.894
300.932
300.97
301.009
301.047
301.085
301.123
301.161
301.199
301.236
301.273
301.309
301.345
301.381
301.416
301.45
301.484
301.517
301.55
301.582
301.613
301.643
301.673
301.702
301.73
301.757
301.784
301.81
301.835
301.859
301.883
301.906
301.928
301.949
300.001
300.002
300.003
300.005
300.006
300.008
300.01
300.013
300.016
300.019
300.022
300.026
300.031
300.036
300.041
300.048
300.054
300.062
300.07
300.079
300.089
300.099
300.11
300.122
300.135
300.149
300.163
300.179
300.195
300.212
300.229
300.248
300.267
300.287
300.307
300.328
300.35
300.372
300.395
300.418
300.442
300.466
300.491
300.516
300.541
300.566
300.591
300.617
300.642
300.668
300.694
300.719
300.745
300.77
300.795
300.82
300.844
300.869
300.893
300.917
300.94
300.963
300.986
301.008
301.029
301.051
301.071
301.092
301.112
301.131
301.15
301.168
301.186
301.203
301.22
301.236
301.252
301.267
301.282
301.296
301.31
300
300.001
300.002
300.003
300.005
300.006
300.007
300.009
300.011
300.013
300.016
300.019
300.022
300.025
300.029
300.034
300.038
300.044
300.049
300.056
300.062
300.07
300.077
300.086
300.094
300.104
300.114
300.124
300.135
300.146
300.158
300.171
300.184
300.197
300.211
300.225
300.239
300.254
300.269
300.285
300.3
300.316
300.332
300.349
300.365
300.382
300.398
300.415
300.431
300.448
300.465
300.481
300.498
300.514
300.53
300.546
300.562
300.578
300.593
300.608
300.623
300.638
300.652
300.666
300.68
300.694
300.707
300.72
300.732
300.745
300.756
300.768
300.779
300.79
300.801
300.811
300.821
300.831
300.84
300.849
300.858
300
300.001
300.002
300.002
300.003
300.004
300.005
300.007
300.008
300.01
300.012
300.014
300.016
300.018
300.021
300.024
300.028
300.031
300.035
300.04
300.044
300.049
300.055
300.061
300.067
300.073
300.08
300.087
300.095
300.103
300.111
300.119
300.128
300.137
300.146
300.156
300.166
300.176
300.186
300.196
300.206
300.217
300.228
300.239
300.249
300.26
300.271
300.282
300.293
300.304
300.315
300.326
300.337
300.347
300.358
300.368
300.378
300.388
300.398
300.408
300.418
300.427
300.437
300.446
300.454
300.463
300.472
300.48
300.488
300.496
300.503
300.511
300.518
300.525
300.532
300.538
300.545
300.551
300.557
300.563
300.568
300
300.001
300.001
300.002
300.003
300.003
300.004
300.005
300.006
300.008
300.009
300.011
300.013
300.015
300.017
300.019
300.022
300.025
300.028
300.031
300.035
300.039
300.043
300.048
300.052
300.057
300.063
300.068
300.074
300.08
300.086
300.093
300.099
300.106
300.113
300.12
300.128
300.135
300.143
300.151
300.159
300.166
300.174
300.183
300.191
300.199
300.207
300.215
300.223
300.231
300.239
300.247
300.255
300.263
300.27
300.278
300.286
300.293
300.3
300.307
300.314
300.321
300.328
300.335
300.341
300.347
300.353
300.359
300.365
300.371
300.376
300.382
300.387
300.392
300.397
300.402
300.406
300.411
300.415
300.419
300.423
405.918
413.807
420.334
425.916
430.758
434.97
438.614
441.723
444.311
446.379
447.915
448.899
449.298
449.067
448.145
446.45
443.861
440.194
435.134
428.038
417.283
409.577
403.374
398.07
393.377
389.131
385.231
381.609
378.217
375.02
371.992
369.112
366.365
363.738
361.222
358.808
356.489
354.261
352.118
350.056
348.071
346.161
344.322
342.551
340.845
339.203
337.622
336.098
334.631
333.218
331.856
330.544
329.28
328.062
326.889
325.757
324.667
323.615
322.602
321.625
320.682
319.774
318.898
318.053
317.238
316.453
315.696
314.966
314.262
313.584
312.931
312.301
311.695
311.111
310.55
310.009
309.489
308.989
308.508
308.047
307.604
307.179
306.772
306.381
306.007
305.65
305.308
304.981
304.669
304.372
304.089
303.819
303.563
303.319
303.089
302.87
302.663
302.467
302.282
302.108
301.944
301.79
301.646
301.51
301.383
301.265
301.154
301.051
300.956
300.867
300.785
300.709
300.64
300.575
300.516
300.462
300.413
300.368
300.327
300.29
300.256
300.226
300.199
300.174
300.153
300.133
300.116
300.1
300.087
300.075
300.064
300.055
300.047
300.04
300.034
300.028
300.024
300.02
300.017
300.014
300.011
300.009
300.008
300.006
300.005
300.004
300.003
300.002
300.002
300.001
300.001
300.001
300.001
300
300
300
300
300
300
300
300
401.134
407.999
414.075
419.427
424.139
428.272
431.866
434.944
437.515
439.575
441.113
442.105
442.521
442.318
441.438
439.806
437.319
433.833
429.147
423.01
415.399
408.657
402.828
397.704
393.112
388.928
385.071
381.479
378.109
374.928
371.913
369.043
366.304
363.684
361.173
358.764
356.449
354.224
352.084
350.025
348.043
346.135
344.298
342.529
340.825
339.184
337.604
336.082
334.616
333.204
331.844
330.533
329.27
328.053
326.88
325.749
324.659
323.608
322.595
321.619
320.677
319.769
318.893
318.049
317.235
316.45
315.693
314.963
314.26
313.582
312.929
312.3
311.694
311.11
310.548
310.008
309.488
308.988
308.508
308.046
307.604
307.179
306.771
306.381
306.007
305.649
305.307
304.981
304.669
304.372
304.089
303.819
303.563
303.32
303.089
302.87
302.663
302.467
302.283
302.108
301.945
301.79
301.646
301.51
301.383
301.265
301.154
301.052
300.956
300.867
300.785
300.71
300.64
300.575
300.516
300.462
300.413
300.368
300.327
300.29
300.256
300.226
300.199
300.174
300.153
300.133
300.116
300.1
300.087
300.075
300.064
300.055
300.047
300.04
300.034
300.028
300.024
300.02
300.017
300.014
300.011
300.009
300.008
300.006
300.005
300.004
300.003
300.002
300.002
300.001
300.001
300.001
300.001
300
300
300
300
300
300
300
300
396.972
402.855
408.319
413.289
417.754
421.725
425.212
428.219
430.747
432.785
434.32
435.327
435.776
435.627
434.831
433.326
431.034
427.867
423.736
418.613
412.737
407.02
401.752
396.948
392.551
388.496
384.727
381.198
377.876
374.731
371.744
368.897
366.176
363.571
361.072
358.673
356.368
354.15
352.017
349.964
347.987
346.084
344.251
342.486
340.786
339.149
337.572
336.052
334.589
333.179
331.821
330.512
329.251
328.035
326.864
325.735
324.646
323.597
322.585
321.609
320.668
319.761
318.886
318.042
317.229
316.445
315.688
314.959
314.256
313.579
312.926
312.297
311.691
311.108
310.546
310.006
309.487
308.987
308.507