/*--------------------------------*- C++ -*----------------------------------*\
  =========                 |
  \\      /  F ield         | OpenFOAM: The Open Source CFD Toolbox
   \\    /   O peration     | Website:  https://openfoam.org
    \\  /    A nd           | Version:  7
     \\/     M anipulation  |
\*---------------------------------------------------------------------------*/
FoamFile
{
    version     2.0;
    format      ascii;
    class       volScalarField;
    location    "3.67";
    object      T;
}
// * * * * * * * * * * * * * * * * * * * * * * * * * * * * * * * * * * * * * //

dimensions      [0 0 0 1 0 0 0];

internalField   nonuniform List<scalar> 
12013
(
300.032
300.096
300.163
300.232
300.303
300.376
300.45
300.526
300.603
300.682
300.763
300.845
300.928
301.013
301.099
301.187
301.277
301.369
301.462
301.557
301.654
301.754
301.856
301.96
302.067
302.178
302.292
302.41
302.532
302.659
302.79
302.928
303.072
303.223
303.381
303.548
303.724
303.911
304.108
304.319
304.543
304.782
305.037
305.311
305.604
305.92
306.259
306.624
307.017
307.441
307.899
308.394
308.929
309.507
310.133
310.81
311.543
312.337
313.197
314.128
315.138
316.233
317.42
318.708
320.106
321.624
323.273
325.065
327.016
329.141
331.46
333.993
336.769
339.818
343.18
346.907
351.065
355.75
361.106
367.375
375.018
300.032
300.096
300.163
300.232
300.303
300.376
300.45
300.526
300.603
300.682
300.763
300.845
300.928
301.013
301.1
301.188
301.278
301.369
301.462
301.557
301.655
301.754
301.856
301.961
302.068
302.179
302.293
302.411
302.533
302.659
302.791
302.929
303.073
303.223
303.382
303.549
303.725
303.911
304.109
304.319
304.543
304.782
305.038
305.311
305.605
305.92
306.259
306.624
307.017
307.441
307.899
308.393
308.927
309.505
310.13
310.807
311.539
312.332
313.191
314.121
315.13
316.223
317.408
318.693
320.088
321.602
323.246
325.033
326.976
329.092
331.399
333.919
336.675
339.698
343.025
346.701
350.784
355.349
360.494
366.342
373.001
300.032
300.096
300.163
300.232
300.303
300.376
300.45
300.526
300.604
300.683
300.763
300.845
300.929
301.014
301.101
301.189
301.278
301.37
301.463
301.559
301.656
301.755
301.857
301.962
302.069
302.18
302.294
302.412
302.534
302.661
302.793
302.93
303.074
303.225
303.383
303.55
303.726
303.913
304.111
304.321
304.545
304.783
305.039
305.312
305.605
305.92
306.259
306.623
307.016
307.44
307.897
308.39
308.924
309.501
310.125
310.8
311.53
312.321
313.178
314.105
315.111
316.2
317.38
318.66
320.047
321.553
323.187
324.961
326.889
328.985
331.268
333.755
336.471
339.44
342.693
346.266
350.201
354.543
359.338
364.611
370.324
300.032
300.097
300.164
300.233
300.304
300.376
300.451
300.527
300.604
300.684
300.764
300.846
300.93
301.015
301.102
301.19
301.28
301.372
301.465
301.56
301.658
301.757
301.859
301.964
302.072
302.182
302.297
302.414
302.537
302.663
302.795
302.933
303.077
303.228
303.386
303.553
303.729
303.915
304.113
304.323
304.547
304.785
305.041
305.314
305.607
305.921
306.259
306.623
307.015
307.438
307.894
308.386
308.918
309.493
310.115
310.788
311.516
312.303
313.156
314.079
315.079
316.161
317.334
318.604
319.981
321.472
323.089
324.843
326.746
328.811
331.054
333.491
336.142
339.027
342.17
345.593
349.322
353.376
357.762
362.46
367.397
300.032
300.097
300.164
300.233
300.304
300.377
300.451
300.528
300.605
300.685
300.765
300.848
300.932
301.017
301.104
301.192
301.282
301.374
301.467
301.563
301.66
301.76
301.862
301.967
302.075
302.186
302.3
302.418
302.54
302.667
302.799
302.937
303.081
303.232
303.39
303.557
303.733
303.919
304.117
304.326
304.55
304.788
305.043
305.316
305.608
305.922
306.259
306.622
307.013
307.434
307.889
308.38
308.91
309.482
310.101
310.771
311.494
312.277
313.124
314.041
315.032
316.105
317.267
318.523
319.883
321.355
322.948
324.673
326.539
328.56
330.748
333.117
335.68
338.455
341.454
344.691
348.176
351.911
355.882
360.054
364.362
300.032
300.097
300.164
300.233
300.305
300.378
300.452
300.529
300.607
300.686
300.767
300.85
300.934
301.019
301.106
301.195
301.285
301.377
301.471
301.567
301.664
301.764
301.867
301.972
302.08
302.191
302.305
302.423
302.546
302.673
302.805
302.942
303.086
303.237
303.396
303.562
303.738
303.924
304.122
304.331
304.554
304.792
305.047
305.319
305.61
305.923
306.259
306.621
307.011
307.43
307.883
308.371
308.898
309.467
310.082
310.747
311.465
312.241
313.081
313.988
314.969
316.029
317.175
318.413
319.751
321.196
322.758
324.443
326.263
328.227
330.344
332.626
335.082
337.722
340.553
343.581
346.803
350.213
353.788
357.495
361.28
300.032
300.097
300.165
300.234
300.306
300.379
300.454
300.53
300.609
300.688
300.769
300.852
300.937
301.022
301.11
301.199
301.289
301.381
301.475
301.571
301.669
301.77
301.872
301.978
302.086
302.197
302.312
302.43
302.553
302.68
302.812
302.95
303.094
303.245
303.403
303.57
303.745
303.931
304.128
304.338
304.56
304.798
305.051
305.323
305.613
305.925
306.26
306.62
307.007
307.424
307.874
308.359
308.883
309.447
310.057
310.715
311.426
312.194
313.023
313.919
314.885
315.929
317.055
318.269
319.579
320.991
322.512
324.15
325.912
327.805
329.838
332.017
334.349
336.837
339.484
342.289
345.245
348.339
351.549
354.844
358.186
300.032
300.098
300.165
300.235
300.307
300.38
300.455
300.532
300.611
300.691
300.772
300.856
300.94
301.026
301.114
301.203
301.294
301.387
301.481
301.578
301.676
301.777
301.88
301.985
302.094
302.205
302.32
302.439
302.562
302.689
302.821
302.959
303.103
303.254
303.412
303.579
303.755
303.94
304.137
304.346
304.568
304.805
305.057
305.327
305.617
305.927
306.26
306.618
307.003
307.417
307.863
308.344
308.863
309.422
310.025
310.675
311.377
312.134
312.951
313.831
314.78
315.803
316.904
318.09
319.365
320.736
322.209
323.789
325.483
327.295
329.23
331.294
333.488
335.813
338.267
340.847
343.541
346.337
349.213
352.146
355.105
300.032
300.098
300.166
300.236
300.308
300.382
300.458
300.535
300.614
300.694
300.776
300.86
300.945
301.031
301.12
301.209
301.301
301.394
301.489
301.586
301.684
301.785
301.889
301.995
302.104
302.216
302.331
302.45
302.573
302.7
302.833
302.971
303.115
303.266
303.424
303.591
303.766
303.952
304.148
304.356
304.578
304.813
305.065
305.334
305.621
305.93
306.261
306.616
306.997
307.408
307.85
308.326
308.838
309.39
309.985
310.626
311.316
312.06
312.861
313.723
314.65
315.648
316.72
317.871
319.105
320.429
321.845
323.359
324.975
326.696
328.525
330.463
332.511
334.667
336.927
339.284
341.728
344.246
346.821
349.432
352.057
300.032
300.099
300.167
300.237
300.31
300.384
300.46
300.538
300.617
300.698
300.781
300.865
300.951
301.038
301.127
301.217
301.309
301.403
301.498
301.595
301.695
301.796
301.9
302.007
302.116
302.229
302.344
302.464
302.587
302.715
302.848
302.986
303.13
303.281
303.439
303.606
303.781
303.966
304.162
304.369
304.59
304.824
305.074
305.342
305.627
305.933
306.261
306.613
306.991
307.397
307.833
308.303
308.808
309.351
309.936
310.565
311.242
311.97
312.752
313.592
314.494
315.462
316.5
317.611
318.799
320.068
321.421
322.861
324.391
326.013
327.728
329.535
331.433
333.419
335.487
337.63
339.839
342.101
344.403
346.728
349.059
300.033
300.099
300.168
300.239
300.312
300.387
300.464
300.542
300.622
300.704
300.787
300.872
300.958
301.046
301.135
301.226
301.319
301.413
301.51
301.608
301.708
301.81
301.915
302.022
302.132
302.245
302.361
302.481
302.604
302.733
302.866
303.004
303.149
303.3
303.458
303.624
303.799
303.983
304.178
304.385
304.604
304.838
305.086
305.351
305.635
305.938
306.262
306.61
306.983
307.384
307.814
308.276
308.772
309.305
309.878
310.493
311.154
311.863
312.623
313.438
314.311
315.245
316.244
317.309
318.445
319.654
320.937
322.298
323.737
325.255
326.851
328.524
330.272
332.09
333.973
335.914
337.903
339.932
341.987
344.057
346.128
300.033
300.1
300.169
300.241
300.315
300.39
300.468
300.547
300.627
300.71
300.794
300.88
300.967
301.055
301.146
301.238
301.331
301.427
301.524
301.623
301.724
301.827
301.932
302.04
302.151
302.264
302.381
302.501
302.626
302.755
302.888
303.027
303.171
303.322
303.48
303.646
303.821
304.005
304.199
304.405
304.623
304.854
305.101
305.364
305.644
305.944
306.264
306.607
306.975
307.369
307.791
308.244
308.73
309.251
309.81
310.409
311.051
311.739
312.474
313.261
314.101
314.997
315.952
316.967
318.046
319.189
320.399
321.675
323.019
324.43
325.906
327.446
329.046
330.702
332.409
334.16
335.947
337.762
339.596
341.438
343.279
300.033
300.101
300.171
300.243
300.318
300.394
300.472
300.552
300.634
300.718
300.803
300.889
300.977
301.067
301.159
301.252
301.346
301.443
301.541
301.641
301.743
301.847
301.953
302.062
302.174
302.288
302.406
302.527
302.652
302.781
302.915
303.054
303.199
303.35
303.508
303.673
303.847
304.031
304.224
304.428
304.645
304.875
305.119
305.379
305.656
305.952
306.267
306.605
306.966
307.352
307.766
308.208
308.682
309.19
309.733
310.313
310.934
311.597
312.305
313.06
313.863
314.718
315.625
316.587
317.605
318.679
319.811
321.001
322.247
323.55
324.907
326.316
327.774
329.276
330.817
332.391
333.993
335.615
337.249
338.888
340.524
300.034
300.102
300.173
300.246
300.322
300.399
300.478
300.559
300.642
300.727
300.813
300.901
300.99
301.081
301.174
301.268
301.364
301.462
301.561
301.662
301.766
301.871
301.979
302.089
302.201
302.317
302.435
302.557
302.683
302.813
302.947
303.087
303.232
303.383
303.541
303.706
303.88
304.062
304.254
304.457
304.672
304.9
305.141
305.398
305.671
305.962
306.272
306.603
306.957
307.334
307.737
308.168
308.629
309.121
309.646
310.206
310.803
311.44
312.117
312.837
313.601
314.411
315.268
316.173
317.127
318.13
319.182
320.284
321.434
322.63
323.871
325.153
326.475
327.832
329.218
330.631
332.064
333.511
334.966
336.423
337.877
300.034
300.104
300.176
300.25
300.326
300.405
300.485
300.568
300.652
300.738
300.825
300.915
301.006
301.098
301.192
301.288
301.386
301.485
301.586
301.689
301.793
301.9
302.009
302.12
302.234
302.351
302.471
302.594
302.72
302.851
302.986
303.126
303.272
303.423
303.581
303.746
303.919
304.1
304.291
304.492
304.705
304.93
305.168
305.421
305.69
305.975
306.279
306.603
306.948
307.316
307.708
308.126
308.571
309.045
309.551
310.088
310.66
311.267
311.912
312.594
313.317
314.079
314.884
315.73
316.619
317.55
318.522
319.537
320.591
321.683
322.812
323.975
325.168
326.389
327.634
328.898
330.177
331.467
332.761
334.057
335.349
300.035
300.105
300.179
300.254
300.332
300.412
300.494
300.578
300.663
300.751
300.84
300.931
301.024
301.118
301.214
301.312
301.411
301.512
301.615
301.72
301.826
301.935
302.045
302.158
302.274
302.392
302.513
302.637
302.765
302.897
303.033
303.173
303.319
303.471
303.628
303.793
303.965
304.146
304.335
304.535
304.745
304.967
305.202
305.451
305.714
305.994
306.291
306.606
306.942
307.298
307.678
308.081
308.51
308.966
309.45
309.963
310.507
311.083
311.693
312.336
313.015
313.729
314.479
315.266
316.089
316.948
317.842
318.771
319.732
320.725
321.748
322.798
323.872
324.968
326.082
327.211
328.351
329.499
330.65
331.801
332.949
300.035
300.107
300.182
300.259
300.338
300.42
300.504
300.589
300.677
300.767
300.858
300.951
301.046
301.142
301.241
301.34
301.442
301.545
301.65
301.757
301.866
301.976
302.089
302.204
302.321
302.441
302.564
302.689
302.818
302.951
303.088
303.23
303.376
303.528
303.686
303.85
304.021
304.201
304.389
304.586
304.794
305.013
305.244
305.488
305.745
306.018
306.308
306.614
306.939
307.284
307.65
308.037
308.448
308.884
309.345
309.832
310.348
310.891
311.465
312.068
312.702
313.367
314.063
314.79
315.547
316.336
317.153
318
318.873
319.772
320.695
321.639
322.603
323.584
324.58
325.586
326.602
327.622
328.645
329.667
330.686
300.036
300.11
300.186
300.265
300.346
300.43
300.516
300.603
300.693
300.785
300.879
300.974
301.072
301.171
301.272
301.374
301.478
301.584
301.692
301.801
301.912
302.025
302.14
302.258
302.377
302.499
302.624
302.751
302.882
303.016
303.154
303.297
303.444
303.596
303.754
303.918
304.089
304.267
304.453
304.649
304.853
305.069
305.295
305.534
305.786
306.051
306.332
306.629
306.943
307.275
307.626
307.997
308.389
308.803
309.24
309.701
310.186
310.697
311.233
311.795
312.384
313
313.642
314.31
315.005
315.725
316.469
317.237
318.027
318.838
319.668
320.515
321.378
322.255
323.142
324.039
324.941
325.848
326.757
327.665
328.57
300.037
300.113
300.191
300.272
300.355
300.441
300.53
300.62
300.712
300.807
300.904
301.002
301.102
301.205
301.308
301.414
301.521
301.63
301.741
301.853
301.967
302.083
302.201
302.321
302.443
302.568
302.695
302.824
302.957
303.093
303.233
303.376
303.524
303.677
303.835
303.999
304.169
304.346
304.531
304.724
304.926
305.137
305.359
305.592
305.837
306.095
306.367
306.654
306.956
307.274
307.609
307.963
308.335
308.727
309.14
309.573
310.028
310.505
311.004
311.526
312.07
312.637
313.227
313.839
314.473
315.127
315.802
316.496
317.208
317.938
318.682
319.441
320.212
320.993
321.784
322.581
323.383
324.189
324.995
325.801
326.605
300.038
300.116
300.197
300.28
300.366
300.455
300.546
300.639
300.735
300.833
300.933
301.035
301.139
301.244
301.352
301.461
301.572
301.685
301.799
301.915
302.033
302.152
302.274
302.397
302.522
302.649
302.779
302.911
303.046
303.185
303.326
303.471
303.62
303.774
303.932
304.096
304.266
304.442
304.625
304.815
305.014
305.221
305.438
305.666
305.904
306.154
306.416
306.692
306.981
307.286
307.605
307.941
308.293
308.663
309.05
309.456
309.88
310.324
310.786
311.268
311.769
312.289
312.829
313.387
313.962
314.556
315.165
315.791
316.432
317.086
317.752
318.43
319.118
319.814
320.517
321.225
321.938
322.653
323.369
324.084
324.798
300.039
300.12
300.204
300.29
300.379
300.471
300.566
300.663
300.762
300.864
300.967
301.073
301.181
301.291
301.403
301.517
301.632
301.749
301.868
301.988
302.11
302.234
302.359
302.486
302.615
302.746
302.879
303.014
303.152
303.293
303.437
303.583
303.734
303.889
304.048
304.212
304.381
304.556
304.737
304.925
305.121
305.324
305.536
305.758
305.989
306.231
306.483
306.748
307.025
307.315
307.618
307.936
308.268
308.615
308.977
309.356
309.75
310.161
310.588
311.031
311.491
311.966
312.458
312.965
313.486
314.022
314.572
315.135
315.709
316.295
316.891
317.495
318.108
318.727
319.352
319.982
320.614
321.249
321.885
322.52
323.153
300.041
300.125
300.211
300.301
300.394
300.49
300.588
300.69
300.793
300.9
301.008
301.119
301.232
301.347
301.464
301.582
301.703
301.825
301.949
302.074
302.201
302.33
302.46
302.591
302.725
302.86
302.997
303.136
303.277
303.421
303.568
303.717
303.869
304.026
304.186
304.35
304.519
304.693
304.873
305.059
305.251
305.451
305.658
305.873
306.097
306.331
306.574
306.827
307.091
307.367
307.654
307.954
308.266
308.591
308.929
309.281
309.647
310.026
310.419
310.825
311.245
311.679
312.126
312.585
313.057
313.54
314.035
314.54
315.054
315.578
316.11
316.649
317.195
317.746
318.301
318.86
319.422
319.985
320.549
321.113
321.676
300.043
300.13
300.221
300.315
300.412
300.512
300.615
300.722
300.83
300.942
301.056
301.173
301.291
301.412
301.535
301.66
301.786
301.915
302.045
302.176
302.309
302.443
302.579
302.716
302.855
302.995
303.136
303.28
303.425
303.573
303.723
303.875
304.03
304.188
304.35
304.515
304.684
304.858
305.036
305.22
305.41
305.605
305.808
306.017
306.234
306.46
306.693
306.936
307.187
307.449
307.72
308.003
308.295
308.599
308.914
309.241
309.578
309.928
310.288
310.661
311.044
311.439
311.844
312.26
312.685
313.121
313.565
314.018
314.479
314.947
315.421
315.902
316.388
316.878
317.371
317.868
318.367
318.867
319.368
319.869
320.369
300.045
300.137
300.232
300.331
300.433
300.538
300.647
300.759
300.874
300.992
301.112
301.236
301.361
301.489
301.619
301.751
301.885
302.02
302.157
302.296
302.436
302.577
302.719
302.863
303.008
303.154
303.301
303.45
303.601
303.753
303.907
304.062
304.221
304.381
304.545
304.711
304.881
305.055
305.233
305.415
305.602
305.794
305.992
306.196
306.407
306.624
306.848
307.08
307.32
307.568
307.825
308.09
308.365
308.648
308.941
309.244
309.556
309.877
310.208
310.548
310.898
311.257
311.624
312
312.384
312.776
313.175
313.581
313.994
314.412
314.836
315.264
315.697
316.133
316.572
317.013
317.457
317.901
318.346
318.792
319.236
300.047
300.144
300.245
300.349
300.457
300.569
300.684
300.803
300.925
301.051
301.179
301.31
301.444
301.58
301.718
301.859
302.001
302.145
302.29
302.437
302.585
302.735
302.885
303.036
303.189
303.342
303.496
303.651
303.808
303.965
304.124
304.285
304.447
304.611
304.777
304.945
305.117
305.291
305.469
305.65
305.835
306.024
306.218
306.417
306.622
306.832
307.047
307.27
307.498
307.734
307.976
308.226
308.483
308.748
309.021
309.301
309.589
309.885
310.188
310.499
310.818
311.144
311.477
311.817
312.164
312.517
312.875
313.24
313.609
313.983
314.362
314.744
315.13
315.518
315.909
316.302
316.697
317.092
317.488
317.884
318.28
300.05
300.153
300.26
300.371
300.486
300.605
300.728
300.855
300.986
301.12
301.257
301.397
301.541
301.686
301.835
301.985
302.138
302.292
302.447
302.604
302.762
302.921
303.081
303.241
303.402
303.564
303.726
303.889
304.053
304.217
304.382
304.548
304.715
304.883
305.053
305.224
305.398
305.573
305.751
305.932
306.116
306.303
306.494
306.689
306.888
307.091
307.299
307.512
307.731
307.955
308.184
308.42
308.661
308.909
309.163
309.423
309.689
309.961
310.24
310.525
310.816
311.113
311.415
311.723
312.036
312.354
312.677
313.005
313.336
313.671
314.01
314.352
314.696
315.043
315.391
315.742
316.093
316.445
316.798
317.15
317.503
300.054
300.163
300.278
300.396
300.52
300.647
300.78
300.916
301.056
301.201
301.349
301.5
301.655
301.812
301.972
302.135
302.299
302.465
302.632
302.801
302.971
303.141
303.312
303.483
303.654
303.826
303.998
304.17
304.342
304.514
304.686
304.859
305.032
305.206
305.38
305.556
305.732
305.91
306.089
306.271
306.454
306.64
306.828
307.02
307.214
307.412
307.613
307.819
308.028
308.242
308.46
308.682
308.91
309.142
309.379
309.62
309.867
310.119
310.375
310.637
310.903
311.174
311.449
311.729
312.012
312.3
312.591
312.886
313.184
313.485
313.789
314.095
314.403
314.713
315.024
315.337
315.65
315.964
316.279
316.593
316.908
300.058
300.176
300.299
300.426
300.559
300.697
300.84
300.988
301.14
301.296
301.457
301.622
301.79
301.961
302.135
302.311
302.489
302.669
302.851
303.033
303.217
303.4
303.584
303.768
303.952
304.136
304.319
304.502
304.684
304.865
305.047
305.227
305.408
305.588
305.769
305.949
306.13
306.311
306.493
306.676
306.86
307.045
307.232
307.421
307.612
307.805
308.001
308.2
308.401
308.606
308.814
309.025
309.24
309.458
309.68
309.906
310.136
310.369
310.606
310.847
311.091
311.339
311.59
311.845
312.103
312.363
312.627
312.893
313.162
313.433
313.706
313.981
314.257
314.535
314.814
315.094
315.374
315.655
315.937
316.218
316.498
300.062
300.19
300.323
300.462
300.606
300.756
300.911
301.072
301.238
301.409
301.585
301.765
301.948
302.136
302.326
302.519
302.714
302.911
303.109
303.308
303.507
303.707
303.906
304.105
304.304
304.501
304.698
304.893
305.087
305.28
305.472
305.663
305.852
306.041
306.228
306.415
306.601
306.787
306.972
307.158
307.343
307.53
307.716
307.904
308.093
308.283
308.474
308.668
308.863
309.06
309.259
309.461
309.665
309.871
310.08
310.292
310.507
310.724
310.944
311.166
311.392
311.62
311.85
312.083
312.318
312.555
312.795
313.036
313.28
313.525
313.771
314.019
314.268
314.517
314.768
315.019
315.271
315.523
315.774
316.026
316.277
300.068
300.207
300.352
300.503
300.66
300.824
300.995
301.171
301.353
301.541
301.735
301.933
302.136
302.342
302.552
302.764
302.979
303.196
303.413
303.632
303.85
304.069
304.286
304.503
304.719
304.933
305.145
305.355
305.563
305.77
305.974
306.176
306.376
306.574
306.77
306.965
307.158
307.35
307.54
307.73
307.918
308.106
308.294
308.482
308.669
308.857
309.046
309.235
309.425
309.616
309.808
310.002
310.197
310.393
310.591
310.791
310.993
311.196
311.401
311.608
311.817
312.028
312.24
312.454
312.67
312.887
313.105
313.325
313.546
313.769
313.992
314.216
314.441
314.666
314.892
315.118
315.345
315.571
315.797
316.023
316.248
300.074
300.226
300.385
300.551
300.724
300.905
301.093
301.287
301.489
301.697
301.912
302.131
302.356
302.585
302.818
303.054
303.292
303.532
303.773
304.014
304.255
304.496
304.735
304.972
305.208
305.441
305.671
305.899
306.124
306.346
306.565
306.78
306.993
307.202
307.409
307.613
307.814
308.013
308.21
308.405
308.598
308.789
308.979
309.168
309.355
309.543
309.729
309.916
310.102
310.288
310.475
310.662
310.849
311.037
311.226
311.416
311.607
311.798
311.991
312.184
312.379
312.575
312.771
312.969
313.168
313.367
313.568
313.769
313.971
314.174
314.377
314.58
314.784
314.989
315.193
315.397
315.601
315.805
316.009
316.212
316.414
300.082
300.249
300.425
300.608
300.799
300.999
301.207
301.424
301.649
301.881
302.12
302.365
302.616
302.872
303.132
303.396
303.661
303.929
304.197
304.465
304.732
304.999
305.263
305.524
305.783
306.039
306.291
306.539
306.782
307.022
307.258
307.489
307.716
307.939
308.158
308.373
308.584
308.792
308.996
309.198
309.396
309.592
309.785
309.976
310.165
310.353
310.539
310.724
310.908
311.09
311.273
311.454
311.636
311.817
311.998
312.179
312.361
312.542
312.724
312.906
313.089
313.272
313.455
313.639
313.823
314.007
314.192
314.377
314.563
314.748
314.934
315.12
315.305
315.491
315.676
315.861
316.046
316.23
316.414
316.597
316.779
300.091
300.276
300.47
300.674
300.886
301.109
301.342
301.584
301.835
302.096
302.364
302.64
302.922
303.21
303.502
303.798
304.096
304.396
304.696
304.995
305.294
305.59
305.883
306.173
306.459
306.74
307.016
307.287
307.553
307.813
308.068
308.317
308.561
308.799
309.032
309.26
309.482
309.7
309.913
310.123
310.328
310.529
310.727
310.921
311.113
311.302
311.488
311.673
311.855
312.036
312.215
312.393
312.569
312.745
312.92
313.094
313.267
313.44
313.613
313.785
313.957
314.129
314.301
314.472
314.644
314.815
314.986
315.157
315.328
315.499
315.669
315.839
316.009
316.178
316.347
316.515
316.682
316.849
317.014
317.179
317.343
300.101
300.307
300.523
300.75
300.988
301.237
301.498
301.771
302.054
302.347
302.65
302.962
303.281
303.606
303.936
304.27
304.606
304.944
305.281
305.618
305.952
306.282
306.609
306.931
307.247
307.558
307.862
308.159
308.45
308.733
309.01
309.279
309.541
309.796
310.045
310.286
310.522
310.751
310.975
311.192
311.405
311.613
311.816
312.015
312.21
312.401
312.589
312.774
312.956
313.135
313.312
313.487
313.659
313.83
314
314.168
314.335
314.501
314.665
314.829
314.992
315.154
315.316
315.477
315.637
315.797
315.956
316.114
316.272
316.43
316.586
316.742
316.897
317.052
317.205
317.358
317.509
317.66
317.81
317.958
318.106
300.112
300.343
300.584
300.838
301.105
301.385
301.68
301.987
302.307
302.64
302.984
303.337
303.699
304.069
304.443
304.822
305.203
305.584
305.965
306.343
306.718
307.088
307.453
307.811
308.162
308.506
308.841
309.168
309.485
309.794
310.094
310.385
310.668
310.941
311.206
311.464
311.713
311.954
312.189
312.416
312.637
312.852
313.062
313.265
313.464
313.658
313.848
314.034
314.215
314.394
314.569
314.742
314.911
315.079
315.244
315.407
315.568
315.727
315.885
316.041
316.196
316.349
316.502
316.653
316.803
316.952
317.1
317.248
317.394
317.539
317.682
317.825
317.967
318.107
318.247
318.385
318.522
318.658
318.792
318.926
319.058
300.126
300.383
300.654
300.938
301.239
301.555
301.887
302.236
302.6
302.978
303.369
303.772
304.184
304.605
305.031
305.461
305.893
306.325
306.755
307.181
307.603
308.017
308.425
308.823
309.213
309.592
309.961
310.319
310.666
311.002
311.327
311.642
311.945
312.238
312.521
312.794
313.057
313.311
313.557
313.794
314.024
314.246
314.461
314.67
314.873
315.07
315.262
315.448
315.63
315.808
315.982
316.153
316.319
316.483
316.644
316.802
316.958
317.111
317.262
317.411
317.558
317.704
317.847
317.99
318.13
318.269
318.407
318.543
318.677
318.81
318.942
319.072
319.2
319.328
319.453
319.578
319.701
319.822
319.943
320.062
320.179
300.14
300.428
300.731
301.051
301.389
301.746
302.122
302.518
302.931
303.362
303.808
304.268
304.739
305.218
305.703
306.192
306.682
307.171
307.656
308.136
308.609
309.072
309.525
309.968
310.398
310.815
311.219
311.61
311.988
312.352
312.702
313.04
313.364
313.676
313.976
314.264
314.541
314.808
315.064
315.31
315.547
315.776
315.996
316.209
316.415
316.614
316.808
316.995
317.177
317.354
317.526
317.694
317.857
318.017
318.174
318.327
318.477
318.624
318.768
318.91
319.049
319.186
319.321
319.454
319.585
319.713
319.84
319.964
320.087
320.208
320.327
320.444
320.56
320.674
320.786
320.897
321.006
321.114
321.22
321.324
321.427
300.156
300.477
300.815
301.173
301.552
301.955
302.38
302.829
303.299
303.79
304.298
304.822
305.359
305.904
306.455
307.01
307.564
308.116
308.662
309.199
309.726
310.241
310.742
311.229
311.7
312.156
312.595
313.017
313.424
313.814
314.188
314.546
314.889
315.217
315.531
315.832
316.12
316.396
316.66
316.913
317.155
317.388
317.612
317.828
318.035
318.235
318.428
318.614
318.795
318.969
319.139
319.303
319.462
319.617
319.768
319.915
320.059
320.199
320.335
320.469
320.6
320.727
320.852
320.974
321.094
321.211
321.326
321.438
321.549
321.657
321.763
321.867
321.97
322.07
322.169
322.266
322.362
322.455
322.548
322.638
322.727
300.172
300.526
300.9
301.298
301.721
302.172
302.651
303.157
303.69
304.246
304.824
305.42
306.028
306.645
307.267
307.89
308.51
309.125
309.732
310.326
310.907
311.471
312.019
312.548
313.058
313.548
314.018
314.469
314.899
315.311
315.703
316.078
316.435
316.775
317.1
317.409
317.703
317.984
318.252
318.508
318.753
318.987
319.21
319.425
319.631
319.829
320.018
320.201
320.377
320.547
320.711
320.869
321.022
321.17
321.314
321.453
321.588
321.719
321.846
321.969
322.089
322.206
322.32
322.431
322.539
322.644
322.747
322.847
322.945
323.041
323.135
323.226
323.316
323.404
323.49
323.574
323.656
323.736
323.815
323.892
323.968
300.187
300.571
300.978
301.413
301.878
302.376
302.908
303.474
304.071
304.693
305.338
306.001
306.679
307.365
308.056
308.746
309.432
310.108
310.771
311.419
312.048
312.656
313.243
313.807
314.347
314.864
315.356
315.825
316.272
316.696
317.099
317.481
317.844
318.188
318.515
318.825
319.12
319.399
319.665
319.919
320.16
320.39
320.609
320.819
321.019
321.21
321.394
321.57
321.739
321.901
322.057
322.208
322.352
322.492
322.626
322.756
322.881
323.003
323.12
323.234
323.343
323.45
323.553
323.654
323.751
323.846
323.938
324.028
324.115
324.2
324.283
324.363
324.442
324.518
324.593
324.665
324.736
324.805
324.873
324.938
325.003
300.196
300.601
301.031
301.492
301.987
302.521
303.095
303.705
304.347
305.019
305.716
306.435
307.169
307.913
308.66
309.405
310.141
310.864
311.57
312.256
312.917
313.554
314.163
314.745
315.3
315.827
316.328
316.802
317.251
317.676
318.078
318.458
318.817
319.158
319.479
319.784
320.073
320.347
320.606
320.853
321.087
321.311
321.523
321.726
321.919
322.104
322.28
322.449
322.611
322.767
322.916
323.059
323.196
323.329
323.456
323.579
323.697
323.812
323.922
324.028
324.131
324.231
324.327
324.421
324.511
324.599
324.684
324.766
324.846
324.924
324.999
325.073
325.144
325.213
325.281
325.346
325.41
325.471
325.532
325.59
325.647
385.204
393.157
399.837
405.651
410.803
415.403
419.515
423.173
426.394
429.181
431.522
433.397
434.773
435.601
435.818
435.332
434.015
431.671
427.967
422.246
412.858
406.486
401.591
397.573
394.142
391.137
388.457
386.033
383.815
381.767
379.861
378.075
376.391
374.794
373.272
371.815
370.413
369.06
367.749
366.474
365.231
364.015
362.823
361.651
360.496
359.357
358.23
357.114
356.007
354.909
353.817
352.731
351.651
350.574
349.502
348.434
347.37
346.308
345.25
344.195
343.143
342.095
341.049
340.007
338.968
337.933
336.902
335.876
334.856
333.841
332.834
331.835
330.844
329.864
328.895
327.938
326.995
326.066
325.154
324.259
323.383
322.526
321.69
320.876
320.084
319.316
318.573
317.854
317.16
316.493
315.851
315.236
314.647
314.085
313.548
313.037
312.551
312.091
311.654
311.241
310.851
310.483
310.137
309.81
309.503
309.214
308.943
308.688
308.449
308.224
308.012
307.812
307.624
307.447
307.279
307.119
306.968
306.823
306.685
306.552
306.424
306.3
306.18
306.063
305.948
305.836
305.725
305.616
305.508
305.4
305.293
305.185
305.078
304.97
304.862
304.754
304.644
304.534
304.424
304.312
304.199
304.086
303.971
303.856
303.74
303.624
303.507
303.389
303.271
303.153
303.034
302.916
302.798
302.681
302.564
302.447
302.332
302.218
302.105
301.995
301.887
380.453
387.367
393.579
399.15
404.162
408.675
412.732
416.355
419.555
422.332
424.673
426.556
427.95
428.808
429.069
428.65
427.441
425.284
421.962
417.205
410.968
405.565
401.047
397.21
393.881
390.94
388.303
385.909
383.714
381.684
379.792
378.017
376.342
374.752
373.236
371.783
370.386
369.036
367.728
366.456
365.215
364.001
362.811
361.64
360.487
359.349
358.223
357.108
356.002
354.904
353.813
352.727
351.647
350.571
349.499
348.431
347.367
346.306
345.248
344.193
343.141
342.092
341.047
340.005
338.966
337.931
336.9
335.874
334.854
333.839
332.832
331.832
330.842
329.861
328.892
327.935
326.992
326.063
325.151
324.256
323.379
322.522
321.686
320.872
320.081
319.313
318.569
317.85
317.157
316.49
315.848
315.233
314.644
314.082
313.545
313.034
312.549
312.088
311.652
311.239
310.849
310.482
310.135
309.809
309.502
309.213
308.942
308.687
308.448
308.223
308.011
307.812
307.624
307.446
307.278
307.119
306.968
306.823
306.685
306.552
306.424
306.3
306.18
306.063
305.949
305.837
305.726
305.617
305.508
305.401
305.293
305.186
305.079
304.971
304.863
304.755
304.645
304.535
304.425
304.313
304.2
304.087
303.972
303.857
303.741
303.625
303.508
303.39
303.272
303.154
303.035
302.917
302.799
302.681
302.564
302.448
302.333
302.219
302.106
301.995
301.887
376.347
382.265
387.847
393.018
397.766
402.102
406.037
409.577
412.724
415.471
417.802
419.695
421.118
422.029
422.375
422.086
421.077
419.246
416.486
412.751
408.256
403.891
399.944
396.435
393.309
390.502
387.958
385.632
383.487
381.496
379.635
377.884
376.229
374.656
373.154
371.713
370.326
368.985
367.684
366.418
365.182
363.973
362.786
361.619
360.468
359.332
358.208
357.095
355.991
354.894
353.804
352.719
351.64
350.565
349.494
348.426
347.362
346.301
345.244
344.189
343.138
342.089
341.043
340.001
338.962
337.927
336.897
335.87
334.85
333.835