/*--------------------------------*- C++ -*----------------------------------*\
  =========                 |
  \\      /  F ield         | OpenFOAM: The Open Source CFD Toolbox
   \\    /   O peration     | Website:  https://openfoam.org
    \\  /    A nd           | Version:  7
     \\/     M anipulation  |
\*---------------------------------------------------------------------------*/
FoamFile
{
    version     2.0;
    format      ascii;
    class       volScalarField;
    location    "9.29";
    object      T;
}
// * * * * * * * * * * * * * * * * * * * * * * * * * * * * * * * * * * * * * //

dimensions      [0 0 0 1 0 0 0];

internalField   nonuniform List<scalar> 
12013
(
300.142
300.429
300.723
301.021
301.321
301.62
301.917
302.21
302.498
302.78
303.055
303.321
303.579
303.829
304.07
304.301
304.524
304.739
304.944
305.142
305.332
305.514
305.689
305.858
306.02
306.176
306.326
306.471
306.612
306.748
306.88
307.008
307.134
307.257
307.378
307.497
307.616
307.736
307.856
307.978
308.102
308.231
308.365
308.506
308.655
308.814
308.984
309.169
309.371
309.591
309.833
310.101
310.397
310.725
311.091
311.498
311.951
312.457
313.021
313.65
314.35
315.131
316
316.968
318.044
319.24
320.569
322.045
323.685
325.505
327.526
329.774
332.275
335.063
338.18
341.678
345.628
350.127
355.321
361.455
368.992
300.142
300.429
300.723
301.022
301.321
301.621
301.918
302.211
302.5
302.782
303.056
303.323
303.581
303.831
304.072
304.304
304.527
304.741
304.947
305.145
305.334
305.517
305.692
305.861
306.023
306.179
306.329
306.474
306.615
306.751
306.883
307.011
307.137
307.259
307.38
307.5
307.619
307.738
307.858
307.98
308.105
308.234
308.368
308.508
308.657
308.816
308.986
309.171
309.372
309.592
309.834
310.101
310.397
310.725
311.09
311.497
311.949
312.454
313.017
313.644
314.344
315.123
315.99
316.955
318.028
319.221
320.545
322.016
323.648
325.46
327.47
329.703
332.186
334.949
338.031
341.481
345.357
349.737
354.722
360.436
366.994
300.142
300.43
300.724
301.023
301.323
301.623
301.92
302.214
302.503
302.785
303.06
303.327
303.585
303.835
304.076
304.308
304.532
304.746
304.952
305.15
305.34
305.523
305.698
305.867
306.029
306.185
306.336
306.481
306.621
306.757
306.889
307.018
307.143
307.266
307.387
307.506
307.625
307.744
307.864
307.986
308.111
308.239
308.373
308.513
308.662
308.82
308.991
309.175
309.375
309.595
309.836
310.103
310.398
310.725
311.089
311.494
311.945
312.448
313.008
313.633
314.329
315.104
315.967
316.927
317.993
319.178
320.492
321.951
323.568
325.361
327.348
329.55
331.993
334.703
337.713
341.062
344.793
348.953
353.591
358.736
364.349
300.142
300.43
300.726
301.025
301.325
301.626
301.924
302.218
302.507
302.79
303.066
303.333
303.592
303.843
304.084
304.317
304.54
304.755
304.961
305.16
305.35
305.533
305.708
305.877
306.039
306.196
306.346
306.492
306.632
306.768
306.9
307.028
307.154
307.277
307.398
307.517
307.636
307.755
307.874
307.996
308.12
308.249
308.382
308.522
308.67
308.828
308.998
309.181
309.381
309.6
309.84
310.105
310.399
310.724
311.086
311.489
311.937
312.437
312.994
313.614
314.305
315.074
315.929
316.88
317.936
319.107
320.406
321.845
323.437
325.2
327.149
329.303
331.683
334.312
337.214
340.417
343.945
347.821
352.054
356.627
361.468
300.143
300.432
300.727
301.027
301.329
301.63
301.929
302.224
302.514
302.798
303.074
303.343
303.602
303.853
304.095
304.329
304.553
304.768
304.975
305.174
305.364
305.547
305.723
305.892
306.055
306.211
306.362
306.508
306.648
306.784
306.916
307.044
307.17
307.293
307.413
307.533
307.651
307.77
307.889
308.011
308.134
308.262
308.395
308.535
308.682
308.839
309.008
309.191
309.389
309.607
309.846
310.109
310.4
310.724
311.083
311.482
311.927
312.422
312.973
313.587
314.27
315.03
315.875
316.812
317.852
319.005
320.281
321.692
323.25
324.97
326.866
328.954
331.249
333.77
336.533
339.553
342.842
346.403
350.226
354.277
358.491
300.143
300.433
300.73
301.031
301.334
301.636
301.937
302.233
302.524
302.809
303.086
303.355
303.616
303.868
304.111
304.345
304.57
304.786
304.994
305.193
305.384
305.568
305.744
305.913
306.076
306.233
306.384
306.53
306.67
306.806
306.938
307.067
307.192
307.314
307.435
307.554
307.673
307.791
307.91
308.031
308.154
308.281
308.414
308.552
308.699
308.855
309.023
309.204
309.401
309.617
309.853
310.114
310.403
310.723
311.078
311.473
311.912
312.401
312.945
313.551
314.223
314.971
315.801
316.721
317.74
318.868
320.113
321.487
323.001
324.666
326.494
328.498
330.69
333.081
335.68
338.495
341.526
344.766
348.198
351.786
355.478
300.144
300.435
300.734
301.036
301.341
301.645
301.946
302.244
302.537
302.823
303.102
303.373
303.635
303.888
304.132
304.367
304.593
304.81
305.018
305.218
305.41
305.595
305.772
305.941
306.105
306.262
306.413
306.559
306.7
306.836
306.968
307.096
307.221
307.344
307.464
307.583
307.701
307.819
307.937
308.058
308.18
308.307
308.438
308.576
308.721
308.876
309.042
309.222
309.417
309.63
309.864
310.122
310.407
310.723
311.073
311.462
311.894
312.375
312.91
313.504
314.163
314.895
315.706
316.604
317.597
318.693
319.9
321.228
322.687
324.285
326.032
327.937
330.008
332.252
334.672
337.269
340.038
342.967
346.037
349.216
352.466
300.145
300.438
300.738
301.043
301.349
301.655
301.959
302.259
302.553
302.842
303.122
303.395
303.659
303.913
304.159
304.396
304.623
304.841
305.05
305.252
305.444
305.629
305.807
305.978
306.142
306.299
306.451
306.597
306.738
306.874
307.006
307.134
307.259
307.382
307.502
307.62
307.738
307.855
307.973
308.093
308.215
308.34
308.47
308.607
308.751
308.904
309.068
309.245
309.438
309.648
309.879
310.133
310.413
310.723
311.067
311.449
311.873
312.343
312.866
313.446
314.089
314.802
315.59
316.46
317.421
318.478
319.64
320.914
322.307
323.827
325.482
327.275
329.214
331.299
333.531
335.907
338.419
341.054
343.793
346.612
349.48
300.146
300.441
300.744
301.051
301.36
301.669
301.975
302.277
302.574
302.865
303.148
303.423
303.689
303.946
304.193
304.431
304.66
304.88
305.091
305.293
305.487
305.674
305.852
306.024
306.188
306.346
306.498
306.645
306.786
306.923
307.055
307.183
307.308
307.43
307.55
307.668
307.785
307.901
308.019
308.137
308.258
308.382
308.511
308.646
308.788
308.939
309.101
309.276
309.465
309.672
309.898
310.147
310.422
310.725
311.062
311.434
311.848
312.306
312.814
313.377
314.001
314.69
315.451
316.289
317.211
318.224
319.333
320.544
321.864
323.297
324.849
326.523
328.32
330.241
332.284
334.443
336.709
339.07
341.509
344.007
346.542
300.147
300.446
300.751
301.061
301.373
301.685
301.995
302.3
302.601
302.894
303.18
303.458
303.726
303.986
304.236
304.476
304.707
304.929
305.142
305.346
305.541
305.729
305.909
306.081
306.246
306.405
306.558
306.705
306.847
306.983
307.115
307.244
307.368
307.49
307.609
307.727
307.843
307.959
308.075
308.193
308.313
308.435
308.563
308.696
308.836
308.984
309.143
309.314
309.5
309.702
309.924
310.167
310.435
310.73
311.057
311.419
311.82
312.264
312.755
313.299
313.899
314.561
315.29
316.091
316.97
317.932
318.982
320.124
321.363
322.702
324.145
325.693
327.346
329.102
330.958
332.907
334.942
337.05
339.218
341.431
343.671
300.149
300.451
300.76
301.074
301.39
301.706
302.019
302.329
302.633
302.93
303.219
303.5
303.772
304.035
304.288
304.531
304.765
304.989
305.204
305.41
305.607
305.797
305.978
306.152
306.318
306.478
306.632
306.779
306.921
307.058
307.191
307.319
307.443
307.565
307.683
307.8
307.916
308.031
308.146
308.262
308.38
308.501
308.627
308.757
308.895
309.04
309.196
309.363
309.544
309.741
309.957
310.193
310.453
310.74
311.056
311.406
311.792
312.219
312.691
313.211
313.785
314.416
315.11
315.87
316.7
317.606
318.591
319.659
320.812
322.052
323.383
324.802
326.31
327.904
329.579
331.33
333.149
335.026
336.949
338.907
340.886
300.151
300.457
300.771
301.09
301.41
301.73
302.049
302.363
302.672
302.973
303.267
303.553
303.829
304.095
304.351
304.598
304.835
305.062
305.28
305.489
305.688
305.88
306.063
306.238
306.406
306.567
306.722
306.87
307.013
307.15
307.282
307.411
307.535
307.656
307.774
307.89
308.005
308.119
308.232
308.347
308.463
308.583
308.705
308.833
308.968
309.11
309.262
309.425
309.601
309.792
310
310.229
310.479
310.755
311.059
311.395
311.765
312.173
312.623
313.118
313.662
314.26
314.914
315.628
316.407
317.253
318.169
319.158
320.222
321.361
322.578
323.87
325.236
326.673
328.176
329.741
331.361
333.026
334.729
336.459
338.205
300.153
300.465
300.784
301.108
301.434
301.76
302.084
302.404
302.719
303.026
303.325
303.615
303.896
304.167
304.428
304.679
304.92
305.151
305.372
305.584
305.786
305.98
306.166
306.343
306.513
306.675
306.831
306.98
307.123
307.261
307.394
307.522
307.646
307.767
307.884
307.999
308.113
308.226
308.338
308.451
308.565
308.682
308.802
308.927
309.058
309.196
309.343
309.501
309.671
309.855
310.056
310.276
310.516
310.78
311.071
311.39
311.742
312.129
312.555
313.022
313.534
314.095
314.707
315.373
316.096
316.879
317.724
318.633
319.606
320.645
321.748
322.915
324.144
325.432
326.775
328.167
329.603
331.077
332.581
334.106
335.646
300.157
300.474
300.8
301.13
301.463
301.796
302.127
302.454
302.775
303.089
303.394
303.691
303.978
304.254
304.521
304.777
305.022
305.257
305.483
305.698
305.904
306.101
306.29
306.469
306.641
306.805
306.962
307.113
307.257
307.395
307.528
307.656
307.78
307.9
308.017
308.131
308.244
308.355
308.465
308.576
308.688
308.802
308.919
309.041
309.168
309.301
309.444
309.595
309.759
309.936
310.128
310.337
310.566
310.818
311.093
311.395
311.728
312.092
312.491
312.929
313.407
313.928
314.496
315.112
315.778
316.497
317.269
318.097
318.98
319.919
320.913
321.96
323.059
324.206
325.399
326.632
327.902
329.202
330.526
331.869
333.224
300.16
300.485
300.819
301.157
301.498
301.839
302.178
302.513
302.842
303.164
303.477
303.781
304.075
304.358
304.631
304.893
305.144
305.385
305.615
305.835
306.046
306.246
306.438
306.621
306.795
306.961
307.12
307.272
307.417
307.556
307.689
307.817
307.941
308.06
308.176
308.289
308.4
308.509
308.618
308.726
308.836
308.947
309.061
309.178
309.301
309.43
309.566
309.712
309.868
310.036
310.219
310.418
310.635
310.871
311.131
311.415
311.726
312.066
312.438
312.844
313.286
313.767
314.289
314.853
315.462
316.116
316.817
317.565
318.36
319.203
320.092
321.025
322.002
323.019
324.073
325.161
326.279
327.422
328.585
329.765
330.955
300.164
300.498
300.841
301.189
301.539
301.89
302.239
302.583
302.922
303.253
303.575
303.888
304.19
304.482
304.762
305.031
305.29
305.537
305.773
305.999
306.214
306.419
306.614
306.8
306.978
307.146
307.307
307.46
307.607
307.746
307.88
308.008
308.132
308.25
308.365
308.477
308.587
308.694
308.8
308.906
309.013
309.12
309.23
309.344
309.462
309.585
309.715
309.854
310.002
310.162
310.334
310.521
310.725
310.947
311.189
311.453
311.742
312.057
312.401
312.774
313.18
313.62
314.096
314.609
315.16
315.751
316.381
317.052
317.763
318.514
319.304
320.131
320.994
321.89
322.818
323.774
324.754
325.756
326.776
327.809
328.852
300.17
300.514
300.867
301.226
301.588
301.95
302.311
302.666
303.016
303.358
303.691
304.014
304.326
304.628
304.917
305.195
305.462
305.717
305.96
306.192
306.413
306.623
306.823
307.013
307.194
307.365
307.529
307.684
307.831
307.972
308.106
308.234
308.357
308.475
308.589
308.7
308.807
308.913
309.017
309.12
309.223
309.327
309.433
309.541
309.654
309.771
309.895
310.026
310.166
310.316
310.478
310.653
310.842
311.049
311.273
311.517
311.783
312.073
312.387
312.728
313.098
313.497
313.927
314.389
314.884
315.413
315.976
316.574
317.205
317.869
318.567
319.295
320.054
320.841
321.654
322.49
323.347
324.222
325.113
326.015
326.927
300.176
300.532
300.898
301.27
301.645
302.021
302.395
302.764
303.127
303.482
303.828
304.163
304.487
304.8
305.101
305.389
305.665
305.929
306.18
306.419
306.647
306.863
307.069
307.264
307.448
307.623
307.789
307.946
308.095
308.237
308.372
308.5
308.623
308.74
308.853
308.962
309.067
309.17
309.272
309.371
309.471
309.571
309.672
309.776
309.883
309.994
310.111
310.234
310.365
310.505
310.655
310.817
310.993
311.183
311.389
311.613
311.856
312.12
312.405
312.714
313.048
313.407
313.792
314.206
314.647
315.117
315.616
316.144
316.701
317.286
317.898
318.537
319.2
319.887
320.596
321.325
322.071
322.834
323.609
324.395
325.19
300.183
300.554
300.935
301.322
301.713
302.104
302.494
302.879
303.258
303.628
303.988
304.338
304.676
305.002
305.316
305.616
305.903
306.177
306.438
306.686
306.922
307.145
307.357
307.557
307.746
307.924
308.093
308.253
308.404
308.547
308.682
308.811
308.933
309.049
309.161
309.268
309.371
309.472
309.57
309.666
309.762
309.858
309.954
310.053
310.154
310.258
310.367
310.482
310.604
310.733
310.872
311.021
311.182
311.356
311.544
311.748
311.968
312.206
312.463
312.74
313.039
313.359
313.703
314.069
314.46
314.875
315.315
315.779
316.267
316.778
317.313
317.869
318.447
319.044
319.66
320.293
320.941
321.602
322.275
322.958
323.649
300.191
300.579
300.977
301.383
301.792
302.202
302.61
303.014
303.41
303.799
304.177
304.543
304.898
305.24
305.568
305.882
306.182
306.468
306.74
306.998
307.242
307.473
307.692
307.898
308.092
308.275
308.447
308.609
308.762
308.906
309.042
309.171
309.293
309.408
309.518
309.623
309.725
309.822
309.917
310.01
310.101
310.192
310.284
310.376
310.471
310.568
310.67
310.776
310.888
311.007
311.135
311.271
311.417
311.575
311.745
311.928
312.126
312.339
312.569
312.816
313.081
313.365
313.668
313.992
314.335
314.699
315.084
315.489
315.914
316.359
316.823
317.306
317.807
318.324
318.857
319.404
319.965
320.537
321.12
321.711
322.31
300.201
300.609
301.027
301.454
301.884
302.316
302.746
303.171
303.589
303.998
304.397
304.783
305.157
305.516
305.862
306.192
306.507
306.806
307.09
307.359
307.614
307.854
308.08
308.292
308.492
308.679
308.855
309.021
309.175
309.321
309.458
309.586
309.707
309.822
309.93
310.033
310.132
310.226
310.318
310.407
310.494
310.58
310.666
310.753
310.841
310.931
311.024
311.122
311.224
311.333
311.448
311.572
311.704
311.845
311.998
312.162
312.338
312.527
312.731
312.949
313.183
313.433
313.699
313.982
314.282
314.599
314.934
315.286
315.654
316.04
316.441
316.858
317.29
317.737
318.196
318.668
319.151
319.644
320.147
320.657
321.175
300.212
300.643
301.086
301.537
301.992
302.449
302.904
303.354
303.797
304.231
304.653
305.062
305.458
305.838
306.203
306.551
306.882
307.197
307.495
307.777
308.042
308.292
308.526
308.746
308.952
309.144
309.324
309.492
309.649
309.796
309.934
310.062
310.183
310.296
310.402
310.503
310.599
310.69
310.777
310.862
310.944
311.025
311.106
311.186
311.267
311.35
311.436
311.524
311.617
311.715
311.819
311.929
312.047
312.174
312.309
312.454
312.61
312.777
312.956
313.148
313.353
313.571
313.803
314.049
314.31
314.585
314.874
315.178
315.496
315.829
316.174
316.533
316.905
317.288
317.683
318.088
318.503
318.928
319.36
319.799
320.245
300.225
300.683
301.154
301.633
302.118
302.604
303.088
303.568
304.039
304.501
304.951
305.386
305.807
306.211
306.597
306.966
307.316
307.648
307.961
308.256
308.534
308.794
309.037
309.265
309.477
309.675
309.859
310.03
310.189
310.337
310.475
310.603
310.723
310.834
310.939
311.037
311.129
311.217
311.3
311.381
311.458
311.533
311.608
311.682
311.756
311.831
311.909
311.989
312.072
312.159
312.252
312.35
312.454
312.566
312.685
312.813
312.949
313.096
313.252
313.419
313.597
313.786
313.987
314.2
314.425
314.663
314.912
315.174
315.447
315.732
316.029
316.336
316.655
316.983
317.322
317.669
318.024
318.388
318.759
319.136
319.519
300.241
300.73
301.233
301.746
302.264
302.784
303.303
303.816
304.321
304.815
305.296
305.761
306.21
306.64
307.051
307.442
307.813
308.164
308.494
308.804
309.094
309.365
309.618
309.854
310.073
310.276
310.464
310.638
310.799
310.949
311.087
311.214
311.333
311.442
311.544
311.639
311.728
311.812
311.891
311.966
312.038
312.108
312.176
312.244
312.311
312.379
312.448
312.519
312.593
312.67
312.751
312.837
312.929
313.026
313.131
313.242
313.361
313.488
313.623
313.768
313.921
314.085
314.258
314.441
314.635
314.839
315.052
315.277
315.511
315.755
316.008
316.271
316.543
316.824
317.113
317.41
317.714
318.025
318.342
318.665
318.993
300.259
300.785
301.325
301.877
302.434
302.994
303.552
304.104
304.647
305.178
305.694
306.193
306.673
307.133
307.571
307.987
308.381
308.751
309.099
309.425
309.729
310.012
310.275
310.519
310.744
310.952
311.144
311.321
311.484
311.634
311.772
311.899
312.015
312.122
312.221
312.313
312.398
312.477
312.552
312.622
312.688
312.752
312.814
312.875
312.935
312.995
313.056
313.119
313.183
313.251
313.321
313.396
313.475
313.56
313.65
313.746
313.848
313.958
314.074
314.199
314.331
314.471
314.62
314.777
314.942
315.116
315.299
315.49
315.69
315.898
316.115
316.339
316.571
316.81
317.057
317.31
317.569
317.835
318.106
318.382
318.662
300.28
300.848
301.433
302.029
302.632
303.237
303.84
304.437
305.023
305.596
306.152
306.689
307.205
307.697
308.165
308.608
309.025
309.417
309.784
310.126
310.444
310.739
311.012
311.264
311.495
311.708
311.904
312.083
312.247
312.397
312.534
312.659
312.773
312.877
312.973
313.061
313.141
313.216
313.285
313.35
313.41
313.468
313.524
313.577
313.63
313.683
313.736
313.79
313.846
313.904
313.965
314.029
314.097
314.169
314.246
314.328
314.416
314.509
314.609
314.715
314.828
314.948
315.074
315.208
315.35
315.498
315.654
315.817
315.987
316.164
316.349
316.54
316.737
316.941
317.151
317.366
317.587
317.814
318.045
318.28
318.52
300.304
300.922
301.557
302.205
302.861
303.518
304.173
304.821
305.457
306.077
306.678
307.257
307.811
308.338
308.839
309.31
309.753
310.168
310.554
310.912
311.244
311.551
311.833
312.092
312.329
312.546
312.744
312.925
313.089
313.238
313.373
313.496
313.607
313.708
313.8
313.883
313.959
314.028
314.091
314.15
314.205
314.256
314.305
314.352
314.398
314.444
314.489
314.535
314.582
314.631
314.683
314.737
314.795
314.856
314.921
314.991
315.065
315.144
315.229
315.319
315.415
315.517
315.625
315.738
315.859
315.985
316.117
316.256
316.401
316.552
316.708
316.871
317.039
317.212
317.391
317.575
317.763
317.956
318.153
318.354
318.558
300.332
301.007
301.702
302.41
303.126
303.844
304.558
305.264
305.955
306.628
307.279
307.903
308.499
309.065
309.599
310.101
310.57
311.007
311.413
311.788
312.133
312.45
312.741
313.006
313.248
313.468
313.667
313.848
314.011
314.158
314.291
314.41
314.517
314.614
314.7
314.778
314.849
314.912
314.97
315.023
315.071
315.116
315.159
315.199
315.238
315.276
315.314
315.353
315.392
315.433
315.476
315.521
315.569
315.62
315.675
315.734
315.796
315.863
315.935
316.011
316.092
316.179
316.27
316.367
316.469
316.576
316.689
316.807
316.93
317.059
317.192
317.33
317.473
317.621
317.773
317.93
318.09
318.255
318.423
318.594
318.769
300.365
301.107
301.869
302.647
303.432
304.219
305.001
305.772
306.526
307.258
307.963
308.637
309.278
309.884
310.453
310.986
311.482
311.941
312.365
312.755
313.112
313.438
313.736
314.006
314.25
314.471
314.67
314.849
315.01
315.154
315.283
315.397
315.5
315.591
315.672
315.745
315.809
315.867
315.918
315.965
316.007
316.046
316.082
316.116
316.148
316.18
316.211
316.242
316.275
316.308
316.343
316.381
316.42
316.463
316.508
316.557
316.61
316.666
316.727
316.791
316.86
316.933
317.011
317.093
317.18
317.271
317.368
317.468
317.573
317.683
317.797
317.915
318.037
318.163
318.293
318.427
318.564
318.705
318.848
318.995
319.145
300.403
301.222
302.063
302.92
303.786
304.652
305.511
306.355
307.178
307.974
308.738
309.465
310.154
310.801
311.407
311.97
312.491
312.971
313.411
313.814
314.181
314.514
314.816
315.088
315.333
315.553
315.749
315.925
316.082
316.221
316.344
316.454
316.55
316.635
316.71
316.776
316.835
316.886
316.931
316.972
317.008
317.041
317.071
317.098
317.125
317.151
317.176
317.201
317.227
317.254
317.283
317.314
317.346
317.382
317.42
317.461
317.505
317.552
317.603
317.658
317.717
317.779
317.846
317.916
317.99
318.069
318.151
318.237
318.328
318.422
318.519
318.621
318.726
318.834
318.946
319.061
319.178
319.299
319.422
319.548
319.677
300.447
301.355
302.288
303.237
304.194
305.149
306.095
307.021
307.92
308.786
309.612
310.396
311.133
311.822
312.462
313.054
313.598
314.096
314.55
314.963
315.336
315.673
315.975
316.246
316.489
316.705
316.897
317.068
317.218
317.351
317.468
317.571
317.66
317.739
317.807
317.867
317.919
317.964
318.003
318.038
318.068
318.096
318.12
318.143
318.165
318.185
318.205
318.226
318.247
318.269
318.293
318.318
318.345
318.375
318.407
318.442
318.48
318.52
318.564
318.611
318.662
318.716
318.773
318.834
318.899
318.967
319.038
319.113
319.191
319.272
319.357
319.445
319.536
319.63
319.726
319.825
319.927
320.032
320.138
320.247
320.358
300.498
301.509
302.547
303.602
304.663
305.72
306.762
307.778
308.76
309.7
310.592
311.433
312.218
312.947
313.62
314.237
314.8
315.312
315.775
316.193
316.568
316.904
317.204
317.471
317.708
317.918
318.103
318.266
318.409
318.534
318.643
318.738
318.82
318.892
318.954
319.007
319.053
319.092
319.126
319.156
319.182
319.204
319.225
319.244
319.262
319.279
319.296
319.313
319.331
319.349
319.369
319.391
319.415
319.441
319.469
319.499
319.532
319.568
319.607
319.649
319.694
319.741
319.792
319.846
319.903
319.963
320.026
320.092
320.16
320.232
320.306
320.384
320.463
320.545
320.63
320.717
320.806
320.896
320.989
321.084
321.18
300.557
301.687
302.846
304.022
305.201
306.372
307.52
308.635
309.706
310.724
311.683
312.579
313.41
314.175
314.875
315.512
316.089
316.608
317.075
317.492
317.864
318.195
318.488
318.747
318.975
319.175
319.351
319.504
319.638
319.755
319.856
319.943
320.018
320.083
320.138
320.186
320.226
320.261
320.291
320.317
320.34
320.36
320.378
320.395
320.411
320.426
320.441
320.457
320.473
320.491
320.509
320.53
320.552
320.576
320.602
320.63
320.661
320.694
320.73
320.768
320.81
320.853
320.9
320.949
321
321.055
321.112
321.171
321.233
321.297
321.364
321.432
321.503
321.576
321.651
321.728
321.807
321.887
321.969
322.052
322.137
300.625
301.893
303.19
304.503
305.817
307.114
308.379
309.6
310.763
311.86
312.884
313.833
314.703
315.498
316.217
316.866
317.448
317.968
318.43
318.841
319.204
319.524
319.806
320.053
320.269
320.458
320.623
320.766
320.89
320.997
321.09
321.17
321.238
321.297
321.348
321.391
321.429
321.461
321.489
321.513
321.535
321.554
321.572
321.589
321.605
321.621
321.637
321.654
321.671
321.689
321.709
321.73
321.752
321.777
321.803
321.831
321.862
321.895
321.93
321.967
322.006
322.048
322.092
322.138
322.187
322.238
322.29
322.345
322.402
322.461
322.522
322.585
322.649
322.715
322.783
322.852
322.922
322.994
323.067
323.141
323.216
300.703
302.129
303.585
305.054
306.517
307.954
309.345
310.676
311.933
313.106
314.19
315.183
316.084
316.897
317.626
318.276
318.853
319.365
319.816
320.213
320.561
320.866
321.132
321.365
321.567
321.743
321.895
322.028
322.142
322.241
322.327
322.401
322.465
322.521
322.569
322.611
322.647
322.679
322.708
322.733
322.757
322.778
322.799
322.818
322.837
322.856
322.876
322.896
322.916
322.938
322.961
322.985
323.01
323.037
323.066
323.097
323.129
323.163
323.199
323.237
323.276
323.318
323.361
323.407
323.454
323.503
323.553
323.605
323.659
323.714
323.771
323.829
323.888
323.949
324.011
324.074
324.138
324.203
324.268
324.335
324.402
300.793
302.399
304.036
305.681
307.31
308.898
310.422
311.865
313.212
314.454
315.586
316.61
317.53
318.348
319.072
319.71
320.271
320.764
321.195
321.571
321.899
322.185
322.434
322.65
322.838
323.002
323.144
323.267
323.374
323.468
323.549
323.62
323.682
323.737
323.786
323.829
323.868
323.903
323.935
323.965
323.993
324.02
324.046
324.071
324.096
324.121
324.146
324.172
324.198
324.225
324.253
324.282
324.313
324.344
324.377
324.411
324.447
324.484
324.523
324.563
324.604
324.647
324.691
324.737
324.783
324.832
324.881
324.932
324.983
325.036
325.09
325.144
325.2
325.256
325.314
325.372
325.43
325.489
325.549
325.609
325.669
300.895
302.707
304.549
306.391
308.201
309.95
311.61
313.161
314.59
315.884
317.043
318.075
318.988
319.792
320.497
321.113
321.651
322.118
322.525
322.878
323.185
323.451
323.682
323.883
324.058
324.211
324.344
324.461
324.563
324.654
324.734
324.805
324.869
324.927
324.979
325.027
325.072
325.113
325.152
325.189
325.225
325.259
325.293
325.327
325.36
325.393
325.426
325.459
325.493
325.528
325.563
325.598
325.635
325.672
325.71
325.749
325.789
325.83
325.872
325.915
325.959
326.004
326.049
326.096
326.143
326.191
326.24
326.289
326.34
326.39
326.442
326.494
326.546
326.599
326.652
326.705
326.759
326.813
326.867
326.922
326.976
301.011
303.058
305.13
307.19
309.196
311.113
312.902
314.534
316.006
317.32
318.483
319.506
320.401
321.181
321.857
322.443
322.951
323.389
323.768
324.096
324.38
324.627
324.842
325.029
325.193
325.337
325.465
325.578
325.679
325.77
325.853
325.927
325.996
326.06
326.119
326.175
326.227
326.278
326.326
326.372
326.418
326.462
326.505
326.548
326.591
326.633
326.675
326.718
326.76
326.802
326.845
326.887
326.93
326.974
327.017
327.062
327.106
327.151
327.196
327.242
327.289
327.335
327.382
327.43
327.477
327.525
327.573
327.622
327.671
327.72
327.768
327.818
327.867
327.916
327.965
328.014
328.063
328.112
328.161
328.21
328.259
301.142
303.453
305.783
308.081
310.289
312.338
314.208
315.89
317.384
318.7
319.85
320.848
321.711
322.455
323.095
323.644
324.117
324.523
324.873
325.176
325.438
325.667
325.867
326.043
326.199
326.338
326.462
326.575
326.677
326.771
326.858
326.939
327.014
327.086
327.153
327.218
327.28
327.34
327.399
327.455
327.511
327.565
327.618
327.671
327.723
327.774
327.825
327.876
327.926
327.976
328.025
328.074
328.123
328.172
328.221
328.269
328.317
328.366
328.414
328.462
328.51
328.558
328.606
328.654
328.701
328.749
328.796
328.843
328.89
328.936
328.983
329.029
329.074
329.12
329.165
329.21
329.254
329.299
329.342
329.386
329.429
301.285
303.885
306.5
309.021
311.371
313.516
315.441
317.145
318.637
319.932
321.049
322.007
322.827
323.527
324.124
324.634
325.07
325.444
325.766
326.045
326.288
326.501
326.689
326.856
327.006
327.141
327.264
327.378
327.482
327.58
327.672
327.759
327.841
327.92
327.995
328.068
328.139
328.208
328.275
328.34
328.404
328.467
328.528
328.589
328.648
328.707
328.765
328.822
328.878
328.934
328.988
329.042
329.096
329.148
329.201
329.252
329.303
329.354
329.404
329.453
329.502
329.551
329.599
329.646
329.693
329.74
329.786
329.831
329.876
329.92
329.964
330.007
330.049
330.091
330.133
330.174
330.214
330.254
330.293
330.332
330.37
301.42
304.308
307.15
309.82
312.265
314.46
316.399
318.093
319.558
320.815
321.889
322.803
323.579
324.237
324.796
325.272
325.678
326.027
326.327
326.588
326.816
327.018
327.197
327.357
327.502
327.635
327.757
327.871
327.977
328.077
328.171
328.262
328.348
328.431
328.512
328.59
328.665
328.739
328.811
328.881
328.95
329.017
329.083
329.148
329.212
329.275
329.336
329.397
329.457
329.515
329.573
329.63
329.686
329.741
329.795
329.848
329.901
329.952
330.003
330.053
330.103
330.151
330.199
330.247
330.293
330.339
330.383
330.428
330.471
330.514
330.556
330.597
330.637
330.677
330.716
330.754
330.792
330.829
330.865
330.901
330.936
379.108
387.035
393.719
399.561
404.759
409.421
413.607
417.351
420.666
423.553
426
427.985
429.471
430.409
430.733
430.352
429.135
426.885
423.271
417.635
408.33
402.045
397.238
393.309
389.971
387.06
384.477
382.152
380.038
378.097
376.304
374.635
373.073
371.605
370.218
368.902
367.65
366.455
365.309
364.208
363.147
362.123
361.131
360.168
359.232
358.321
357.431
356.561
355.709
354.873
354.053
353.246
352.452
351.67
350.898
350.136
349.383
348.638
347.901
347.172
346.449
345.734
345.024
344.321
343.625
342.934
342.249
341.57
340.897
340.23
339.568
338.913
338.264
337.621
336.985
336.355
335.731
335.115
334.505
333.902
333.306
332.718
332.137
331.564
330.999
330.443
329.894
329.355
328.824
328.302
327.789
327.286
326.793
326.309
325.836
325.373
324.919
324.477
324.045
323.623
323.212
322.812
322.423
322.045
321.677
321.32
320.973
320.637
320.311
319.996
319.69
319.395
319.109
318.832
318.565
318.307
318.058
317.817
317.584
317.359
317.141
316.931
316.728
316.532
316.342
316.158
315.98
315.807
315.64
315.477
315.319
315.166
315.016
314.87
314.728
314.589
314.453
314.321
314.19
314.063
313.937
313.814
313.692
313.572
313.454
313.337
313.222
313.108
312.995
312.883
312.773
312.662
312.553
312.445
312.337
312.23
312.124
312.018
311.914
311.81
311.709
374.378
381.26
387.471
393.066
398.12
402.694
406.823
410.531
413.826
416.704
419.152
421.145
422.65
423.619
423.988
423.675
422.566
420.504
417.271
412.6
406.445
401.128
396.698
392.95
389.712
386.865
384.324
382.03
379.938
378.014
376.234
374.576
373.023
371.561
370.18
368.869
367.621
366.429
365.286
364.188
363.13
362.107
361.117
360.155
359.221
358.31
357.421
356.552
355.701
354.866
354.046
353.24
352.447
351.665
350.893
350.131
349.379
348.634
347.898
347.168
346.446
345.731
345.022
344.319
343.622
342.931
342.246
341.567
340.894
340.227
339.566
338.911
338.262
337.619
336.983
336.353
335.729
335.113
334.503
333.9
333.304
332.716
332.135
331.562
330.998
330.441
329.893
329.353
328.822
328.3
327.788
327.285
326.791
326.308
325.834
325.371
324.918
324.475
324.043
323.622
323.211
322.811
322.422
322.043
321.676
321.318
320.972
320.636
320.31
319.995
319.689
319.394
319.108
318.832
318.565
318.306
318.057
317.816
317.583
317.358
317.141
316.931
316.728
316.532
316.342
316.158
315.98
315.807
315.64
315.477
315.319
315.166
315.016
314.87
314.728
314.589
314.454
314.321
314.19
314.063
313.937
313.814
313.692
313.572
313.454
313.338
313.222
313.108
312.996
312.884
312.773
312.663
312.554
312.445
312.337
312.23
312.124
312.019
311.914
311.81
311.709
370.306
376.188
381.764
386.952
391.739
396.131
400.136
403.76
407
409.848
412.286
414.29
415.825
416.849
417.305
417.123
416.215
414.48
411.811
408.162
403.75
399.469
395.608
392.186
389.15
386.435
383.986
381.758
379.715
377.83
376.079
374.444
372.911
371.465
370.097
368.797
367.558
366.374
365.237
364.145
363.091
362.073
361.086
360.128
359.196
358.288
357.401
356.534
355.684
354.851
354.033
353.228
352.435
351.654
350.883
350.122
349.37
348.626
347.89
347.162
346.44
345.725
345.016
344.313
343.617
342.926
342.242
341.563
340.89
340.223
339.562
338.907
338.258
337.615