/*--------------------------------*- C++ -*----------------------------------*\
  =========                 |
  \\      /  F ield         | OpenFOAM: The Open Source CFD Toolbox
   \\    /   O peration     | Website:  https://openfoam.org
    \\  /    A nd           | Version:  7
     \\/     M anipulation  |
\*---------------------------------------------------------------------------*/
FoamFile
{
    version     2.0;
    format      ascii;
    class       surfaceScalarField;
    location    "1.74";
    object      phi;
}
// * * * * * * * * * * * * * * * * * * * * * * * * * * * * * * * * * * * * * //

dimensions      [1 0 -1 0 0 0 0];

internalField   nonuniform List<scalar> 
23692
(
1.17321e-05
-9.72393e-08
1.19114e-05
-1.79164e-07
1.21651e-05
-2.53461e-07
1.24847e-05
-3.19258e-07
1.28628e-05
-3.77727e-07
1.32927e-05
-4.29471e-07
1.37681e-05
-4.74877e-07
1.4283e-05
-5.1436e-07
1.48319e-05
-5.4837e-07
1.541e-05
-5.77404e-07
1.60126e-05
-6.02001e-07
1.66359e-05
-6.22723e-07
1.72767e-05
-6.40132e-07
1.7932e-05
-6.54771e-07
1.85997e-05
-6.67142e-07
1.92779e-05
-6.77696e-07
1.99651e-05
-6.86823e-07
2.06603e-05
-6.94847e-07
2.13626e-05
-7.02031e-07
2.20713e-05
-7.08575e-07
2.27859e-05
-7.14625e-07
2.35061e-05
-7.2028e-07
2.42314e-05
-7.25597e-07
2.49616e-05
-7.30604e-07
2.56963e-05
-7.353e-07
2.64352e-05
-7.39667e-07
2.71779e-05
-7.43673e-07
2.7924e-05
-7.47277e-07
2.86731e-05
-7.50431e-07
2.94246e-05
-7.53086e-07
3.0178e-05
-7.55193e-07
3.09327e-05
-7.56704e-07
3.1688e-05
-7.57572e-07
3.24433e-05
-7.57754e-07
3.31978e-05
-7.5721e-07
3.39507e-05
-7.55902e-07
3.47013e-05
-7.53799e-07
3.54487e-05
-7.50868e-07
3.61921e-05
-7.47083e-07
3.69306e-05
-7.42418e-07
3.76632e-05
-7.36849e-07
3.83891e-05
-7.30354e-07
3.91073e-05
-7.22914e-07
3.98169e-05
-7.14507e-07
4.05168e-05
-7.05114e-07
4.12061e-05
-6.94714e-07
4.18838e-05
-6.83287e-07
4.25487e-05
-6.70808e-07
4.31998e-05
-6.57255e-07
4.38361e-05
-6.42599e-07
4.44564e-05
-6.2681e-07
4.50595e-05
-6.09853e-07
4.56443e-05
-5.91689e-07
4.62094e-05
-5.72272e-07
4.67537e-05
-5.51551e-07
4.72757e-05
-5.29463e-07
4.7774e-05
-5.05938e-07
4.82472e-05
-4.80892e-07
4.86935e-05
-4.54225e-07
4.91113e-05
-4.2582e-07
4.94988e-05
-3.95536e-07
4.98538e-05
-3.63203e-07
5.01741e-05
-3.28611e-07
5.04572e-05
-2.91506e-07
5.07004e-05
-2.51569e-07
5.09004e-05
-2.08398e-07
5.10534e-05
-1.61483e-07
5.11552e-05
-1.10164e-07
5.12004e-05
-5.3583e-08
5.11826e-05
9.41412e-09
5.10937e-05
8.0613e-08
5.09228e-05
1.62619e-07
5.06554e-05
2.59245e-07
5.02711e-05
3.76366e-07
4.97398e-05
5.23451e-07
4.90156e-05
7.16461e-07
4.80246e-05
9.83555e-07
4.66401e-05
1.37725e-06
4.46273e-05
2.00576e-06
4.1486e-05
3.13453e-06
5.83588e-06
3.56438e-05
1.25513e-05
-1.98879e-07
1.27422e-05
-3.6995e-07
1.3013e-05
-5.23997e-07
1.33542e-05
-6.60175e-07
1.37581e-05
-7.81221e-07
1.42175e-05
-8.88327e-07
1.47254e-05
-9.82295e-07
1.52756e-05
-1.06399e-06
1.58623e-05
-1.13435e-06
1.64799e-05
-1.1944e-06
1.71238e-05
-1.24526e-06
1.77899e-05
-1.28809e-06
1.84745e-05
-1.32407e-06
1.91746e-05
-1.3543e-06
1.98879e-05
-1.37984e-06
2.06123e-05
-1.40162e-06
2.13464e-05
-1.42043e-06
2.20889e-05
-1.43697e-06
2.28389e-05
-1.45177e-06
2.35956e-05
-1.46523e-06
2.43587e-05
-1.47768e-06
2.51276e-05
-1.4893e-06
2.59019e-05
-1.50023e-06
2.66814e-05
-1.51051e-06
2.74656e-05
-1.52014e-06
2.82542e-05
-1.5291e-06
2.90468e-05
-1.5373e-06
2.9843e-05
-1.54467e-06
3.06422e-05
-1.55111e-06
3.14439e-05
-1.55651e-06
3.22476e-05
-1.56077e-06
3.30525e-05
-1.5638e-06
3.38581e-05
-1.56549e-06
3.46634e-05
-1.56577e-06
3.54678e-05
-1.56453e-06
3.62705e-05
-1.56171e-06
3.70705e-05
-1.55724e-06
3.7867e-05
-1.55106e-06
3.8659e-05
-1.5431e-06
3.94457e-05
-1.53332e-06
4.0226e-05
-1.52166e-06
4.0999e-05
-1.50808e-06
4.17636e-05
-1.49254e-06
4.25188e-05
-1.47499e-06
4.32635e-05
-1.4554e-06
4.39967e-05
-1.43372e-06
4.47173e-05
-1.40991e-06
4.54242e-05
-1.38393e-06
4.61161e-05
-1.35571e-06
4.67919e-05
-1.32521e-06
4.74505e-05
-1.29236e-06
4.80905e-05
-1.2571e-06
4.87108e-05
-1.21933e-06
4.93099e-05
-1.17898e-06
4.98864e-05
-1.13593e-06
5.04391e-05
-1.09006e-06
5.09662e-05
-1.04123e-06
5.14663e-05
-9.89265e-07
5.19376e-05
-9.33967e-07
5.23783e-05
-8.75102e-07
5.27865e-05
-8.12385e-07
5.316e-05
-7.45477e-07
5.34964e-05
-6.73964e-07
5.37933e-05
-5.97337e-07
5.40478e-05
-5.14968e-07
5.42564e-05
-4.26067e-07
5.44155e-05
-3.29632e-07
5.45207e-05
-2.24374e-07
5.45668e-05
-1.08618e-07
5.45473e-05
1.98781e-08
5.44547e-05
1.6438e-07
5.4279e-05
3.29546e-07
5.40074e-05
5.22077e-07
5.36234e-05
7.51887e-07
5.31043e-05
1.03413e-06
5.24199e-05
1.39259e-06
5.15299e-05
1.8655e-06
5.03839e-05
2.51546e-06
4.89331e-05
3.44903e-06
4.72122e-05
4.84824e-06
6.92526e-06
4.61159e-05
1.3427e-05
-3.04474e-07
1.36296e-05
-5.72364e-07
1.39175e-05
-8.1168e-07
1.4281e-05
-1.02334e-06
1.47116e-05
-1.21138e-06
1.52015e-05
-1.37772e-06
1.57434e-05
-1.5236e-06
1.63305e-05
-1.6504e-06
1.69564e-05
-1.75957e-06
1.76154e-05
-1.85271e-06
1.83024e-05
-1.93156e-06
1.90129e-05
-1.99794e-06
1.97432e-05
-2.05365e-06
2.049e-05
-2.10044e-06
2.12507e-05
-2.13993e-06
2.20232e-05
-2.17357e-06
2.28059e-05
-2.20262e-06
2.35974e-05
-2.22811e-06
2.43968e-05
-2.2509e-06
2.52034e-05
-2.27162e-06
2.60164e-05
-2.29075e-06
2.68356e-05
-2.3086e-06
2.76604e-05
-2.32536e-06
2.84905e-05
-2.34111e-06
2.93256e-05
-2.35586e-06
3.01651e-05
-2.36955e-06
3.10088e-05
-2.38207e-06
3.18561e-05
-2.39328e-06
3.27065e-05
-2.40304e-06
3.35594e-05
-2.4112e-06
3.44141e-05
-2.41758e-06
3.52701e-05
-2.42203e-06
3.61264e-05
-2.4244e-06
3.69824e-05
-2.42456e-06
3.78371e-05
-2.42238e-06
3.86897e-05
-2.41773e-06
3.95393e-05
-2.4105e-06
4.03849e-05
-2.40061e-06
4.12255e-05
-2.38795e-06
4.20602e-05
-2.37246e-06
4.28877e-05
-2.35404e-06
4.37072e-05
-2.33263e-06
4.45175e-05
-2.30817e-06
4.53174e-05
-2.28059e-06
4.61059e-05
-2.24982e-06
4.68818e-05
-2.2158e-06
4.76438e-05
-2.17847e-06
4.83909e-05
-2.13775e-06
4.91218e-05
-2.09357e-06
4.98352e-05
-2.04584e-06
5.05298e-05
-1.99446e-06
5.12044e-05
-1.93933e-06
5.18574e-05
-1.88033e-06
5.24876e-05
-1.81733e-06
5.30935e-05
-1.75015e-06
5.36735e-05
-1.67862e-06
5.42261e-05
-1.60252e-06
5.47495e-05
-1.5216e-06
5.52421e-05
-1.43557e-06
5.57019e-05
-1.34408e-06
5.6127e-05
-1.24671e-06
5.65151e-05
-1.14297e-06
5.68639e-05
-1.03225e-06
5.71708e-05
-9.13821e-07
5.7433e-05
-7.8678e-07
5.76473e-05
-6.50002e-07
5.78101e-05
-5.0207e-07
5.79172e-05
-3.41182e-07
5.7964e-05
-1.65011e-07
5.79448e-05
2.94657e-08
5.78532e-05
2.46427e-07
5.76817e-05
4.91614e-07
5.74215e-05
7.72978e-07
5.70626e-05
1.10161e-06
5.65946e-05
1.49318e-06
5.60085e-05
1.96989e-06
5.53024e-05
2.56297e-06
5.44944e-05
3.3151e-06
5.36544e-05
4.28089e-06
5.29825e-05
5.51233e-06
6.97669e-06
5.29236e-05
1.43637e-05
-4.13946e-07
1.45776e-05
-7.86169e-07
1.48829e-05
-1.11667e-06
1.52692e-05
-1.40925e-06
1.57273e-05
-1.66905e-06
1.62489e-05
-1.89873e-06
1.6826e-05
-2.10011e-06
1.74513e-05
-2.27506e-06
1.81181e-05
-2.42562e-06
1.88202e-05
-2.55401e-06
1.9552e-05
-2.66265e-06
2.03089e-05
-2.75404e-06
2.10867e-05
-2.83068e-06
2.18819e-05
-2.89499e-06
2.26919e-05
-2.9492e-06
2.35142e-05
-2.99532e-06
2.43472e-05
-3.03509e-06
2.51894e-05
-3.06995e-06
2.60399e-05
-3.10105e-06
2.68978e-05
-3.1293e-06
2.77624e-05
-3.15534e-06
2.86332e-05
-3.17961e-06
2.95099e-05
-3.20237e-06
3.0392e-05
-3.22373e-06
3.12791e-05
-3.2437e-06
3.21708e-05
-3.26218e-06
3.30666e-05
-3.27905e-06
3.3966e-05
-3.29411e-06
3.48685e-05
-3.30716e-06
3.57734e-05
-3.31798e-06
3.66799e-05
-3.32634e-06
3.75875e-05
-3.33203e-06
3.84952e-05
-3.33484e-06
3.94022e-05
-3.33458e-06
4.03075e-05
-3.33108e-06
4.12104e-05
-3.32416e-06
4.21096e-05
-3.31368e-06
4.30043e-05
-3.2995e-06
4.38933e-05
-3.2815e-06
4.47756e-05
-3.25956e-06
4.56499e-05
-3.23357e-06
4.65153e-05
-3.20346e-06
4.73705e-05
-3.16911e-06
4.82143e-05
-3.13044e-06
4.90455e-05
-3.08737e-06
4.98629e-05
-3.0398e-06
5.06652e-05
-2.98765e-06
5.1451e-05
-2.93082e-06
5.22192e-05
-2.86921e-06
5.29683e-05
-2.8027e-06
5.3697e-05
-2.73117e-06
5.44039e-05
-2.65448e-06
5.50876e-05
-2.57246e-06
5.57465e-05
-2.48494e-06
5.63791e-05
-2.39171e-06
5.69839e-05
-2.29253e-06
5.75591e-05
-2.18712e-06
5.81032e-05
-2.07516e-06
5.86142e-05
-1.95627e-06
5.90903e-05
-1.83e-06
5.95295e-05
-1.69583e-06
5.99296e-05
-1.55314e-06
6.02884e-05
-1.40117e-06
6.06033e-05
-1.23901e-06
6.08718e-05
-1.06556e-06
6.1091e-05
-8.79451e-07
6.12576e-05
-6.79006e-07
6.13681e-05
-4.62102e-07
6.14189e-05
-2.26064e-07
6.14056e-05
3.24423e-08
6.13241e-05
3.17777e-07
6.117e-05
6.35604e-07
6.09396e-05
9.93398e-07
6.06306e-05
1.40081e-06
6.0244e-05
1.87014e-06
5.97878e-05
2.41667e-06
5.92831e-05
3.05836e-06
5.87753e-05
3.81392e-06
5.83501e-05
4.69739e-06
5.81501e-05
5.70395e-06
6.77353e-06
5.83451e-05
1.53656e-05
-5.27345e-07
1.55909e-05
-1.01126e-06
1.59137e-05
-1.43915e-06
1.63232e-05
-1.81839e-06
1.68096e-05
-2.15498e-06
1.73639e-05
-2.4524e-06
1.79775e-05
-2.71305e-06
1.86426e-05
-2.93938e-06
1.93518e-05
-3.13405e-06
2.00985e-05
-3.29996e-06
2.08769e-05
-3.44024e-06
2.16818e-05
-3.55814e-06
2.25089e-05
-3.65692e-06
2.33544e-05
-3.7397e-06
2.42153e-05
-3.80939e-06
2.50892e-05
-3.86858e-06
2.59742e-05
-3.91953e-06
2.68688e-05
-3.9641e-06
2.77718e-05
-4.0038e-06
2.86825e-05
-4.03979e-06
2.96001e-05
-4.07291e-06
3.0524e-05
-4.10372e-06
3.14539e-05
-4.13256e-06
3.23892e-05
-4.15958e-06
3.33295e-05
-4.18479e-06
3.42744e-05
-4.20807e-06
3.52234e-05
-4.22925e-06
3.61758e-05
-4.24807e-06
3.71312e-05
-4.26428e-06
3.80887e-05
-4.27759e-06
3.90478e-05
-4.2877e-06
4.00075e-05
-4.29435e-06
4.0967e-05
-4.29726e-06
4.19253e-05
-4.29619e-06
4.28816e-05
-4.29089e-06
4.38347e-05
-4.28117e-06
4.47837e-05
-4.26681e-06
4.57273e-05
-4.24766e-06
4.66645e-05
-4.22354e-06
4.75941e-05
-4.19431e-06
4.85148e-05
-4.15983e-06
4.94255e-05
-4.11999e-06
5.0325e-05
-4.07466e-06
5.12118e-05
-4.02373e-06
5.20847e-05
-3.96709e-06
5.29425e-05
-3.90463e-06
5.37836e-05
-3.83624e-06
5.46069e-05
-3.76179e-06
5.54109e-05
-3.68116e-06
5.61941e-05
-3.59421e-06
5.69551e-05
-3.50078e-06
5.76925e-05
-3.40071e-06
5.84048e-05
-3.29379e-06
5.90903e-05
-3.17983e-06
5.97476e-05
-3.05855e-06
6.0375e-05
-2.92969e-06
6.09708e-05
-2.79291e-06
6.15333e-05
-2.64784e-06
6.20607e-05
-2.49402e-06
6.25512e-05
-2.33096e-06
6.30028e-05
-2.15804e-06
6.34134e-05
-1.97456e-06
6.37811e-05
-1.77968e-06
6.41035e-05
-1.57238e-06
6.43784e-05
-1.35147e-06
6.46034e-05
-1.11548e-06
6.47759e-05
-8.62649e-07
6.48936e-05
-5.90816e-07
6.49538e-05
-2.97329e-07
6.49543e-05
2.09624e-08
6.48933e-05
3.67903e-07
6.477e-05
7.48027e-07
6.45857e-05
1.16709e-06
6.43442e-05
1.63176e-06
6.40545e-05
2.14946e-06
6.37333e-05
2.72773e-06
6.34088e-05
3.3729e-06
6.31255e-05
4.08759e-06
6.29472e-05
4.86624e-06
6.29543e-05
5.68781e-06
6.50301e-06
6.3216e-05
1.64376e-05
-6.44834e-07
1.66742e-05
-1.24763e-06
1.70147e-05
-1.77934e-06
1.74479e-05
-2.2512e-06
1.79634e-05
-2.66993e-06
1.85513e-05
-3.03972e-06
1.92026e-05
-3.36363e-06
1.99088e-05
-3.64474e-06
2.06619e-05
-3.88637e-06
2.1455e-05
-4.09215e-06
2.22816e-05
-4.26598e-06
2.31363e-05
-4.41194e-06
2.40143e-05
-4.53407e-06
2.49117e-05
-4.63628e-06
2.58252e-05
-4.72217e-06
2.67523e-05
-4.79499e-06
2.76909e-05
-4.85752e-06
2.86394e-05
-4.91211e-06
2.95966e-05
-4.96062e-06
3.05615e-05
-5.0045e-06
3.15334e-05
-5.04478e-06
3.25117e-05
-5.08219e-06
3.34959e-05
-5.11714e-06
3.44856e-05
-5.1498e-06
3.54802e-05
-5.1802e-06
3.64792e-05
-5.2082e-06
3.74822e-05
-5.23355e-06
3.84885e-05
-5.25598e-06
3.94975e-05
-5.27514e-06
4.05084e-05
-5.29067e-06
4.15204e-05
-5.30223e-06
4.25327e-05
-5.30947e-06
4.35444e-05
-5.31204e-06
4.45544e-05
-5.30965e-06
4.55617e-05
-5.30199e-06
4.65652e-05
-5.28881e-06
4.75638e-05
-5.26987e-06
4.85563e-05
-5.24494e-06
4.95414e-05
-5.21383e-06
5.05179e-05
-5.17635e-06
5.14845e-05
-5.13234e-06
5.244e-05
-5.08165e-06
5.33829e-05
-5.02413e-06
5.43119e-05
-4.95965e-06
5.52256e-05
-4.88807e-06
5.61226e-05
-4.80925e-06
5.70015e-05
-4.72307e-06
5.78609e-05
-4.62939e-06
5.86992e-05
-4.52805e-06
5.95151e-05
-4.41889e-06
6.03069e-05
-4.30174e-06
6.10731e-05
-4.1764e-06
6.18122e-05
-4.04266e-06
6.25227e-05
-3.90027e-06
6.32029e-05
-3.74895e-06
6.38511e-05
-3.5884e-06
6.44658e-05
-3.41826e-06
6.50452e-05
-3.2381e-06
6.55876e-05
-3.04747e-06
6.60912e-05
-2.84581e-06
6.65542e-05
-2.63249e-06
6.69749e-05
-2.40678e-06
6.73514e-05
-2.16783e-06
6.7682e-05
-1.91462e-06
6.79647e-05
-1.64598e-06
6.81979e-05
-1.36052e-06
6.838e-05
-1.05662e-06
6.85097e-05
-7.32333e-07
6.85859e-05
-3.85411e-07
6.86084e-05
-1.33038e-08
6.85778e-05
3.86836e-07
6.84965e-05
8.17712e-07
6.83693e-05
1.28284e-06
6.82042e-05
1.78558e-06
6.80138e-05
2.32876e-06
6.78168e-05
2.91383e-06
6.76393e-05
3.5397e-06
6.75156e-05
4.20093e-06
6.74862e-05
4.88549e-06
6.75921e-05
5.57198e-06
6.22712e-06
6.78585e-05
1.75845e-05
-7.66658e-07
1.78325e-05
-1.49542e-06
1.8191e-05
-2.13754e-06
1.86485e-05
-2.70818e-06
1.91937e-05
-3.21461e-06
1.98163e-05
-3.66164e-06
2.05065e-05
-4.05301e-06
2.1255e-05
-4.39245e-06
2.20535e-05
-4.68401e-06
2.28944e-05
-4.93209e-06
2.37708e-05
-5.14146e-06
2.46769e-05
-5.31704e-06
2.56075e-05
-5.46375e-06
2.65584e-05
-5.58632e-06
2.75262e-05
-5.68912e-06
2.8508e-05
-5.77607e-06
2.95017e-05
-5.85055e-06
3.05055e-05
-5.9154e-06
3.15181e-05
-5.97287e-06
3.25386e-05
-6.02471e-06
3.3566e-05
-6.0722e-06
3.45999e-05
-6.11619e-06
3.56395e-05
-6.15718e-06
3.66845e-05
-6.1954e-06
3.77343e-05
-6.23086e-06
3.87884e-05
-6.2634e-06
3.98462e-05
-6.29274e-06
4.0907e-05
-6.31852e-06
4.19702e-05
-6.34034e-06
4.3035e-05
-6.35776e-06
4.41004e-05
-6.37036e-06
4.51657e-05
-6.37772e-06
4.62298e-05
-6.37944e-06
4.72916e-05
-6.37513e-06
4.835e-05
-6.36445e-06
4.94038e-05
-6.34707e-06
5.04519e-05
-6.32272e-06
5.14929e-05
-6.29112e-06
5.25256e-05
-6.25203e-06
5.35486e-05
-6.20524e-06
5.45605e-05
-6.15055e-06
5.556e-05
-6.08778e-06
5.65456e-05
-6.01676e-06
5.75159e-05
-5.93732e-06
5.84694e-05
-5.84931e-06
5.94046e-05
-5.75259e-06
6.03201e-05
-5.647e-06
6.12142e-05
-5.53237e-06
6.20856e-05
-5.40855e-06
6.29326e-05
-5.27536e-06
6.37537e-05
-5.13261e-06
6.45473e-05
-4.98009e-06
6.53118e-05
-4.81757e-06
6.60456e-05
-4.6448e-06
6.67472e-05
-4.46149e-06
6.7415e-05
-4.26732e-06
6.80472e-05
-4.06193e-06
6.86424e-05
-3.84491e-06
6.91988e-05
-3.61578e-06
6.9715e-05
-3.37403e-06
7.01894e-05
-3.11904e-06
7.06204e-05
-2.85014e-06
7.10067e-05
-2.56654e-06
7.13469e-05
-2.26735e-06
7.16398e-05
-1.95154e-06
7.18846e-05
-1.61796e-06
7.20806e-05
-1.26532e-06
7.22278e-05
-8.9215e-07
7.23265e-05
-4.96851e-07
7.23784e-05
-7.77526e-08
7.23862e-05
3.66537e-07
7.23543e-05
8.37109e-07
7.22898e-05
1.33512e-06
7.22021e-05
1.8611e-06
7.21045e-05
2.41447e-06
7.20137e-05
2.99292e-06
7.19502e-05
3.59168e-06
7.19373e-05
4.20264e-06
7.19982e-05
4.8136e-06
7.21517e-05
5.40784e-06
5.96494e-06
7.24036e-05
1.88117e-05
-8.93122e-07
1.90713e-05
-1.75481e-06
1.94482e-05
-2.51412e-06
1.99304e-05
-3.18985e-06
2.05061e-05
-3.78973e-06
2.11643e-05
-4.31908e-06
2.18943e-05
-4.78227e-06
2.26865e-05
-5.18374e-06
2.35318e-05
-5.5283e-06
2.44219e-05
-5.82121e-06
2.53496e-05
-6.06813e-06
2.63085e-05
-6.27493e-06
2.72932e-05
-6.44744e-06
2.82991e-05
-6.59128e-06
2.93225e-05
-6.71165e-06
3.03605e-05
-6.81319e-06
3.14106e-05
-6.89993e-06
3.2471e-05
-6.97522e-06
3.35402e-05
-7.04174e-06
3.46173e-05
-7.10156e-06
3.57014e-05
-7.1562e-06
3.67917e-05
-7.20667e-06
3.78877e-05
-7.25357e-06
3.89889e-05
-7.29718e-06
4.00946e-05
-7.3375e-06
4.12044e-05
-7.37435e-06
4.23175e-05
-7.40738e-06
4.34334e-05
-7.43619e-06
4.45512e-05
-7.46029e-06
4.56702e-05
-7.47918e-06
4.67893e-05
-7.49234e-06
4.79077e-05
-7.49927e-06
4.90242e-05
-7.49951e-06
5.01378e-05
-7.4926e-06
5.12472e-05
-7.47814e-06
5.23511e-05
-7.45573e-06
5.34484e-05
-7.42505e-06
5.45375e-05
-7.38578e-06
5.56173e-05
-7.33764e-06
5.66861e-05
-7.28038e-06
5.77426e-05
-7.21376e-06
5.87853e-05
-7.13758e-06
5.98127e-05
-7.05164e-06
6.08232e-05
-6.95576e-06
6.18154e-05
-6.84977e-06
6.27876e-05
-6.7335e-06
6.37384e-05
-6.60678e-06
6.4666e-05
-6.46945e-06
6.5569e-05
-6.32133e-06
6.64458e-05
-6.16225e-06
6.72947e-05
-5.992e-06
6.81142e-05
-5.81039e-06
6.89027e-05
-5.61718e-06
6.96586e-05
-5.41214e-06
7.03804e-05
-5.19498e-06
7.10665e-05
-4.9654e-06
7.17154e-05
-4.72308e-06
7.23257e-05
-4.46763e-06
7.28959e-05
-4.19865e-06
7.34247e-05
-3.91568e-06
7.39108e-05
-3.61821e-06
7.43532e-05
-3.30567e-06
7.47508e-05
-2.97745e-06
7.51029e-05
-2.63288e-06
7.5409e-05
-2.2712e-06
7.56692e-05
-1.89165e-06
7.58837e-05
-1.4934e-06
7.60536e-05
-1.07562e-06
7.61807e-05
-6.3751e-07
7.62678e-05
-1.7841e-07
7.63191e-05
3.01817e-07
7.63403e-05
8.02665e-07
7.63388e-05
1.32344e-06
7.63242e-05
1.86267e-06
7.63081e-05
2.41773e-06
7.63039e-05
2.9845e-06
7.63262e-05
3.55709e-06
7.63892e-05
4.12752e-06
7.65052e-05
4.68576e-06
7.66814e-05
5.22012e-06
5.71868e-06
7.69165e-05
2.01247e-05
-1.02456e-06
2.03962e-05
-2.0261e-06
2.07919e-05
-2.90952e-06
2.12994e-05
-3.69676e-06
2.19063e-05
-4.39601e-06
2.26009e-05
-5.01289e-06
2.33719e-05
-5.55242e-06
2.42089e-05
-6.01973e-06
2.51021e-05
-6.42046e-06
2.60427e-05
-6.76077e-06
2.7023e-05
-7.04729e-06
2.8036e-05
-7.28689e-06
2.90761e-05
-7.48641e-06
3.01382e-05
-7.65241e-06
3.12185e-05
-7.79097e-06
3.23137e-05
-7.90751e-06
3.34213e-05
-8.00675e-06
3.45393e-05
-8.09258e-06
3.56662e-05
-8.16816e-06
3.68008e-05
-8.2359e-06
3.79422e-05
-8.29757e-06
3.90898e-05
-8.35435e-06
4.02428e-05
-8.40696e-06
4.14006e-05
-8.4557e-06
4.25628e-05
-8.5006e-06
4.37286e-05
-8.54142e-06
4.48974e-05
-8.57779e-06
4.60686e-05
-8.60922e-06
4.72412e-05
-8.63515e-06
4.84144e-05
-8.65498e-06
4.95872e-05
-8.66812e-06
5.07585e-05
-8.674e-06
5.19273e-05
-8.67205e-06
5.30923e-05
-8.66177e-06
5.42522e-05
-8.64266e-06
5.54058e-05
-8.6143e-06
5.65516e-05
-8.57628e-06
5.76882e-05
-8.52825e-06
5.88141e-05
-8.46988e-06
5.99279e-05
-8.40089e-06
6.1028e-05
-8.32101e-06
6.21129e-05
-8.23e-06
6.31809e-05
-8.12765e-06
6.42305e-05
-8.01377e-06
6.526e-05
-7.88815e-06
6.62679e-05
-7.75064e-06
6.72525e-05
-7.60105e-06
6.82122e-05
-7.43922e-06
6.91454e-05
-7.26497e-06
7.00504e-05
-7.07813e-06
7.09258e-05
-6.87852e-06
7.17698e-05
-6.66596e-06
7.25809e-05
-6.44023e-06
7.33577e-05
-6.20113e-06
7.40986e-05
-5.94841e-06
7.48023e-05
-5.68184e-06
7.54673e-05
-5.40115e-06
7.60923e-05
-5.10603e-06
7.66763e-05
-4.79619e-06
7.72182e-05
-4.47129e-06
7.7717e-05
-4.13098e-06
7.81721e-05
-3.7749e-06
7.85831e-05
-3.40267e-06
7.89498e-05
-3.01392e-06
7.92724e-05
-2.60829e-06
7.95517e-05
-2.18546e-06
7.97889e-05
-1.74517e-06
7.99861e-05
-1.28729e-06
8.01459e-05
-8.11841e-07
8.02721e-05
-3.19098e-07
8.03694e-05
1.90168e-07
8.04436e-05
7.14187e-07
8.0502e-05
1.25095e-06
8.05529e-05
1.79778e-06
8.06058e-05
2.35115e-06
8.06702e-05
2.90648e-06
8.07559e-05
3.45812e-06
8.0871e-05
3.99937e-06
8.10213e-05
4.52274e-06
8.12085e-05
5.02046e-06
5.48587e-06
8.14292e-05
2.15295e-05
-1.16132e-06
2.18132e-05
-2.3096e-06
2.22283e-05
-3.32417e-06
2.27616e-05
-4.22947e-06
2.34004e-05
-5.03409e-06
2.41322e-05
-5.74386e-06
2.4945e-05
-6.36433e-06
2.58277e-05
-6.90138e-06
2.67699e-05
-7.3615e-06
2.77621e-05
-7.75181e-06
2.87959e-05
-8.07998e-06
2.98642e-05
-8.35396e-06
3.09606e-05
-8.58165e-06
3.208e-05
-8.77064e-06
3.3218e-05
-8.92794e-06
3.43713e-05
-9.05983e-06
3.55371e-05
-9.17172e-06
3.67133e-05
-9.26814e-06
3.78984e-05
-9.35271e-06
3.9091e-05
-9.42822e-06
4.02903e-05
-9.49671e-06
4.14954e-05
-9.55956e-06
4.27056e-05
-9.61757e-06
4.39203e-05
-9.67112e-06
4.5139e-05
-9.72022e-06
4.63609e-05
-9.76462e-06
4.75853e-05
-9.80388e-06
4.88115e-05
-9.83744e-06
5.00386e-05
-9.86464e-06
5.12657e-05
-9.88482e-06
5.24917e-05
-9.89728e-06
5.37155e-05
-9.90137e-06
5.49359e-05
-9.89645e-06
5.61516e-05
-9.88192e-06
5.73613e-05
-9.85723e-06
5.85636e-05
-9.82189e-06
5.97569e-05
-9.77543e-06
6.09399e-05
-9.71746e-06
6.21109e-05
-9.6476e-06
6.32684e-05
-9.56554e-06
6.44108e-05
-9.47097e-06
6.55363e-05
-9.36365e-06
6.66435e-05
-9.24334e-06
6.77306e-05
-9.10982e-06
6.87959e-05
-8.96291e-06
6.98378e-05
-8.80242e-06
7.08546e-05
-8.62819e-06
7.18447e-05
-8.44005e-06
7.28064e-05
-8.23785e-06
7.37381e-05
-8.02145e-06
7.46383e-05
-7.79068e-06
7.55055e-05
-7.5454e-06
7.6338e-05
-7.28546e-06
7.71345e-05
-7.01069e-06
7.78936e-05
-6.72093e-06
7.86141e-05
-6.41603e-06
7.92948e-05
-6.09582e-06
7.99347e-05
-5.76014e-06
8.05329e-05
-5.40882e-06
8.10886e-05
-5.04172e-06
8.16014e-05
-4.6587e-06
8.2071e-05
-4.25965e-06
8.24977e-05
-3.84451e-06
8.28816e-05
-3.41327e-06
8.32239e-05
-2.96599e-06
8.35258e-05
-2.50286e-06
8.37893e-05
-2.02419e-06
8.40169e-05
-1.53052e-06
8.42122e-05
-1.02262e-06
8.43792e-05
-5.0156e-07
8.45224e-05
3.15106e-08
8.46473e-05
5.741e-07
8.47601e-05
1.12299e-06
8.48678e-05
1.67511e-06
8.49773e-05
2.22684e-06
8.50954e-05
2.77386e-06
8.52279e-05
3.31134e-06
8.53792e-05
3.83408e-06
8.55515e-05
4.33673e-06
8.57442e-05
4.81432e-06
5.26327e-06
8.59537e-05
2.30325e-05
-1.30374e-06
2.33289e-05
-2.60567e-06
2.37637e-05
-3.75854e-06
2.43233e-05
-4.78851e-06
2.49946e-05
-5.70458e-06
2.57643e-05
-6.51264e-06
2.66197e-05
-7.21872e-06
2.75488e-05
-7.82944e-06
2.85407e-05
-8.35217e-06
2.95852e-05
-8.79506e-06
3.06734e-05
-9.16691e-06
3.17975e-05
-9.47679e-06
3.29509e-05
-9.73376e-06
3.4128e-05
-9.9465e-06
3.53242e-05
-1.0123e-05
3.65359e-05
-1.02705e-05
3.77602e-05
-1.03951e-05
3.89949e-05
-1.05021e-05
4.02383e-05
-1.05955e-05
4.14889e-05
-1.06785e-05
4.27459e-05
-1.07535e-05
4.40083e-05
-1.08221e-05
4.52755e-05
-1.08851e-05
4.65468e-05
-1.09431e-05
4.78215e-05
-1.09959e-05
4.90989e-05
-1.10434e-05
5.03783e-05
-1.1085e-05
5.16589e-05
-1.11201e-05
5.29398e-05
-1.1148e-05
5.42198e-05
-1.11678e-05
5.54981e-05
-1.11788e-05
5.67732e-05
-1.11803e-05
5.80441e-05
-1.11715e-05
5.93093e-05
-1.11518e-05
6.05674e-05
-1.11205e-05
6.18169e-05
-1.10771e-05
6.30563e-05
-1.1021e-05
6.42841e-05
-1.09518e-05
6.54985e-05
-1.08691e-05
6.66979e-05
-1.07726e-05
6.78807e-05
-1.06619e-05
6.90451e-05
-1.05367e-05
7.01894e-05
-1.03968e-05
7.1312e-05
-1.0242e-05
7.24111e-05
-1.00721e-05
7.3485e-05
-9.88688e-06
7.45321e-05
-9.68625e-06
7.55506e-05
-9.47005e-06
7.6539e-05
-9.23816e-06
7.74957e-05
-8.99046e-06
7.84191e-05
-8.72686e-06
7.93078e-05
-8.44726e-06
8.01603e-05
-8.15158e-06
8.09755e-05
-7.83977e-06
8.1752e-05
-7.51175e-06
8.24889e-05
-7.16749e-06
8.31851e-05
-6.80697e-06
8.38399e-05
-6.43019e-06
8.44528e-05
-6.03719e-06
8.50234e-05
-5.62803e-06
8.55516e-05
-5.20285e-06
8.60377e-05
-4.76184e-06
8.64822e-05
-4.30527e-06
8.6886e-05
-3.83352e-06
8.72506e-05
-3.34708e-06
8.75777e-05
-2.84661e-06
8.78699e-05
-2.33295e-06
8.81299e-05
-1.80719e-06
8.83613e-05
-1.27065e-06
8.85682e-05
-7.24943e-07
8.87551e-05
-1.71873e-07
8.89267e-05
3.86126e-07
8.9088e-05
9.45496e-07
8.92441e-05
1.50301e-06
8.93999e-05
2.05518e-06
8.95598e-05
2.59831e-06
8.97273e-05
3.12851e-06
8.99044e-05
3.6419e-06
9.00915e-05
4.13477e-06
9.02874e-05
4.60395e-06
5.04769e-06
9.04889e-05
2.46406e-05
-1.45213e-06
2.49499e-05
-2.91468e-06
2.54049e-05
-4.21303e-06
2.59913e-05
-5.37432e-06
2.66955e-05
-6.40794e-06
2.75035e-05
-7.31969e-06
2.8402e-05
-8.11604e-06
2.93781e-05
-8.80432e-06
3.042e-05
-9.39285e-06
3.15172e-05
-9.89087e-06
3.266e-05
-1.03083e-05
3.38401e-05
-1.06555e-05
3.50506e-05
-1.09428e-05
3.62853e-05
-1.11799e-05
3.75396e-05
-1.13761e-05
3.88095e-05
-1.15393e-05
4.0092e-05
-1.16766e-05
4.13847e-05
-1.17939e-05
4.26857e-05
-1.18959e-05
4.39938e-05
-1.19861e-05
4.53077e-05
-1.20673e-05
4.66267e-05
-1.21411e-05
4.79499e-05
-1.22087e-05
4.92766e-05
-1.22705e-05
5.06063e-05
-1.23266e-05
5.1938e-05
-1.23766e-05
5.32712e-05
-1.24199e-05
5.46047e-05
-1.24559e-05
5.59378e-05
-1.24837e-05
5.72693e-05
-1.25024e-05
5.85981e-05
-1.25111e-05
5.99229e-05
-1.25091e-05
6.12424e-05
-1.24955e-05
6.25551e-05
-1.24695e-05
6.38596e-05
-1.24305e-05
6.51543e-05
-1.23777e-05
6.64376e-05
-1.23108e-05
6.77078e-05
-1.22291e-05
6.89633e-05
-1.21321e-05
7.02022e-05
-1.20197e-05
7.1423e-05
-1.18912e-05
7.26238e-05
-1.17466e-05
7.38029e-05
-1.15856e-05
7.49585e-05
-1.14078e-05
7.60889e-05
-1.12132e-05
7.71925e-05
-1.10016e-05
7.82674e-05
-1.07729e-05
7.93121e-05
-1.0527e-05
8.03249e-05
-1.02637e-05
8.13045e-05
-9.98316e-06
8.22492e-05
-9.68522e-06
8.31578e-05
-9.36991e-06
8.4029e-05
-9.03724e-06
8.48616e-05
-8.68727e-06
8.56547e-05
-8.32007e-06
8.64074e-05
-7.93576e-06
8.7119e-05
-7.5345e-06
8.7789e-05
-7.11648e-06
8.84173e-05
-6.68198e-06
8.90038e-05
-6.23132e-06
8.95488e-05
-5.7649e-06
9.0053e-05
-5.28324e-06
9.05173e-05
-4.78696e-06
9.09431e-05
-4.2768e-06
9.1332e-05
-3.75365e-06
9.16863e-05
-3.21861e-06
9.20086e-05
-2.67293e-06
9.23017e-05
-2.1181e-06
9.25692e-05
-1.55586e-06
9.28147e-05
-9.88171e-07
9.30424e-05
-4.17193e-07
9.3256e-05
1.55001e-07
9.34592e-05
7.24984e-07
9.36557e-05
1.28933e-06
9.38489e-05
1.84496e-06
9.40417e-05
2.38886e-06
9.42357e-05
2.918e-06
9.44319e-05
3.42951e-06
9.46299e-05
3.92085e-06
9.48283e-05
4.38999e-06
4.83626e-06
9.50244e-05
2.6361e-05
-1.60678e-06
2.66836e-05
-3.23695e-06
2.7159e-05
-4.68796e-06
2.77727e-05
-5.98724e-06
2.851e-05
-7.14443e-06
2.93566e-05
-8.16522e-06
3.02982e-05
-9.05641e-06
3.13212e-05
-9.82607e-06
3.24133e-05
-1.04835e-05
3.35629e-05
-1.1039e-05
3.47599e-05
-1.15039e-05
3.59957e-05
-1.18898e-05
3.72625e-05
-1.22082e-05
3.85543e-05
-1.24702e-05
3.98657e-05
-1.26862e-05
4.11928e-05
-1.28651e-05
4.25324e-05
-1.3015e-05
4.38818e-05
-1.31424e-05
4.52392e-05
-1.32525e-05
4.66031e-05
-1.33495e-05
4.79724e-05
-1.34363e-05
4.93462e-05
-1.35149e-05
5.07237e-05
-1.35865e-05
5.21041e-05
-1.36516e-05
5.34867e-05
-1.37102e-05
5.48707e-05
-1.37621e-05
5.62554e-05
-1.38064e-05
5.76397e-05
-1.38425e-05
5.90227e-05
-1.38694e-05
6.04032e-05
-1.38861e-05
6.178e-05
-1.38917e-05
6.31518e-05
-1.38851e-05
6.45172e-05
-1.38656e-05
6.58747e-05
-1.38322e-05
6.72228e-05
-1.37843e-05
6.85597e-05
-1.3721e-05
6.98838e-05
-1.36418e-05
7.11935e-05
-1.35462e-05
7.24869e-05
-1.34336e-05
7.37624e-05
-1.33037e-05
7.5018e-05
-1.3156e-05
7.6252e-05
-1.29904e-05
7.74627e-05
-1.28065e-05
7.86483e-05
-1.26042e-05
7.9807e-05
-1.23833e-05
8.09371e-05
-1.21437e-05
8.2037e-05
-1.18853e-05
8.31052e-05
-1.16081e-05
8.414e-05
-1.13121e-05
8.514e-05
-1.09972e-05
8.6104e-05
-1.06637e-05
8.70306e-05
-1.03115e-05
8.79189e-05
-9.94088e-06
8.87677e-05
-9.55197e-06
8.95764e-05
-9.14503e-06
9.03444e-05
-8.72034e-06
9.10712e-05
-8.27828e-06
9.17567e-05
-7.81927e-06
9.24009e-05
-7.34381e-06
9.30042e-05
-6.8525e-06
9.35672e-05
-6.34605e-06
9.40908e-05
-5.82527e-06
9.45764e-05
-5.29109e-06
9.50255e-05
-4.7446e-06
9.54401e-05
-4.18705e-06
9.58225e-05
-3.61982e-06
9.61751e-05
-3.04452e-06
9.6501e-05
-2.46291e-06
9.68031e-05
-1.87695e-06
9.70848e-05
-1.28878e-06
9.73495e-05
-7.00661e-07
9.76002e-05
-1.14448e-07
9.78395e-05
4.67131e-07
9.80701e-05
1.04043e-06
9.8294e-05
1.60285e-06
9.8513e-05
2.15191e-06
9.87281e-05
2.68528e-06
9.89393e-05
3.20087e-06
9.91462e-05
3.69687e-06
9.93475e-05
4.17201e-06
4.62622e-06
9.95411e-05
2.82015e-05
-1.76794e-06
2.85376e-05
-3.57276e-06
2.90338e-05
-5.18356e-06
2.96747e-05
-6.6274e-06
3.04453e-05
-7.91406e-06
3.13303e-05
-9.04908e-06
3.23147e-05
-1.00395e-05
3.33842e-05
-1.08942e-05
3.45256e-05
-1.16233e-05
3.57268e-05
-1.22386e-05
3.6977e-05
-1.27525e-05
3.82671e-05
-1.31781e-05
3.95889e-05
-1.35284e-05
4.0936e-05
-1.38157e-05
4.23029e-05
-1.40515e-05
4.36853e-05
-1.42461e-05
4.50797e-05
-1.44082e-05
4.64836e-05
-1.45452e-05
4.7895e-05
-1.46631e-05
4.93124e-05
-1.47663e-05
5.07345e-05
-1.48581e-05
5.21604e-05
-1.49408e-05
5.35893e-05
-1.50157e-05
5.50204e-05
-1.50834e-05
5.64529e-05
-1.51438e-05
5.78862e-05
-1.51967e-05
5.93191e-05
-1.52413e-05
6.07509e-05
-1.52766e-05
6.21804e-05
-1.53017e-05
6.36065e-05
-1.53155e-05
6.50278e-05
-1.53168e-05
6.6443e-05
-1.53047e-05
6.78507e-05
-1.52782e-05
6.92492e-05
-1.52362e-05
7.06369e-05
-1.51781e-05
7.20121e-05
-1.51029e-05
7.33732e-05
-1.50102e-05
7.47184e-05
-1.48992e-05
7.60458e-05
-1.47694e-05
7.73536e-05
-1.46206e-05
7.86401e-05
-1.44522e-05
7.99035e-05
-1.4264e-05
8.11418e-05
-1.40558e-05
8.23535e-05
-1.38274e-05
8.35368e-05
-1.35787e-05
8.469e-05
-1.33096e-05
8.58115e-05
-1.30201e-05
8.68999e-05
-1.27103e-05
8.79536e-05
-1.23802e-05
8.89715e-05
-1.203e-05
8.99522e-05
-1.16598e-05
9.08947e-05
-1.127e-05
9.17982e-05
-1.08607e-05
9.26618e-05
-1.04325e-05
9.34851e-05
-9.98556e-06
9.42676e-05
-9.52055e-06
9.50092e-05
-9.03799e-06
9.57101e-05
-8.53856e-06
9.63705e-05
-8.02301e-06
9.69911e-05
-7.4922e-06
9.75729e-05
-6.94711e-06
9.81169e-05
-6.38883e-06
9.86246e-05
-5.81858e-06
9.90979e-05
-5.23772e-06
9.95385e-05
-4.64775e-06
9.99489e-05
-4.05032e-06
0.000100331
-3.44721e-06
0.000100689
-2.84034e-06
0.000101023
-2.23177e-06
0.000101338
-1.62365e-06
0.000101635
-1.01819e-06
0.000101919
-4.17544e-07
0.000102189
1.76636e-07
0.000102449
7.61306e-07
0.000102699
1.33369e-06
0.00010294
1.89174e-06
0.000103172
2.43369e-06
0.000103397
2.95795e-06
0.000103612
3.46324e-06
0.000103817
3.94872e-06
4.41471e-06
0.000104011
3.01704e-05
-1.93577e-06
3.05203e-05
-3.92228e-06
3.10372e-05
-5.69985e-06
3.17053e-05
-7.29466e-06
3.25087e-05
-8.71647e-06
3.34315e-05
-9.97064e-06
3.44578e-05
-1.10644e-05
3.55727e-05
-1.20074e-05
3.6762e-05
-1.2811e-05
3.8013e-05
-1.34879e-05
3.93145e-05
-1.40522e-05
4.06566e-05
-1.45185e-05
4.2031e-05
-1.4901e-05
4.34307e-05
-1.52137e-05
4.48501e-05
-1.54692e-05
4.62846e-05
-1.5679e-05
4.77307e-05
-1.58529e-05
4.91856e-05
-1.5999e-05
5.06474e-05
-1.61239e-05
5.21145e-05
-1.62325e-05
5.35855e-05
-1.63287e-05
5.50596e-05
-1.64147e-05
5.65359e-05
-1.64922e-05
5.80135e-05
-1.65616e-05
5.94918e-05
-1.66231e-05
6.09699e-05
-1.66762e-05
6.24468e-05
-1.67201e-05
6.39215e-05
-1.67537e-05
6.53929e-05
-1.67761e-05
6.68599e-05
-1.67858e-05
6.83209e-05
-1.67819e-05
6.97747e-05
-1.67631e-05
7.12197e-05
-1.67283e-05
7.26542e-05
-1.66765e-05
7.40766e-05
-1.66068e-05
7.54852e-05
-1.65185e-05
7.68781e-05
-1.64107e-05
7.82537e-05
-1.6283e-05
7.961e-05
-1.61347e-05
8.09453e-05
-1.59654e-05
8.22577e-05
-1.57748e-05
8.35455e-05
-1.55626e-05
8.48068e-05
-1.53286e-05
8.604e-05
-1.50727e-05
8.72433e-05
-1.47948e-05
8.84153e-05
-1.4495e-05
8.95544e-05
-1.41732e-05
9.06592e-05
-1.38297e-05
9.17284e-05
-1.34646e-05
9.27608e-05
-1.30782e-05
9.37553e-05
-1.26708e-05
9.47112e-05
-1.22428e-05
9.56278e-05
-1.17947e-05
9.65044e-05
-1.1327e-05
9.73407e-05
-1.08403e-05