/*--------------------------------*- C++ -*----------------------------------*\
  =========                 |
  \\      /  F ield         | OpenFOAM: The Open Source CFD Toolbox
   \\    /   O peration     | Website:  https://openfoam.org
    \\  /    A nd           | Version:  7
     \\/     M anipulation  |
\*---------------------------------------------------------------------------*/
FoamFile
{
    version     2.0;
    format      ascii;
    class       volVectorField;
    location    "9.47";
    object      U;
}
// * * * * * * * * * * * * * * * * * * * * * * * * * * * * * * * * * * * * * //

dimensions      [0 1 -1 0 0 0 0];

internalField   nonuniform List<vector> 
12013
(
(0.100974 -0.000260142 0)
(0.104744 -0.000448786 0)
(0.110423 -0.000611038 0)
(0.117465 -0.000753916 0)
(0.125713 -0.000884235 0)
(0.135023 -0.00100732 0)
(0.145301 -0.0011276 0)
(0.156498 -0.00124865 0)
(0.168594 -0.00137289 0)
(0.181583 -0.00150139 0)
(0.195464 -0.0016337 0)
(0.210223 -0.00176801 0)
(0.225825 -0.0019014 0)
(0.242208 -0.00203029 0)
(0.259283 -0.00215087 0)
(0.276936 -0.0022596 0)
(0.295033 -0.00235352 0)
(0.313427 -0.00243043 0)
(0.331966 -0.00248898 0)
(0.350501 -0.00252866 0)
(0.36889 -0.00254966 0)
(0.387002 -0.00255275 0)
(0.404723 -0.00253914 0)
(0.421953 -0.00251029 0)
(0.43861 -0.00246783 0)
(0.454627 -0.00241345 0)
(0.469952 -0.00234879 0)
(0.484549 -0.00227545 0)
(0.498392 -0.00219489 0)
(0.511465 -0.00210845 0)
(0.523764 -0.00201734 0)
(0.53529 -0.00192263 0)
(0.546053 -0.00182525 0)
(0.556065 -0.001726 0)
(0.565344 -0.00162561 0)
(0.573913 -0.00152464 0)
(0.581794 -0.00142362 0)
(0.589014 -0.00132297 0)
(0.5956 -0.00122304 0)
(0.60158 -0.00112414 0)
(0.606983 -0.0010265 0)
(0.611838 -0.000930325 0)
(0.616175 -0.00083577 0)
(0.620022 -0.000742949 0)
(0.62341 -0.000651945 0)
(0.626366 -0.000562816 0)
(0.62892 -0.000475584 0)
(0.631099 -0.000390234 0)
(0.632931 -0.000306721 0)
(0.634443 -0.000224964 0)
(0.63566 -0.000144836 0)
(0.636608 -6.61591e-05 0)
(0.637312 1.1263e-05 0)
(0.637795 8.761e-05 0)
(0.63808 0.000163062 0)
(0.63819 0.0002379 0)
(0.638147 0.000312501 0)
(0.637973 0.000387331 0)
(0.637686 0.000462952 0)
(0.637306 0.000540046 0)
(0.636849 0.000619441 0)
(0.636331 0.000702147 0)
(0.635765 0.000789406 0)
(0.635163 0.000882748 0)
(0.634532 0.000984083 0)
(0.633877 0.00109582 0)
(0.633199 0.00122103 0)
(0.63249 0.00136372 0)
(0.631739 0.00152919 0)
(0.630921 0.00172462 0)
(0.629997 0.00196004 0)
(0.62891 0.0022499 0)
(0.627571 0.00261577 0)
(0.625842 0.00309135 0)
(0.623513 0.00373184 0)
(0.620247 0.00463263 0)
(0.615486 0.0059688 0)
(0.608243 0.00808821 0)
(0.596739 0.0118126 0)
(0.577829 0.0200821 0)
(0.559019 0.0534995 0)
(0.100884 -0.000792155 0)
(0.104631 -0.00137324 0)
(0.110277 -0.00187009 0)
(0.117291 -0.00230686 0)
(0.125512 -0.00270499 0)
(0.134799 -0.00308071 0)
(0.145055 -0.00344763 0)
(0.156233 -0.00381672 0)
(0.168312 -0.00419541 0)
(0.18129 -0.0045869 0)
(0.195165 -0.00498989 0)
(0.209924 -0.00539882 0)
(0.225534 -0.0058048 0)
(0.241934 -0.00619688 0)
(0.259036 -0.00656356 0)
(0.276723 -0.00689408 0)
(0.294862 -0.00717945 0)
(0.313304 -0.00741307 0)
(0.331895 -0.00759091 0)
(0.350485 -0.00771143 0)
(0.36893 -0.00777527 0)
(0.387099 -0.00778479 0)
(0.404876 -0.00774363 0)
(0.422159 -0.00765624 0)
(0.438867 -0.00752756 0)
(0.454932 -0.00736266 0)
(0.470302 -0.00716655 0)
(0.484939 -0.00694398 0)
(0.498819 -0.00669942 0)
(0.511926 -0.00643691 0)
(0.524255 -0.00616009 0)
(0.535808 -0.00587217 0)
(0.546593 -0.005576 0)
(0.556626 -0.00527401 0)
(0.565923 -0.00496833 0)
(0.574507 -0.00466078 0)
(0.5824 -0.00435288 0)
(0.58963 -0.00404594 0)
(0.596224 -0.00374105 0)
(0.602209 -0.0034391 0)
(0.607616 -0.00314086 0)
(0.612472 -0.00284691 0)
(0.616809 -0.00255775 0)
(0.620654 -0.00227373 0)
(0.624038 -0.00199512 0)
(0.626989 -0.00172208 0)
(0.629535 -0.0014547 0)
(0.631705 -0.00119292 0)
(0.633526 -0.000936627 0)
(0.635025 -0.000685567 0)
(0.636228 -0.000439356 0)
(0.637159 -0.00019745 0)
(0.637844 4.0728e-05 0)
(0.638306 0.000275669 0)
(0.638568 0.000507899 0)
(0.638653 0.000738267 0)
(0.638583 0.000967926 0)
(0.638378 0.0011983 0)
(0.638058 0.0014311 0)
(0.637641 0.0016684 0)
(0.637145 0.00191274 0)
(0.636584 0.00216716 0)
(0.635973 0.00243544 0)
(0.635322 0.00272218 0)
(0.63464 0.00303312 0)
(0.633932 0.00337546 0)
(0.633199 0.00375836 0)
(0.632436 0.00419366 0)
(0.631634 0.00469693 0)
(0.630772 0.00528911 0)
(0.629818 0.00599907 0)
(0.628725 0.00686779 0)
(0.627422 0.00795531 0)
(0.625807 0.00935292 0)
(0.623731 0.011205 0)
(0.620981 0.0137497 0)
(0.617253 0.0173963 0)
(0.612121 0.02288 0)
(0.605036 0.0315987 0)
(0.595898 0.0462903 0)
(0.592747 0.0721658 0)
(0.10078 -0.00134054 0)
(0.104466 -0.00235116 0)
(0.11004 -0.00320764 0)
(0.116992 -0.00396009 0)
(0.125159 -0.00464582 0)
(0.134396 -0.00529283 0)
(0.144608 -0.00592472 0)
(0.155747 -0.00656057 0)
(0.167795 -0.00721332 0)
(0.18075 -0.00788864 0)
(0.194615 -0.00858435 0)
(0.209379 -0.00929089 0)
(0.225012 -0.00999283 0)
(0.241453 -0.0106712 0)
(0.258613 -0.0113059 0)
(0.276376 -0.0118783 0)
(0.294605 -0.0123727 0)
(0.313149 -0.0127775 0)
(0.331851 -0.0130859 0)
(0.350557 -0.013295 0)
(0.369121 -0.013406 0)
(0.387407 -0.0134229 0)
(0.405298 -0.0133522 0)
(0.422691 -0.0132016 0)
(0.439503 -0.0129795 0)
(0.455664 -0.0126949 0)
(0.471124 -0.0123563 0)
(0.485844 -0.0119721 0)
(0.499798 -0.0115499 0)
(0.512973 -0.0110967 0)
(0.525361 -0.0106188 0)
(0.536968 -0.0101218 0)
(0.5478 -0.00961062 0)
(0.557873 -0.00908941 0)
(0.567205 -0.00856186 0)
(0.575818 -0.00803107 0)
(0.583736 -0.00749971 0)
(0.590986 -0.00697001 0)
(0.597594 -0.00644383 0)
(0.603591 -0.00592273 0)
(0.609005 -0.00540799 0)
(0.613865 -0.00490064 0)
(0.618202 -0.00440149 0)
(0.622044 -0.00391117 0)
(0.625421 -0.00343011 0)
(0.628362 -0.0029586 0)
(0.630896 -0.00249673 0)
(0.63305 -0.00204444 0)
(0.634852 -0.0016015 0)
(0.636329 -0.00116747 0)
(0.637506 -0.000741663 0)
(0.638408 -0.000323159 0)
(0.639061 8.90055e-05 0)
(0.639487 0.000495688 0)
(0.63971 0.000897881 0)
(0.639753 0.00129709 0)
(0.639636 0.00169531 0)
(0.63938 0.00209497 0)
(0.639006 0.00249901 0)
(0.63853 0.00291096 0)
(0.63797 0.00333509 0)
(0.637341 0.00377658 0)
(0.636657 0.00424172 0)
(0.63593 0.00473821 0)
(0.635169 0.00527558 0)
(0.634379 0.00586566 0)
(0.633566 0.00652343 0)
(0.632726 0.00726797 0)
(0.631854 0.0081241 0)
(0.630937 0.00912464 0)
(0.629956 0.0103138 0)
(0.62888 0.0117528 0)
(0.62767 0.0135279 0)
(0.626274 0.0157642 0)
(0.624629 0.0186476 0)
(0.622676 0.0224605 0)
(0.620387 0.027639 0)
(0.617845 0.0348631 0)
(0.615429 0.0452004 0)
(0.614261 0.0602467 0)
(0.618263 0.0814538 0)
(0.100669 -0.00189751 0)
(0.104271 -0.00337668 0)
(0.109739 -0.00461975 0)
(0.116599 -0.0057123 0)
(0.124683 -0.00670766 0)
(0.133845 -0.00764659 0)
(0.14399 -0.0085638 0)
(0.155071 -0.00948735 0)
(0.167073 -0.0104364 0)
(0.179999 -0.0114195 0)
(0.193856 -0.0124337 0)
(0.208637 -0.013465 0)
(0.224315 -0.0144908 0)
(0.240832 -0.015483 0)
(0.258098 -0.0164121 0)
(0.275995 -0.0172503 0)
(0.294379 -0.0179745 0)
(0.313097 -0.0185676 0)
(0.331984 -0.0190193 0)
(0.350881 -0.0193256 0)
(0.369636 -0.0194881 0)
(0.388111 -0.0195131 0)
(0.406184 -0.0194097 0)
(0.42375 -0.0191896 0)
(0.440724 -0.0188653 0)
(0.457036 -0.0184497 0)
(0.472633 -0.0179556 0)
(0.487477 -0.0173951 0)
(0.501544 -0.0167794 0)
(0.514818 -0.0161188 0)
(0.527296 -0.0154224 0)
(0.53898 -0.0146984 0)
(0.54988 -0.0139539 0)
(0.560012 -0.0131951 0)
(0.569394 -0.0124272 0)
(0.578048 -0.0116547 0)
(0.586 -0.0108816 0)
(0.593277 -0.0101109 0)
(0.599907 -0.00934546 0)
(0.605918 -0.00858746 0)
(0.611341 -0.00783874 0)
(0.616206 -0.00710076 0)
(0.620541 -0.00637469 0)
(0.624378 -0.00566139 0)
(0.627746 -0.00496148 0)
(0.630672 -0.00427534 0)
(0.633188 -0.00360308 0)
(0.635319 -0.0029446 0)
(0.637094 -0.00229952 0)
(0.63854 -0.00166719 0)
(0.639681 -0.00104663 0)
(0.640544 -0.00043648 0)
(0.641153 0.000164597 0)
(0.641532 0.00075786 0)
(0.641704 0.00134488 0)
(0.641691 0.00192789 0)
(0.641514 0.00250979 0)
(0.641193 0.00309405 0)
(0.640749 0.00368485 0)
(0.640199 0.00428721 0)
(0.639561 0.00490713 0)
(0.638849 0.00555183 0)
(0.638079 0.00623005 0)
(0.637263 0.00695238 0)
(0.63641 0.00773179 0)
(0.635531 0.00858424 0)
(0.634631 0.00952961 0)
(0.633714 0.0105929 0)
(0.632779 0.0118059 0)
(0.631826 0.0132096 0)
(0.630848 0.0148578 0)
(0.629838 0.0168215 0)
(0.628791 0.0191965 0)
(0.627705 0.0221128 0)
(0.626598 0.0257479 0)
(0.625526 0.0303442 0)
(0.624622 0.0362264 0)
(0.624172 0.0438107 0)
(0.624724 0.0535801 0)
(0.627222 0.0659407 0)
(0.633302 0.0806517 0)
(0.100554 -0.00246123 0)
(0.104063 -0.00444505 0)
(0.109401 -0.0061028 0)
(0.116141 -0.00756152 0)
(0.124116 -0.00889031 0)
(0.133179 -0.0101437 0)
(0.143237 -0.0113686 0)
(0.154244 -0.0126033 0)
(0.166191 -0.0138741 0)
(0.179088 -0.015193 0)
(0.192947 -0.0165562 0)
(0.20777 -0.017945 0)
(0.223533 -0.0193285 0)
(0.240181 -0.0206683 0)
(0.257622 -0.0219239 0)
(0.27573 -0.023057 0)
(0.294359 -0.0240359 0)
(0.313341 -0.0248372 0)
(0.332506 -0.0254468 0)
(0.351686 -0.0258596 0)
(0.370721 -0.0260779 0)
(0.389467 -0.0261103 0)
(0.407797 -0.0259697 0)
(0.425605 -0.0256719 0)
(0.442801 -0.025234 0)
(0.459316 -0.0246736 0)
(0.475097 -0.0240081 0)
(0.490107 -0.0232539 0)
(0.50432 -0.0224261 0)
(0.517724 -0.0215385 0)
(0.530314 -0.0206036 0)
(0.542096 -0.019632 0)
(0.55308 -0.0186334 0)
(0.563283 -0.0176161 0)
(0.572724 -0.0165869 0)
(0.581427 -0.015552 0)
(0.589418 -0.0145164 0)
(0.596725 -0.0134845 0)
(0.603377 -0.0124597 0)
(0.609403 -0.011445 0)
(0.614833 -0.0104428 0)
(0.619698 -0.00945501 0)
(0.624029 -0.00848315 0)
(0.627855 -0.00752832 0)
(0.631206 -0.00659131 0)
(0.634112 -0.00567256 0)
(0.6366 -0.00477221 0)
(0.638701 -0.00389006 0)
(0.64044 -0.00302559 0)
(0.641844 -0.00217792 0)
(0.642941 -0.00134572 0)
(0.643754 -0.000527218 0)
(0.644309 0.000279322 0)
(0.64463 0.00107558 0)
(0.644739 0.0018638 0)
(0.644658 0.00264704 0)
(0.64441 0.0034291 0)
(0.644013 0.00421454 0)
(0.643489 0.00500876 0)
(0.642855 0.00581818 0)
(0.642128 0.00665044 0)
(0.641325 0.00751465 0)
(0.640461 0.00842171 0)
(0.63955 0.00938469 0)
(0.638604 0.0104194 0)
(0.637636 0.0115449 0)
(0.636655 0.0127846 0)
(0.63567 0.0141673 0)
(0.63469 0.0157287 0)
(0.633724 0.0175132 0)
(0.632782 0.0195767 0)
(0.631878 0.0219897 0)
(0.631036 0.0248411 0)
(0.630295 0.0282428 0)
(0.62972 0.0323326 0)
(0.629422 0.0372758 0)
(0.629585 0.0432568 0)
(0.630491 0.0504549 0)
(0.632561 0.0589836 0)
(0.636356 0.0687663 0)
(0.642535 0.0793114 0)
(0.100437 -0.00303112 0)
(0.103854 -0.00555268 0)
(0.109047 -0.007654 0)
(0.115646 -0.00950623 0)
(0.123491 -0.0111942 0)
(0.132438 -0.0127866 0)
(0.142392 -0.0143444 0)
(0.153315 -0.0159171 0)
(0.165204 -0.0175396 0)
(0.17808 -0.0192282 0)
(0.191967 -0.0209783 0)
(0.206875 -0.0227656 0)
(0.222787 -0.0245496 0)
(0.239647 -0.0262796 0)
(0.257358 -0.0279016 0)
(0.275787 -0.0293654 0)
(0.294773 -0.030629 0)
(0.314137 -0.0316617 0)
(0.333693 -0.0324455 0)
(0.353263 -0.032974 0)
(0.372676 -0.033251 0)
(0.391782 -0.033288 0)
(0.410449 -0.0331024 0)
(0.428566 -0.0327149 0)
(0.446043 -0.0321481 0)
(0.462811 -0.0314251 0)
(0.478818 -0.0305682 0)
(0.494026 -0.0295987 0)
(0.508412 -0.0285362 0)
(0.521966 -0.0273983 0)
(0.534685 -0.0262008 0)
(0.546576 -0.0249575 0)
(0.557652 -0.0236807 0)
(0.56793 -0.0223806 0)
(0.577433 -0.0210663 0)
(0.586185 -0.0197453 0)
(0.594213 -0.018424 0)
(0.601546 -0.0171078 0)
(0.608214 -0.015801 0)
(0.614248 -0.0145075 0)
(0.619679 -0.01323 0)
(0.624538 -0.011971 0)
(0.628855 -0.0107324 0)
(0.632661 -0.00951544 0)
(0.635986 -0.00832106 0)
(0.63886 -0.00714978 0)
(0.641312 -0.00600172 0)
(0.643371 -0.00487658 0)
(0.645063 -0.00377368 0)
(0.646416 -0.00269187 0)
(0.647456 -0.00162949 0)
(0.648208 -0.000584346 0)
(0.648698 0.000445698 0)
(0.64895 0.00146279 0)
(0.648985 0.00246993 0)
(0.648827 0.00347105 0)
(0.648497 0.00447088 0)
(0.648015 0.00547498 0)
(0.647402 0.00648991 0)
(0.646675 0.00752337 0)
(0.645854 0.00858442 0)
(0.644954 0.00968375 0)
(0.643993 0.010834 0)
(0.642986 0.01205 0)
(0.641949 0.0133494 0)
(0.640896 0.0147534 0)
(0.639842 0.016287 0)
(0.638802 0.0179802 0)
(0.637792 0.019869 0)
(0.636833 0.0219965 0)
(0.635947 0.0244141 0)
(0.635164 0.0271831 0)
(0.634529 0.0303748 0)
(0.6341 0.034071 0)
(0.633963 0.0383606 0)
(0.634238 0.0433332 0)
(0.635087 0.0490637 0)
(0.636726 0.0555873 0)
(0.639414 0.0628576 0)
(0.643434 0.0706881 0)
(0.649013 0.0786884 0)
(0.100318 -0.00360767 0)
(0.103651 -0.00669751 0)
(0.108694 -0.00927174 0)
(0.115139 -0.0115458 0)
(0.12284 -0.0136204 0)
(0.131656 -0.0155792 0)
(0.141496 -0.0174982 0)
(0.152331 -0.0194405 0)
(0.164172 -0.0214512 0)
(0.177052 -0.0235517 0)
(0.191012 -0.0257368 0)
(0.206075 -0.0279752 0)
(0.222229 -0.0302144 0)
(0.239415 -0.0323883 0)
(0.257528 -0.0344267 0)
(0.276418 -0.0362643 0)
(0.295903 -0.0378473 0)
(0.315786 -0.0391368 0)
(0.335863 -0.0401108 0)
(0.355939 -0.0407622 0)
(0.375834 -0.041097 0)
(0.395389 -0.0411311 0)
(0.414466 -0.0408873 0)
(0.432954 -0.0403925 0)
(0.450762 -0.0396758 0)
(0.467821 -0.0387664 0)
(0.484081 -0.0376927 0)
(0.499507 -0.0364811 0)
(0.514081 -0.0351562 0)
(0.527793 -0.0337398 0)
(0.540645 -0.0322515 0)
(0.552646 -0.0307084 0)
(0.56381 -0.0291253 0)
(0.574158 -0.027515 0)
(0.583715 -0.0258883 0)
(0.592506 -0.0242544 0)
(0.600561 -0.0226212 0)
(0.60791 -0.020995 0)
(0.614583 -0.0193811 0)
(0.620614 -0.0177841 0)
(0.626032 -0.0162073 0)
(0.630872 -0.0146536 0)
(0.635162 -0.013125 0)
(0.638936 -0.0116233 0)
(0.642223 -0.0101493 0)
(0.645054 -0.00870369 0)
(0.647457 -0.00728648 0)
(0.649461 -0.00589726 0)
(0.651095 -0.00453516 0)
(0.652385 -0.00319876 0)
(0.653357 -0.0018861 0)
(0.654037 -0.000594572 0)
(0.654451 0.000678371 0)
(0.654623 0.00193541 0)
(0.654576 0.00318037 0)
(0.654331 0.00441805 0)
(0.653911 0.00565406 0)
(0.653336 0.00689488 0)
(0.652627 0.00814807 0)
(0.651802 0.00942239 0)
(0.650881 0.010728 0)
(0.649882 0.0120767 0)
(0.648823 0.0134823 0)
(0.647722 0.0149606 0)
(0.646597 0.0165301 0)
(0.645465 0.0182124 0)
(0.644346 0.0200322 0)
(0.64326 0.0220184 0)
(0.642231 0.0242039 0)
(0.641286 0.0266266 0)
(0.640456 0.0293288 0)
(0.639783 0.0323575 0)
(0.639317 0.0357623 0)
(0.639124 0.0395937 0)
(0.639284 0.043897 0)
(0.639901 0.0487053 0)
(0.641096 0.0540263 0)
(0.643006 0.0598265 0)
(0.645771 0.0660106 0)
(0.649506 0.0724021 0)
(0.654254 0.078737 0)
(0.100196 -0.00419248 0)
(0.10346 -0.00787905 0)
(0.108355 -0.0109559 0)
(0.114639 -0.013681 0)
(0.122189 -0.0161716 0)
(0.130866 -0.0185267 0)
(0.140591 -0.0208395 0)
(0.151346 -0.0231894 0)
(0.16316 -0.0256336 0)
(0.176091 -0.0282001 0)
(0.190198 -0.0308826 0)
(0.20552 -0.0336404 0)
(0.222048 -0.036405 0)
(0.239716 -0.0390903 0)
(0.258398 -0.0416055 0)
(0.277918 -0.0438671 0)
(0.298067 -0.0458071 0)
(0.318621 -0.0473785 0)
(0.339354 -0.0485553 0)
(0.360052 -0.0493312 0)
(0.380524 -0.0497163 0)
(0.400603 -0.0497323 0)
(0.420149 -0.0494092 0)
(0.439051 -0.0487817 0)
(0.457219 -0.0478864 0)
(0.474587 -0.0467597 0)
(0.49111 -0.0454368 0)
(0.506759 -0.0439501 0)
(0.521516 -0.0423294 0)
(0.535378 -0.0406013 0)
(0.548351 -0.0387893 0)
(0.560446 -0.0369138 0)
(0.571683 -0.0349926 0)
(0.582084 -0.0330407 0)
(0.591677 -0.0310712 0)
(0.600489 -0.0290948 0)
(0.608552 -0.0271206 0)
(0.615898 -0.0251562 0)
(0.622559 -0.0232078 0)
(0.628569 -0.0212804 0)
(0.633959 -0.0193781 0)
(0.638762 -0.017504 0)
(0.643012 -0.0156606 0)
(0.646738 -0.0138495 0)
(0.649973 -0.012072 0)
(0.652746 -0.0103285 0)
(0.655088 -0.008619 0)
(0.657026 -0.00694299 0)
(0.658589 -0.00529937 0)
(0.659805 -0.00368647 0)
(0.660699 -0.00210203 0)
(0.661298 -0.000543131 0)
(0.661628 0.000993251 0)
(0.661712 0.00251042 0)
(0.661574 0.00401304 0)
(0.661236 0.00550672 0)
(0.66072 0.00699786 0)
(0.660048 0.0084937 0)
(0.659239 0.0100026 0)
(0.658314 0.011534 0)
(0.657293 0.0130988 0)
(0.656195 0.0147094 0)
(0.65504 0.01638 0)
(0.653847 0.0181265 0)
(0.652638 0.0199672 0)
(0.651433 0.0219224 0)
(0.650255 0.024015 0)
(0.649128 0.0262706 0)
(0.648081 0.0287168 0)
(0.647144 0.0313836 0)
(0.646355 0.0343023 0)
(0.645756 0.0375042 0)
(0.645397 0.0410186 0)
(0.645337 0.0448694 0)
(0.645645 0.0490708 0)
(0.646396 0.0536207 0)
(0.647668 0.0584941 0)
(0.649537 0.0636341 0)
(0.652065 0.0689459 0)
(0.655284 0.0742937 0)
(0.659166 0.0795111 0)
(0.100069 -0.00478811 0)
(0.103281 -0.00909838 0)
(0.108038 -0.0127079 0)
(0.114162 -0.015914 0)
(0.121558 -0.0188518 0)
(0.130099 -0.0216367 0)
(0.139715 -0.0243818 0)
(0.15041 -0.027186 0)
(0.162242 -0.0301221 0)
(0.175298 -0.0332256 0)
(0.189665 -0.0364875 0)
(0.205393 -0.0398535 0)
(0.222473 -0.0432326 0)
(0.240817 -0.0465119 0)
(0.260268 -0.0495743 0)
(0.280612 -0.052314 0)
(0.301601 -0.0546481 0)
(0.322977 -0.0565211 0)
(0.344488 -0.0579054 0)
(0.365905 -0.0587978 0)
(0.387026 -0.0592147 0)
(0.407679 -0.0591865 0)
(0.427725 -0.0587524 0)
(0.447055 -0.0579567 0)
(0.465585 -0.0568448 0)
(0.483255 -0.0554617 0)
(0.500026 -0.0538498 0)
(0.515874 -0.0520483 0)
(0.530789 -0.0500925 0)
(0.544774 -0.0480141 0)
(0.557838 -0.0458407 0)
(0.569998 -0.0435962 0)
(0.581278 -0.0413013 0)
(0.591702 -0.0389736 0)
(0.601302 -0.0366278 0)
(0.610108 -0.0342765 0)
(0.618153 -0.0319301 0)
(0.625472 -0.0295971 0)
(0.632097 -0.0272845 0)
(0.638063 -0.0249981 0)
(0.643404 -0.0227423 0)
(0.648154 -0.0205206 0)
(0.652344 -0.0183357 0)
(0.656007 -0.0161894 0)
(0.659175 -0.0140829 0)
(0.661878 -0.0120166 0)
(0.664146 -0.00999038 0)
(0.666008 -0.0080036 0)
(0.667492 -0.00605493 0)
(0.668625 -0.00414245 0)
(0.669435 -0.00226361 0)
(0.669945 -0.000415406 0)
(0.670186 0.00140576 0)
(0.670178 0.003204 0)
(0.669946 0.00498478 0)
(0.669513 0.00675439 0)
(0.6689 0.00851981 0)
(0.66813 0.0102889 0)
(0.667222 0.0120703 0)
(0.666199 0.0138741 0)
(0.66508 0.0157114 0)
(0.663888 0.0175944 0)
(0.662642 0.0195371 0)
(0.661364 0.0215547 0)
(0.660077 0.0236639 0)
(0.658805 0.025883 0)
(0.657571 0.0282316 0)
(0.656404 0.0307303 0)
(0.655332 0.0334006 0)
(0.654389 0.0362638 0)
(0.653611 0.03934 0)
(0.653037 0.0426467 0)
(0.652713 0.0461968 0)
(0.652686 0.0499957 0)
(0.653006 0.0540382 0)
(0.653722 0.0583053 0)
(0.654879 0.0627602 0)
(0.656512 0.0673464 0)
(0.65864 0.0719863 0)
(0.661255 0.0765849 0)
(0.66431 0.0810405 0)
(0.0999356 -0.00539777 0)
(0.103115 -0.010358 0)
(0.107748 -0.014531 0)
(0.113717 -0.0182493 0)
(0.120965 -0.0216679 0)
(0.129377 -0.0249206 0)
(0.138904 -0.0281445 0)
(0.14958 -0.031463 0)
(0.161501 -0.034968 0)
(0.174797 -0.0387031 0)
(0.189581 -0.0426527 0)
(0.205915 -0.0467411 0)
(0.223771 -0.0508449 0)
(0.243025 -0.0548149 0)
(0.263468 -0.0585007 0)
(0.284834 -0.0617714 0)
(0.306827 -0.0645288 0)
(0.329153 -0.0667116 0)
(0.351537 -0.0682938 0)
(0.373733 -0.0692795 0)
(0.395535 -0.0696951 0)
(0.416772 -0.0695826 0)
(0.43731 -0.0689932 0)
(0.457046 -0.0679822 0)
(0.475905 -0.0666057 0)
(0.493837 -0.064918 0)
(0.510812 -0.0629696 0)
(0.526813 -0.0608069 0)
(0.541838 -0.0584712 0)
(0.555897 -0.0559991 0)
(0.569005 -0.0534225 0)
(0.581184 -0.0507689 0)
(0.592462 -0.0480617 0)
(0.602869 -0.0453209 0)
(0.612437 -0.0425633 0)
(0.6212 -0.0398028 0)
(0.629194 -0.037051 0)
(0.636454 -0.0343175 0)
(0.643015 -0.0316099 0)
(0.648913 -0.0289345 0)
(0.654182 -0.0262962 0)
(0.658856 -0.0236987 0)
(0.66297 -0.0211448 0)
(0.666554 -0.0186364 0)
(0.669642 -0.0161745 0)
(0.672263 -0.0137597 0)
(0.674448 -0.0113915 0)
(0.676225 -0.00906926 0)
(0.677623 -0.0067913 0)
(0.678669 -0.00455546 0)
(0.679391 -0.0023589 0)
(0.679811 -0.000198891 0)
(0.679963 0.00192873 0)
(0.679865 0.00402927 0)
(0.679542 0.00610893 0)
(0.679016 0.00817439 0)
(0.678311 0.010233 0)
(0.677448 0.0122929 0)
(0.676448 0.014363 0)
(0.675334 0.0164533 0)
(0.674127 0.0185745 0)
(0.672849 0.0207386 0)
(0.671521 0.0229582 0)
(0.670168 0.0252471 0)
(0.668812 0.02762 0)
(0.667477 0.0300919 0)
(0.666191 0.0326785 0)
(0.664981 0.0353953 0)
(0.663875 0.038257 0)
(0.662905 0.0412769 0)
(0.662105 0.0444658 0)
(0.661508 0.0478304 0)
(0.66115 0.0513722 0)
(0.661067 0.0550856 0)
(0.661291 0.0589559 0)
(0.661853 0.0629582 0)
(0.662772 0.0670563 0)
(0.66406 0.0712026 0)
(0.665714 0.0753396 0)
(0.66771 0.0794035 0)
(0.670002 0.0833339 0)
(0.0997929 -0.00602514 0)
(0.10296 -0.0116619 0)
(0.107487 -0.0164301 0)
(0.113311 -0.0206935 0)
(0.120422 -0.0246298 0)
(0.128724 -0.0283951 0)
(0.138197 -0.0321565 0)
(0.14892 -0.0360686 0)
(0.161042 -0.0402463 0)
(0.174741 -0.0447401 0)
(0.190159 -0.0495193 0)
(0.20735 -0.0544732 0)
(0.226249 -0.0594317 0)
(0.246667 -0.0641974 0)
(0.268325 -0.0685805 0)
(0.290891 -0.072424 0)
(0.314019 -0.0756171 0)
(0.337379 -0.0780981 0)
(0.360678 -0.0798485 0)
(0.383662 -0.0808847 0)
(0.406127 -0.0812478 0)
(0.42791 -0.0809948 0)
(0.448885 -0.0801913 0)
(0.468965 -0.0789061 0)
(0.488085 -0.0772068 0)
(0.506207 -0.0751578 0)
(0.523312 -0.0728184 0)
(0.539394 -0.0702422 0)
(0.55446 -0.0674767 0)
(0.568525 -0.0645635 0)
(0.581613 -0.0615387 0)
(0.593751 -0.0584331 0)
(0.604971 -0.0552729 0)
(0.615307 -0.0520803 0)
(0.624795 -0.0488738 0)
(0.633471 -0.0456687 0)
(0.641374 -0.0424777 0)
(0.648539 -0.0393111 0)
(0.655004 -0.0361771 0)
(0.660805 -0.0330825 0)
(0.665977 -0.0300323 0)
(0.670555 -0.0270305 0)
(0.674573 -0.0240798 0)
(0.678063 -0.0211822 0)
(0.681058 -0.0183386 0)
(0.683587 -0.0155494 0)
(0.685681 -0.012814 0)
(0.687369 -0.0101315 0)
(0.688678 -0.00750008 0)
(0.689638 -0.00491734 0)
(0.690272 -0.00238024 0)
(0.69061 0.000114055 0)
(0.690677 0.00257012 0)
(0.690494 0.00499428 0)
(0.690087 0.00739324 0)
(0.689478 0.00977395 0)
(0.68869 0.0121439 0)
(0.687746 0.0145113 0)
(0.686667 0.0168848 0)
(0.685475 0.019274 0)
(0.684193 0.0216891 0)
(0.682844 0.0241407 0)
(0.681449 0.0266402 0)
(0.680032 0.0291992 0)
(0.678617 0.0318296 0)
(0.67723 0.0345434 0)
(0.675895 0.0373518 0)
(0.674639 0.0402653 0)
(0.67349 0.0432928 0)
(0.672475 0.046441 0)
(0.671622 0.0497136 0)
(0.670959 0.0531102 0)
(0.670512 0.0566256 0)
(0.670307 0.0602486 0)
(0.670362 0.0639619 0)
(0.670693 0.0677412 0)
(0.671306 0.0715556 0)
(0.6722 0.0753685 0)
(0.673361 0.0791396 0)
(0.674764 0.0828275 0)
(0.676368 0.0863967 0)
(0.0996383 -0.00667428 0)
(0.102814 -0.0130154 0)
(0.107257 -0.0184118 0)
(0.11295 -0.0232559 0)
(0.119942 -0.0277522 0)
(0.128166 -0.0320854 0)
(0.137643 -0.0364615 0)
(0.148514 -0.041075 0)
(0.160999 -0.0460672 0)
(0.175328 -0.0514888 0)
(0.191657 -0.0572782 0)
(0.210007 -0.063269 0)
(0.230238 -0.0692246 0)
(0.25207 -0.0748883 0)
(0.275135 -0.0800272 0)
(0.299031 -0.0844617 0)
(0.323362 -0.0880761 0)
(0.347776 -0.0908164 0)
(0.371966 -0.0926795 0)
(0.395686 -0.0937005 0)
(0.418739 -0.09394 0)
(0.440978 -0.0934735 0)
(0.462295 -0.0923836 0)
(0.482616 -0.0907536 0)
(0.501895 -0.0886639 0)
(0.520106 -0.0861895 0)
(0.537243 -0.0833986 0)
(0.553311 -0.080352 0)
(0.568327 -0.0771032 0)
(0.582315 -0.0736988 0)
(0.595305 -0.0701787 0)
(0.607329 -0.0665768 0)
(0.618424 -0.062922 0)
(0.628628 -0.0592382 0)
(0.637981 -0.0555455 0)
(0.64652 -0.0518604 0)
(0.654286 -0.0481964 0)
(0.661316 -0.0445644 0)
(0.667649 -0.0409731 0)
(0.673322 -0.0374295 0)
(0.67837 -0.0339387 0)
(0.682829 -0.0305047 0)
(0.686733 -0.0271302 0)
(0.690113 -0.0238171 0)
(0.693002 -0.0205661 0)
(0.695431 -0.0173775 0)
(0.697429 -0.0142504 0)
(0.699024 -0.0111838 0)
(0.700246 -0.00817557 0)
(0.70112 -0.00522332 0)
(0.701673 -0.00232395 0)
(0.701934 0.000526108 0)
(0.701924 0.00333199 0)
(0.701668 0.00610028 0)
(0.70119 0.00883793 0)
(0.700513 0.011552 0)
(0.699658 0.0142501 0)
(0.69865 0.0169399 0)
(0.697509 0.0196298 0)
(0.696259 0.0223287 0)
(0.694921 0.0250455 0)
(0.693519 0.0277896 0)
(0.692074 0.0305705 0)
(0.690611 0.0333976 0)
(0.689152 0.0362799 0)
(0.687722 0.039226 0)
(0.686345 0.0422434 0)
(0.685044 0.0453382 0)
(0.683845 0.0485147 0)
(0.68277 0.0517748 0)
(0.681843 0.0551176 0)
(0.681084 0.0585384 0)
(0.680513 0.0620291 0)
(0.680144 0.0655771 0)
(0.679988 0.0691657 0)
(0.680052 0.0727742 0)
(0.680334 0.0763785 0)
(0.680826 0.0799523 0)
(0.681512 0.0834681 0)
(0.682369 0.0868996 0)
(0.683364 0.0902269 0)
(0.0994686 -0.00734964 0)
(0.102677 -0.0144252 0)
(0.107058 -0.0204853 0)
(0.112641 -0.0259499 0)
(0.11954 -0.0310563 0)
(0.127734 -0.0360289 0)
(0.137304 -0.0411254 0)
(0.148476 -0.0465899 0)
(0.161552 -0.0525894 0)
(0.176806 -0.0591591 0)
(0.194381 -0.0661789 0)
(0.214218 -0.073397 0)
(0.236063 -0.0804899 0)
(0.259518 -0.0871331 0)
(0.284118 -0.0930546 0)
(0.309395 -0.0980623 0)
(0.334921 -0.102048 0)
(0.360329 -0.104976 0)
(0.385319 -0.106867 0)
(0.409659 -0.107783 0)
(0.433173 -0.107809 0)
(0.455733 -0.10704 0)
(0.477254 -0.105578 0)
(0.497681 -0.103523 0)
(0.516987 -0.100968 0)
(0.535161 -0.0979982 0)
(0.552211 -0.0946908 0)
(0.568154 -0.0911138 0)
(0.583017 -0.0873262 0)
(0.59683 -0.083379 0)
(0.609632 -0.0793158 0)
(0.62146 -0.0751733 0)
(0.632355 -0.0709823 0)
(0.64236 -0.0667685 0)
(0.651515 -0.0625533 0)
(0.659861 -0.0583538 0)
(0.667441 -0.0541843 0)
(0.674293 -0.050056 0)
(0.680455 -0.0459779 0)
(0.685967 -0.0419569 0)
(0.690863 -0.0379984 0)
(0.695178 -0.034106 0)
(0.698948 -0.0302824 0)
(0.702203 -0.0265292 0)
(0.704975 -0.0228469 0)
(0.707296 -0.0192355 0)
(0.709193 -0.015694 0)
(0.710695 -0.012221 0)
(0.71183 -0.00881443 0)
(0.712624 -0.00547166 0)
(0.713103 -0.00218959 0)
(0.713295 0.00103604 0)
(0.713221 0.00421088 0)
(0.712906 0.00734163 0)
(0.712373 0.0104353 0)
(0.711644 0.0134988 0)
(0.710743 0.0165394 0)
(0.709691 0.0195644 0)
(0.70851 0.0225816 0)
(0.707223 0.0255986 0)
(0.705852 0.0286234 0)
(0.704418 0.0316635 0)
(0.702945 0.0347266 0)
(0.701454 0.0378197 0)
(0.699968 0.0409493 0)
(0.698509 0.044121 0)
(0.697098 0.0473391 0)
(0.695757 0.0506065 0)
(0.694507 0.0539242 0)
(0.693367 0.0572909 0)
(0.692355 0.0607032 0)
(0.691485 0.0641547 0)
(0.690771 0.0676365 0)
(0.690222 0.071137 0)
(0.689842 0.0746419 0)
(0.689633 0.078135 0)
(0.689588 0.0815987 0)
(0.689699 0.0850146 0)
(0.68995 0.0883647 0)
(0.690322 0.0916328 0)
(0.690789 0.0948087 0)
(0.0992807 -0.00805614 0)
(0.102545 -0.0158998 0)
(0.106892 -0.0226625 0)
(0.112389 -0.0287941 0)
(0.119236 -0.0345744 0)
(0.127475 -0.0402836 0)
(0.137272 -0.0462484 0)
(0.148962 -0.0527718 0)
(0.162932 -0.060036 0)
(0.179477 -0.0680289 0)
(0.198667 -0.0765296 0)
(0.220311 -0.0851655 0)
(0.244 -0.0935099 0)
(0.269207 -0.101173 0)
(0.295377 -0.107856 0)
(0.321995 -0.113372 0)
(0.348617 -0.117637 0)
(0.374884 -0.120646 0)
(0.400515 -0.122453 0)
(0.425305 -0.123152 0)
(0.449103 -0.122855 0)
(0.471811 -0.121681 0)
(0.493367 -0.119753 0)
(0.513739 -0.117184 0)
(0.532918 -0.114083 0)
(0.550911 -0.110544 0)
(0.56774 -0.106652 0)
(0.583433 -0.102483 0)
(0.598026 -0.0981008 0)
(0.61156 -0.0935596 0)
(0.624076 -0.0889062 0)
(0.635619 -0.0841797 0)
(0.646234 -0.0794126 0)
(0.655965 -0.0746319 0)
(0.664857 -0.0698596 0)
(0.672952 -0.0651136 0)
(0.680293 -0.0604084 0)
(0.686919 -0.0557554 0)
(0.692871 -0.0511636 0)
(0.698186 -0.0466397 0)
(0.7029 -0.0421888 0)
(0.707047 -0.0378145 0)
(0.710662 -0.033519 0)
(0.713776 -0.0293038 0)
(0.71642 -0.0251689 0)
(0.718624 -0.0211141 0)
(0.720416 -0.0171381 0)
(0.721824 -0.0132393 0)
(0.722875 -0.00941539 0)
(0.723595 -0.0056637 0)
(0.724008 -0.00198107 0)
(0.724143 0.00163728 0)
(0.724018 0.00519746 0)
(0.723659 0.00870619 0)
(0.723089 0.0121702 0)
(0.722329 0.0155963 0)
(0.721401 0.0189912 0)
(0.720328 0.0223615 0)
(0.71913 0.0257141 0)
(0.71783 0.0290556 0)
(0.716449 0.0323924 0)
(0.715007 0.0357308 0)
(0.713527 0.0390762 0)
(0.712029 0.0424339 0)
(0.710533 0.0458081 0)
(0.70906 0.0492018 0)
(0.707628 0.0526172 0)
(0.706256 0.0560548 0)
(0.704961 0.0595136 0)
(0.703758 0.0629908 0)
(0.702661 0.0664819 0)
(0.70168 0.0699803 0)
(0.700824 0.0734779 0)
(0.700097 0.076965 0)
(0.699502 0.0804303 0)
(0.699035 0.0838621 0)
(0.698691 0.0872478 0)
(0.69846 0.0905754 0)
(0.698329 0.0938334 0)
(0.698284 0.0970123 0)
(0.698304 0.100108 0)
(0.0990709 -0.00879944 0)
(0.102418 -0.0174499 0)
(0.106762 -0.0249598 0)
(0.112208 -0.0318154 0)
(0.119061 -0.0383548 0)
(0.127455 -0.0449377 0)
(0.137674 -0.0519812 0)
(0.150179 -0.0598489 0)
(0.165428 -0.068709 0)
(0.183676 -0.0784469 0)
(0.204847 -0.0886857 0)
(0.228559 -0.0989001 0)
(0.254229 -0.108557 0)
(0.281207 -0.117217 0)
(0.308874 -0.124581 0)
(0.336692 -0.13049 0)
(0.364229 -0.134899 0)
(0.391149 -0.137848 0)
(0.417206 -0.139434 0)
(0.442227 -0.139784 0)
(0.466099 -0.13904 0)
(0.488751 -0.137349 0)
(0.510149 -0.13485 0)
(0.530284 -0.131675 0)
(0.549168 -0.127943 0)
(0.566824 -0.123759 0)
(0.583286 -0.119216 0)
(0.598595 -0.114394 0)
(0.612796 -0.109361 0)
(0.625936 -0.104176 0)
(0.638064 -0.0988875 0)
(0.649229 -0.0935362 0)
(0.659479 -0.088156 0)
(0.668861 -0.0827744 0)
(0.677421 -0.077414 0)
(0.685203 -0.0720928 0)
(0.69225 -0.0668253 0)
(0.698604 -0.0616227 0)
(0.704303 -0.0564937 0)
(0.709385 -0.0514449 0)
(0.713886 -0.0464808 0)
(0.71784 -0.0416047 0)
(0.721279 -0.0368184 0)
(0.724235 -0.0321228 0)
(0.726739 -0.0275178 0)
(0.728819 -0.0230026 0)
(0.730502 -0.0185757 0)
(0.731815 -0.0142352 0)
(0.732785 -0.00997869 0)
(0.733436 -0.00580328 0)
(0.733793 -0.0017058 0)
(0.733881 0.00231895 0)
(0.73372 0.00627733 0)
(0.733333 0.010176 0)
(0.732744 0.0140214 0)
(0.731972 0.0178197 0)
(0.731039 0.0215772 0)
(0.729967 0.0252997 0)
(0.728776 0.0289931 0)
(0.727486 0.0326628 0)
(0.726118 0.0363142 0)
(0.724692 0.0399517 0)
(0.723227 0.0435795 0)
(0.721742 0.047201 0)
(0.720255 0.0508186 0)
(0.718785 0.054434 0)
(0.717347 0.0580474 0)
(0.715957 0.0616582 0)
(0.714628 0.0652643 0)
(0.713373 0.0688625 0)
(0.712201 0.0724482 0)
(0.71112 0.0760156 0)
(0.710136 0.0795581 0)
(0.70925 0.0830681 0)
(0.708463 0.0865375 0)
(0.70777 0.089958 0)
(0.707168 0.0933213 0)
(0.706646 0.0966199 0)
(0.706195 0.0998468 0)
(0.705803 0.102997 0)
(0.705457 0.10607 0)
(0.0988348 -0.00958624 0)
(0.102296 -0.0190892 0)
(0.106674 -0.0273998 0)
(0.112116 -0.0350537 0)
(0.11906 -0.042472 0)
(0.127771 -0.0501263 0)
(0.138685 -0.0585453 0)
(0.152393 -0.0681374 0)
(0.169372 -0.0789951 0)
(0.18974 -0.0908211 0)
(0.213198 -0.103024 0)
(0.239132 -0.114912 0)
(0.266791 -0.125862 0)
(0.295435 -0.135422 0)
(0.324414 -0.143322 0)
(0.353203 -0.149455 0)
(0.381399 -0.153834 0)
(0.408709 -0.156554 0)
(0.434932 -0.157757 0)