/*--------------------------------*- C++ -*----------------------------------*\
  =========                 |
  \\      /  F ield         | OpenFOAM: The Open Source CFD Toolbox
   \\    /   O peration     | Website:  https://openfoam.org
    \\  /    A nd           | Version:  7
     \\/     M anipulation  |
\*---------------------------------------------------------------------------*/
FoamFile
{
    version     2.0;
    format      ascii;
    class       volScalarField;
    location    "0.8";
    object      p;
}
// * * * * * * * * * * * * * * * * * * * * * * * * * * * * * * * * * * * * * //

dimensions      [0 2 -2 0 0 0 0];

internalField   nonuniform List<scalar> 
2790
(
157.687
157.604
157.892
158.495
159.316
160.321
161.506
162.87
164.407
166.109
167.97
169.981
172.13
174.405
176.789
179.259
181.788
184.34
186.874
189.339
191.677
193.827
195.724
197.309
198.536
199.384
199.831
199.92
199.992
200.201
157.481
157.508
157.822
158.422
159.239
160.241
161.422
162.78
164.309
166.004
167.856
169.856
171.996
174.261
176.634
179.095
181.617
184.165
186.698
189.168
191.517
193.685
195.606
197.22
198.473
199.329
199.754
199.854
200.004
200.268
157.277
157.374
157.706
158.296
159.1
160.089
161.255
162.595
164.104
165.774
167.599
169.569
171.674
173.902
176.236
178.656
181.137
183.645
186.143
188.586
190.921
193.09
195.033
196.692
198.017
198.979
199.586
199.952
200.271
200.574
157.043
157.171
157.516
158.098
158.887
159.859
161.006
162.322
163.802
165.44
167.226
169.154
171.212
173.387
175.664
178.023
180.439
182.884
185.323
187.715
190.013
192.168
194.126
195.841
197.274
198.41
199.273
199.937
200.483
200.976
156.771
156.913
157.267
157.84
158.613
159.564
160.685
161.97
163.414
165.009
166.748
168.621
170.618
172.726
174.929
177.21
179.545
181.909
184.269
186.59
188.835
190.961
192.928
194.7
196.25
197.574
198.688
199.629
200.412
201.104
156.456
156.604
156.96
157.523
158.276
159.201
160.291
161.539
162.938
164.483
166.164
167.972
169.896
171.925
174.042
176.23
178.469
180.733
182.997
185.231
187.402
189.481
191.437
193.246
194.894
196.375
197.697
198.868
199.848
200.702
156.097
156.245
156.598
157.148
157.878
158.773
159.826
161.031
162.38
163.865
165.48
167.213
169.055
170.992
173.01
175.092
177.219
179.369
181.518
183.643
185.719
187.724
189.638
191.447
193.144
194.727
196.194
197.533
198.653
199.634
155.693
155.839
156.184
156.718
157.422
158.283
159.295
160.45
161.741
163.161
164.701
166.35
168.099
169.933
171.84
173.802
175.802
177.82
179.836
181.83
183.782
185.679
187.507
189.263
190.945
192.555
194.088
195.521
196.726
197.81
155.244
155.386
155.721
156.235
156.91
157.733
158.699
159.799
161.027
162.374
163.831
165.388
167.034
168.756
170.539
172.367
174.225
176.093
177.953
179.789
181.585
183.331
185.02
186.654
188.239
189.783
191.283
192.723
193.954
195.124
154.752
154.889
155.211
155.702
156.345
157.127
158.042
159.083
160.242
161.51
162.877
164.334
165.868
167.466
169.114
170.796
172.495
174.194
175.876
177.523
179.124
180.668
182.153
183.583
184.968
186.326
187.665
188.994
190.167
191.401
154.219
154.35
154.655
155.122
155.73
156.467
157.328
158.305
159.39
160.573
161.845
163.194
164.608
166.074
167.576
169.098
170.624
172.134
173.612
175.039
176.402
177.689
178.895
180.022
181.081
182.094
183.091
184.124
185.089
186.339
153.646
153.77
154.058
154.497
155.067
155.758
156.562
157.471
158.477
159.571
160.741
161.976
163.262
164.587
165.933
167.284
168.621
169.925
171.174
172.35
173.432
174.403
175.249
175.961
176.54
177.004
177.393
177.816
178.268
179.392
153.036
153.152
153.421
153.831
154.362
155.002
155.746
156.584
157.508
158.508
159.571
160.687
161.84
163.017
164.199
165.368
166.503
167.583
168.583
169.477
170.237
170.836
171.24
171.42
171.346
171.003
170.4
169.674
168.949
169.48
152.391
152.498
152.748
153.127
153.616
154.205
154.885
155.65
156.489
157.391
158.344
159.336
160.351
161.374
162.384
163.363
164.287
165.129
165.861
166.45
166.856
167.033
166.927
166.468
165.569
164.128
162.029
159.264
155.89
154.168
151.714
151.812
152.041
152.387
152.834
153.369
153.985
154.673
155.424
156.226
157.067
157.932
158.805
159.669
160.504
161.286
161.991
162.587
163.039
163.306
163.336
163.063
162.401
161.231
159.383
156.603
152.488
146.455
137.359
126.65
51.9412
50.6034
48.2915
44.9475
40.63
35.4224
29.4284
22.7678
15.5726
7.98554
0.158871
-7.74512
-15.5538
-23.0836
-30.1404
-36.5213
-42.0187
-46.4247
-49.5287
-51.1179
-51.0654
-49.1875
-45.3882
-39.6858
-32.2529
-23.3281
-12.9726
-1.40492
8.68675
8.93969
52.2065
50.7046
48.2932
44.8584
40.4601
35.1795
29.1204
22.4024
15.157
7.52604
-0.339214
-8.27745
-16.1169
-23.6748
-30.7578
-37.1636
-42.6846
-47.115
-50.2609
-51.9508
-51.959
-50.1654
-46.4838
-40.942
-33.7189
-25.0731
-15.0968
-3.87609
6.34436
6.75946
51.4658
49.7798
47.2565
43.7233
39.2556
33.9313
27.8506
21.1285
13.8916
6.27665
-1.5695
-9.4894
-17.3141
-24.8629
-31.9432
-38.3525
-43.8819
-48.3245
-51.4865
-53.1869
-53.2649
-51.5457
-47.9597
-42.5519
-35.5065
-27.098
-17.4602
-6.63175
3.44742
4.62656
49.5655
47.7932
45.233
41.6538
37.1605
31.8305
25.7614
19.0636
11.8586
4.27785
-3.53614
-11.4294
-19.2355
-26.775
-33.8558
-40.2751
-45.8227
-50.2902
-53.4841
-55.231
-55.3605
-53.7206
-50.2372
-44.9655
-38.0854
-29.863
-20.4554
-9.93579
-0.00770438
2.59168
46.6913
44.9324
42.4087
38.8413
34.3727
29.0804
23.062
16.4248
9.28537
1.77062
-5.9815
-13.8206
-21.5829
-29.0906
-36.1528
-42.5665
-48.1208
-52.6046
-55.8215
-57.5992
-57.7847
-56.2251
-52.8413
-47.7007
-40.9754
-32.9091
-23.6687
-13.3885
-3.51917
0.744086
43.154
41.468
39.0232
35.5111
31.107
25.8849
19.943
13.3857
6.32576
-1.11418
-8.79996
-16.5843
-24.3053
-31.7866
-38.837
-45.2527
-50.8203
-55.3235
-58.5576
-60.3477
-60.5583
-59.0469
-55.7276
-50.6789
-44.0643
-36.0995
-26.9515
-16.8055
-6.84793
-0.900178
39.3025
37.7188
35.3691
31.9342
27.6148
22.4772
16.6209
10.1483
3.16963
-4.19536
-11.8151
-19.5444
-27.2233
-34.6762
-41.7122
-48.127
-53.7057
-58.2269
-61.4757
-63.2699
-63.4855
-61.997
-58.7115
-53.7189
-47.1758
-39.2693
-30.1563
-20.044
-9.8726
-2.34397
35.491
34.0169
31.7564
28.3969
24.1583
19.0976
13.3167
6.91681
0.00680043
-7.29528
-14.8598
-22.5435
-30.1883
-37.6196
-44.647
-51.0659
-56.6592
-61.2005
-64.4638
-66.254
-66.4471
-64.9473
-61.6581
-56.6812
-50.1704
-42.288
-33.1688
-23.0101
-12.5405
-3.59495
32.0523
30.6756
28.4784
25.1698
20.9843
15.9707
10.2353
3.87949
-2.98815
-10.2506
-17.7796
-25.4339
-33.0576
-40.4776
-47.5043
-53.9329
-59.5451
-64.1098
-67.3901
-69.1735
-69.3186
-67.7747
-64.4461
-59.4457
-52.9327
-45.0498
-35.9009
-25.646
-14.8346
-4.66133
29.2757
27.9679
25.7914
22.4879
18.3065
13.29
7.55332
1.19884
-5.6638
-12.9183
-20.4378
-28.0833
-35.7023
-43.1239
-50.1602
-56.6067
-62.2443
-66.8385
-70.1424
-71.9233
-72.0184
-70.3773
-66.9799
-61.9205
-55.3757
-47.4753
-38.2889
-27.9183
-16.7562
-5.55058
27.3912
26.1146
23.9019
20.5386
16.2927
11.2072
5.40875
-0.997202
-7.89937
-15.1825
-22.7217
-30.3804
-38.0128
-45.4501
-52.5071
-58.981
-64.6519
-69.2826
-72.6166
-74.3933
-74.4179
-72.686
-69.1919
-64.0443
-57.4436
-49.5145
-40.2927
-29.8117
-18.3172
-6.26968
26.5532
25.2706
22.9537
19.4516
15.0574
9.8218
3.89244
-2.62274
-9.61113
-16.9599
-24.5464
-32.2376
-39.9005
-47.3659
-54.4533
-60.9626
-66.6742
-71.3479
-74.721
-76.5033
-76.4687
-74.642
-71.0374
-65.7838
-59.112
-51.1479
-41.8984
-31.3278
-19.5391
-6.8283
26.8389
25.5097
23.0089
19.2733
14.6245
9.15597
3.02942
-3.64327
-10.752
-18.1892
-25.8409
-33.5908
-41.2986
-48.7996
-55.9217
-62.4704
-68.2264
-72.9448
-76.3671
-78.1754
-78.1034
-76.1888
-72.4801
-67.1228
-60.379
-52.3811
-43.1147
-32.4824
-20.455
-7.24648
28.2682
26.8428
24.0678
19.9783
14.9649
9.18302
2.80162
-4.06847
-11.3255
-18.8723
-26.6074
-34.4218
-42.1672
-49.6937
-56.8369
-63.4083
-69.1903
-73.9646
-77.4365
-79.2832
-79.2085
-77.2421
-73.4665
-68.0381
-61.2442
-53.2268
-43.9586
-33.2976
-21.1073
-7.56251
30.8036
29.2123
26.0525
21.4416
15.9388
9.77478
3.10209
-3.98388
-11.3969
-19.0527
-26.8599
-34.7165
-42.4861
-50.0247
-57.174
-63.753
-69.555
-74.3588
-77.8603
-79.7378
-79.6787
-77.7032
-73.9244
-68.4932
-61.7002
-53.6956
-44.4469
-33.8039
-21.5414
-7.81638
150.993
151.082
151.289
151.601
152.003
152.482
153.031
153.641
154.301
154.999
155.723
156.456
157.183
157.883
158.536
159.116
159.594
159.935
160.098
160.032
159.673
158.936
157.702
155.803
152.977
148.793
142.452
132.287
113.017
60.6782
150.22
150.299
150.483
150.76
151.114
151.535
152.014
152.542
153.107
153.698
154.3
154.897
155.472
156.004
156.47
156.841
157.086
157.167
157.036
156.635
155.888
154.695
152.917
150.352
146.691
141.432
133.692
122.021
105.458
81.8633
149.401
149.47
149.63
149.87
150.175
150.535
150.942
151.385
151.853
152.333
152.811
153.27
153.69
154.051
154.326
154.488
154.5
154.321
153.9
153.174
152.061
150.454
148.208
145.124
140.924
135.226
127.557
117.451
105.652
92.4719
148.537
148.596
148.731
148.933
149.188
149.486
149.818
150.175
150.544
150.912
151.264
151.582
151.847
152.036
152.123
152.076
151.859
151.429
150.732
149.703
148.26
146.298
143.684
140.247
135.778
130.036
122.797
113.82
103.16
90.4058
147.63
147.678
147.787
147.951
148.154
148.39
148.647
148.916
149.185
149.441
149.666
149.844
149.955
149.974
149.875
149.626
149.19
148.522
147.57
146.269
144.541
142.292
139.405
135.745
131.155
125.467
118.516
110.094
100.067
88.5394
146.682
146.719
146.803
146.926
147.079
147.25
147.432
147.613
147.783
147.925
148.026
148.066
148.025
147.879
147.6
147.158
146.515
145.628
144.446
142.909
140.945
138.473
135.395
131.605
126.986
121.415
114.781
106.985
98.0103
88.1726
145.696
145.721
145.779
145.863
145.964
146.072
146.178
146.272
146.342
146.374
146.351
146.256
146.068
145.764
145.316
144.693
143.859
142.774
141.391
139.654
137.502
134.865
131.666
127.823
123.252
117.875
111.635
104.505
96.5075
87.8979
144.674
144.689
144.721
144.765
144.814
144.859
144.891
144.899
144.872
144.795
144.653
144.428
144.099
143.644
143.037
142.247
141.242
139.983
138.427
136.528
134.232
131.483
128.22
124.385
119.921
114.783
108.944
102.404
95.1841
87.4928
143.621
143.625
143.631
143.637
143.635
143.617
143.576
143.5
143.378
143.197
142.94
142.591
142.13
141.535
140.78
139.84
138.682
137.273
135.575
133.548
131.148
128.331
125.053
121.27
116.948
112.063
106.604
100.583
94.024
87.1109
142.541
142.534
142.515
142.482
142.43
142.352
142.24
142.083
141.87
141.588
141.223
140.757
140.172
139.447
138.561
137.486
136.196
134.661
132.848
130.725
128.257
125.409
122.15
118.451
114.292
109.661
104.56
99.0078
93.0306
86.7859
141.438
141.42
141.377
141.307
141.207
141.07
140.889
140.654
140.355
139.978
139.51
138.936
138.237
137.396
136.39
135.199
133.796
132.158
130.257
128.066
125.558
122.709
119.497
115.903
111.917
107.537
102.771
97.6414
92.1737
86.5003
140.318
140.29
140.223
140.117
139.97
139.778
139.532
139.223
138.841
138.376
137.813
137.139
136.337
135.391
134.282
132.99
131.494
129.774
127.807
125.572
123.051
120.224
117.077
113.601
109.792
105.654
101.198
96.4479
91.4266
86.2457
139.186
139.148
139.059
138.919
138.728
138.482
138.174
137.796
137.338
136.79
136.14
135.376
134.482
133.443
132.244
130.868
129.297
127.514
125.502
123.245
120.728
117.94
114.873
111.522
107.889
103.98
99.8104
95.3999
90.7716
86.0188
138.048
138.001
137.891
137.718
137.485
137.189
136.824
136.381
135.853
135.23
134.501
133.655
132.68
131.562
130.287
128.841
127.211
125.383
123.343
121.08
118.584
115.848
112.869
109.646
106.183
102.49
98.5816
94.4762
90.1948
85.8163
136.911
136.856
136.725
136.522
136.251
135.908
135.489
134.987
134.395
133.704
132.904
131.987
130.94
129.754
128.416
126.915
125.241
123.381
121.328
119.073
116.61
113.936
111.049
107.953
104.654
101.162
97.4908
93.659
89.6847
85.6343
135.783
135.719
135.57
135.339
135.031
134.646
134.178
133.622
132.971
132.219
131.357
130.377
129.27
128.027
126.638
125.094
123.388
121.511
119.456
117.22
114.798
112.19
109.398
106.426
103.281
99.975
96.5204
92.9337
89.2315
85.4697
134.669
134.599
134.432
134.175
133.834
133.41
132.898
132.293
131.591
130.784
129.868
128.834
127.676
126.386
124.957
123.382
121.654
119.77
117.724
115.514
113.139
110.601
107.902
105.049
102.05
98.9143
95.6557
92.2884
88.8273
85.3198
133.579
133.501
133.319
133.038
132.668
132.208
131.656
131.008
130.26
129.407
128.444
127.365
126.164
124.837
123.377
121.779
120.041
118.157
116.127
113.949
111.625
109.157
106.55
103.81
100.945
97.966
94.8842
91.7129
88.4656
85.1821
132.519
132.436
132.239
131.937
131.54
131.049
130.462
129.776
128.988
128.094
127.091
125.975
124.74
123.383
121.901
120.289
118.546
116.671
114.662
112.52
110.248
107.85
105.33
102.696
99.9555
97.1185
94.1957
91.1992
88.141
85.0548
131.499
131.41
131.201
130.88
130.459
129.94
129.322
128.603
127.781
126.853
125.817
124.669
123.408
122.029
120.531
118.912
117.171
115.309
113.324
111.221
109.002
106.671
104.234
101.698
99.0709
96.3622
93.5819
90.7407
87.8494
84.9366
130.527
130.433
130.212
129.875
129.433
128.889
128.245
127.497
126.646
125.69
124.627
123.454
122.172
120.777
119.27
117.649
115.915
114.068
112.112
110.047
107.879
105.612
103.252
100.807
98.2828
95.6895
93.0359
90.332
87.5876
84.8266
129.611
129.513
129.283
128.931
128.47
127.906
127.238
126.467
125.591
124.611
123.526
122.335
121.037
119.632
118.12
116.501
114.777
112.949
111.02
108.994
106.875
104.668
102.379
100.016
97.5845
95.094
92.5526
89.9695
87.3535
84.7249
128.762
128.659
128.42
128.055
127.579
126.997
126.31
125.519
124.623
123.624
122.522
121.316
120.007
118.595
117.082
115.468
113.756
111.948
110.048
108.059
105.985
103.834
101.609
99.3193
96.9705
94.5707
92.1277
89.6499
87.1453
84.6313
127.987
127.882
127.635
127.259
126.769
126.171
125.468
124.66
123.749
122.735
121.619
120.403
119.086
117.672
116.16
114.553
112.854
111.066
109.193
107.238
105.207
103.106
100.939
98.714
96.4376
94.1168
91.7592
89.3722
86.9636
84.5478
127.298
127.189
126.935
126.549
126.047
125.437
124.721
123.9
122.975
121.949
120.824
119.6
118.279
116.863
115.355
113.757
112.071
110.303
108.454
106.531
104.538
102.48
100.364
98.1957
95.9816
93.7286
91.4438
89.134
86.8064
84.4733
126.704
126.592
126.331
125.936
125.424
124.804
124.077
123.245
122.311
121.276
120.144
118.915
117.592
116.177
114.673
113.083
111.411
109.66
107.834
105.939
103.979
101.959
99.8861
97.7657
95.6043
93.4083
91.1844
88.9391
86.6791
84.4149
126.218
126.102
125.832
125.427
124.907
124.278
123.542
122.702
121.76
120.719
119.581
118.349
117.026
115.613
114.114
112.533
110.872
109.136
107.33
105.458
103.525
101.537
99.4997
97.4184
95.2997
93.1496
90.9744
88.7805
86.5739
84.3636
125.851
125.728
125.449
125.036
124.509
123.874
123.132
122.286
121.338
120.293
119.152
117.918
116.595
115.184
113.69
112.116
110.465
108.743
106.953
105.1
103.189
101.226
99.2165
97.1661
95.0808
92.9666
90.8296
88.6759
86.5113
84.344
125.621
125.474
125.177
124.758
124.227
123.588
122.841
121.992
121.042
119.994
118.852
117.618
116.295
114.887
113.397
111.828
110.185
108.472
106.693
104.853
102.957
101.011
99.0203
96.9905
94.9273
92.8368
90.7246
88.5968
86.4589
84.3176
125.586
125.377
125.052
124.625
124.091
123.448
122.698
121.846
120.894
119.845
118.703
117.47
116.149
114.744
113.258
111.694
110.057
108.351
106.58
104.75
102.865
100.93
98.952
96.9356
94.8867
92.811
90.7144
88.6025
86.481
84.3556
-12.2984
5.90259
22.5719
66.8696
62.9365
56.1331
79.6211
71.0855
63.2652
77.0843
68.696
62.1879
77.6573
70.5283
64.5822
79.0875
72.8339
67.3255
79.8704
74.2648
69.278
80.3141
75.2961
70.8384
80.6758
76.1735
72.1884
80.9835
76.92
73.3417
81.2371
77.55
74.3209
81.4483
78.0873
75.1585
81.627
78.5502
75.8804
81.7793
78.9515
76.5064
81.9094
79.3007
77.0516
82.0201
79.605
77.5274
82.1135
79.8699
77.9427
82.1911
80.0995
78.3042
82.2542
80.2971
78.6175
82.304
80.4657
78.8875
82.3417
80.608
79.1183
82.3692
80.727
79.3141
82.3877
80.825
79.4785
82.4008
80.9064
79.6165
82.4076
80.9711
79.7289
82.4176
81.0292
79.826
82.4194
81.0695
79.8983
82.4437
81.1232
79.9745
82.4432
81.1436
80.013
82.5062
81.2232
80.1007
34.2682
32.3489
28.6857
23.3836
17.3066
10.7355
3.77236
-3.5169
-11.0673
-18.8101
-26.6646
-34.5365
-42.3039
-49.8289
-56.9577
-63.5144
-69.2972
-74.0773
-77.5684
-79.4556
-79.4316
-77.5072
-73.8119
-68.4736
-61.7612
-53.8281
-44.6453
-34.0548
-21.7887
-8.01074
48.1441
39.0034
32.0402
25.4338
18.7391
11.8168
4.63486
-2.79154
-10.4228
-18.2035
-26.0624
-33.9118
-41.6402
-49.116
-56.1891
-62.6871
-68.4109
-73.1316
-76.5792
-78.4564
-78.4845
-76.652
-73.1027
-67.9539
-61.4179
-53.6338
-44.5712
-34.0614
-21.8542
-8.09375
52.1249
41.3553
33.9783
27.0239
19.9295
12.7584
5.47591
-1.9728
-9.58779
-17.3272
-25.1251
-32.8972
-40.5372
-47.9181
-54.893
-61.2923
-66.9207
-71.5543
-74.9385
-76.8024
-76.909
-75.1887
-71.8311
-66.9573
-60.684
-53.1195
-44.23
-33.8492
-21.7568
-8.07907
52.8218
42.449
34.767
27.7409
20.6582
13.492
6.23434
-1.14824
-8.6614
-16.2762
-23.9366
-31.5633
-39.0544
-46.2862
-53.1145
-59.373
-64.8712
-69.3939
-72.7034
-74.5576
-74.7555
-73.2065
-70.091
-65.5389
-59.5873
-52.2958
-43.6231
-33.4161
-21.4937
-7.98336
55.8231
45.5938
36.9462
29.1156
21.6536
14.3701
7.11836
-0.194568
-7.59225
-15.0543
-22.5352
-29.9667
-37.2565
-44.2884
-50.9236
-57.0015
-62.3389
-66.732
-69.962
-71.814
-72.1151
-70.7789
-67.9545
-63.7541
-58.1528
-51.1629
-42.7366
-32.7449
-21.054
-7.81285
59.3695
49.6554
40.4072
31.7695
23.6954
16.0215
8.56737
1.19749
-6.1564
-13.5071
-20.8292
-28.0686
-35.1459
-41.9569
-48.3741
-54.2473
-59.4053
-63.6591
-66.8105
-68.6699
-69.0871
-67.9851
-65.4733
-61.6304
-56.3776
-49.6939
-41.5334
-31.8015
-20.4196
-7.57344
62.3317
53.5007
44.2731
35.2919
26.8118
18.7543
10.9902
3.42156
-4.0158
-11.3536
-18.5902
-25.6919
-32.5954
-39.2113
-45.4261
-51.1042
-56.0903
-60.2139
-63.2984
-65.1775
-65.7199
-64.8536
-62.6403
-59.1284
-54.2
-47.8173
-39.947
-30.5378
-19.5696
-7.27569
64.8034
56.9224
48.1231
39.2327
30.6749
22.4434
14.464
6.69621
-0.884052
-8.29282
-15.5301
-22.5725
-29.3706
-35.85
-41.9123
-47.4381
-52.2893
-56.3148
-59.3594
-61.2773
-61.9518
-61.3151
-59.372
-56.1204
-51.4917
-45.4223
-37.8954
-28.9056
-18.4901
-6.93336
66.902
59.9008
51.7373
43.2391
34.8953
26.7453
18.7525
10.9196
3.26268
-4.20515
-11.4678
-18.4964
-25.2441
-31.6443
-37.6105
-43.0373
-47.8029
-51.7744
-54.8148
-56.795
-57.607
-57.1753
-55.4585
-52.4564
-48.1257
-42.4154
-35.3239
-26.885
-17.1851
-6.55683
68.6643
62.4364
54.9808
47.0484
39.1278
31.2796
23.4864
15.7742
8.18652
0.761346
-6.46603
-13.4542
-20.1506
-26.4887
-32.387
-37.7494
-42.4666
-46.42
-49.4874
-51.552
-52.5107
-52.2788
-50.7858
-48.0416
-44.0521
-38.7859
-32.2511
-24.5091
-15.685
-6.14727
70.1438
64.5794
57.8181
50.5177
43.1357
35.7371
28.3103
20.8889
13.5289
6.28356
-0.797784
-7.66259
-14.2507
-20.4923
-26.307
-31.6034
-36.2803
-40.2293
-43.3395
-45.503
-46.6206
-46.6036
-45.3688
-42.939
-39.3677
-34.6445
-28.7849
-21.8681
-14.0442
-5.69773
71.3986
66.399
60.2752
53.6013
46.7948
39.9176
32.9571
25.9447
18.9384
11.9967
5.17575
-1.46566
-7.86264
-13.9429
-19.6261
-24.824
-29.4409
-33.3764
-36.5278
-38.7951
-40.0847
-40.3105
-39.3908
-37.3584
-34.2852
-30.188
-25.0921
-19.0852
-12.3289
-5.20075
72.4735
67.955
62.3982
56.3076
50.0628
43.7202
37.2642
30.7206
24.1429
17.5888
11.1146
4.78036
-1.34854
-7.20005
-12.6956
-17.7505
-22.2744
-26.1736
-29.3535
-31.722
-33.1929
-33.6889
-33.1415
-31.572
-29.0582
-25.6396
-21.3528
-16.2878
-10.6058
-4.65722
73.4012
69.2942
64.2345
58.6697
52.9461
47.1148
41.1578
35.0946
28.9724
22.8442
16.7634
10.787
4.9776
-0.596018
-5.85935
-10.7327
-15.132
-18.971
-22.163
-24.6247
-26.2791
-27.0595
-26.913
-25.8454
-23.9213
-21.1971
-17.7208
-13.5815
-8.93112
-4.07912
74.2059
70.4522
65.8261
60.7279
55.4744
50.113
44.6241
39.0215
33.3462
27.6455
21.9681
16.366
10.8969
5.62428
0.616779
-4.05245
-8.30678
-12.0678
-15.2576
-17.8017
-19.6326
-20.6941
-20.9465
-20.3835
-19.0488
-17.0035
-14.3051
-11.0401
-7.3463
-3.48652
74.906
71.4564
67.208
62.5205
57.6849
52.7455
47.682
42.5038
37.2461
31.9508
26.661
21.4236
16.2902
11.3182
6.56935
2.10947
-1.99273
-5.66721
-8.84476
-11.4597
-13.4534
-14.778
-15.402
-15.317
-14.5469
-13.1421
-11.1667
-8.70432
-5.87682
-2.90124
75.5154
72.328
68.4083
64.0809
59.6139
55.0487
50.365
45.5687
40.69
35.7655
30.8335
25.9354
21.117
16.4291
11.9266
7.6681
3.71426
0.126981
-3.03285
-5.70773
-7.84661
-9.4085
-10.3668
-10.7144
-10.4627
-9.64662
-8.32902
-6.58948
-4.535
-2.3421
76.0452
73.0838
69.4501
65.4377
61.2939
57.0579
52.7097
48.2524
43.7115
39.1194
34.5095
29.9182
25.3859
20.9574
16.6809
12.608
8.79213
5.28753
2.14754
-0.577645
-2.84354
-4.61455
-5.86756
-6.59622
-6.80588
-6.5193
-5.79063
-4.69412
-3.32355
-1.82213
76.5043
73.7376
70.3523
66.6148
62.7535
58.8057
54.7517
50.5924
46.3495
42.0512
37.727
33.4085
29.1312
24.9343
20.8602
16.9541
13.2628
9.83388
6.71385
3.94664
1.57111
-0.381449
-1.89028
-2.94816
-3.56193
-3.74516
-3.53775
-3.00837
-2.23968
-1.3486
76.9002
74.3012
71.1312
67.6327
64.0174
60.3205
56.5231
52.6241
48.642
44.6013
40.5278
36.4491
32.3963
28.4036
24.5082
20.7497
17.169
13.8079
10.707
7.90483
5.43552
3.32673
1.59728
0.254696
-0.706659
-1.29842
-1.54933
-1.51791
-1.27706
-0.923931
77.2397
74.7844
71.8004
68.5092
65.1071
61.6277
58.0528
54.3797
50.6241
46.8076
42.9524
39.0828
35.2258
31.4114
27.6722
24.0429
20.5595
17.2584
14.1754
11.3444
8.79536
6.55301
4.63439
3.04706
1.787
0.843477
0.193656
-0.209129
-0.428991
-0.548053
77.529
75.1964
72.3725
69.2599
66.0416
62.7496
59.3664
55.8881
52.328
48.7049
45.0384
41.3496
37.6621
34.0021
30.3984
26.8813
23.4825
20.2341
17.1676
14.3129
11.6967
9.34092
7.26117
5.46495
3.95015
2.70468
1.71078
0.932175
0.312572
-0.218504
77.7731
75.5449
72.8576
69.8979
66.837
63.7053
60.4859
57.1743
53.7815
50.324
46.8191
43.2852
39.7429
36.2155
32.7281
29.3075
25.9817
22.7791
19.7276
16.8537
14.1811
11.7296
9.51348
7.53992
5.80788
4.30687
3.02004
1.9183
0.954156
0.0665855
77.9784
75.8379
73.2664
70.4365
67.5089
64.5129
61.4322
58.2615
55.0104
51.6932
48.3251
44.9225
41.5035
38.0885
34.6998
31.3613
28.0978
24.9346
21.8964
19.007
16.2877
13.7563
11.4258
9.30314
7.388
5.67157
4.13805
2.76208
1.50439
0.31158
78.1474
76.08
73.6051
70.8837
68.0674
65.1846
62.2196
59.1666
56.0335
52.8333
49.5794
46.2863
42.9701
39.649
36.3429
33.0731
29.8618
26.7317
23.7052
20.8034
18.0457
15.4482
13.023
10.7766
8.70924
6.81355
5.07425
3.46948
1.96565
0.516255
78.2899
76.2817
73.8861
71.2537
68.5285
65.7382
62.8677
59.9108
56.8741
53.7695
50.6088
47.4052
44.173
40.9286
37.6899
34.4763
31.3079
28.205
25.1882
22.2766
19.4879
16.837
14.3348
11.9878
9.79618
7.75386
5.84707
4.05521
2.34893
0.68724
78.3998
76.4385
74.1055
71.5434
68.8903
66.173
63.3772
60.4961
57.5355
54.5062
51.4191
48.2859
45.1199
41.936
38.7506
35.5813
32.4467
29.3654
26.3563
23.4372
20.6243
17.9314
15.3687
12.9423
10.6528
8.49451
6.45517
4.51553
2.64897
0.819642
78.501
76.5741
74.2885
71.7794
69.1804
66.5178
63.7778
60.9533
58.0496
55.0764
52.044
48.9633
45.8464
42.7073
39.5612
36.4245
33.3146
30.2489
27.2451
24.3198
21.4882
18.7634
16.1549
13.6686
11.305
9.05921
6.91961
4.86779
2.87896
0.921112
78.561
76.6561
74.4015
71.9283
69.3656
66.7396
64.0367
61.25
58.3842
55.4484
52.4526
49.4068
46.3228
43.2137
40.094
36.9793
33.8862
30.8313
27.8314
24.9024
22.0589
19.3132
16.6747
14.1488
11.7361
9.43198
7.22568
5.0992
3.02745
0.980649
78.6491
76.7477
74.5098
72.0569
69.5136
66.9062
64.222
61.4541
58.6068
55.689
52.7102
49.6805
46.6112
43.515
40.4063
37.3001
34.2128
31.1606
28.1599
25.2263
22.3742
19.6156
16.9596
14.4115
11.9718
9.63535
7.39055
5.21979
3.09785
0.987668
)
;

boundaryField
{
    inlet
    {
        type            zeroGradient;
    }
    outlet
    {
        type            fixedValue;
        value           uniform 0;
    }
    flap
    {
        type            zeroGradient;
    }
    upperWall
    {
        type            zeroGradient;
    }
    lowerWall
    {
        type            zeroGradient;
    }
    frontAndBack
    {
        type            empty;
    }
}


// ************************************************************************* //
