/*--------------------------------*- C++ -*----------------------------------*\
  =========                 |
  \\      /  F ield         | OpenFOAM: The Open Source CFD Toolbox
   \\    /   O peration     | Website:  https://openfoam.org
    \\  /    A nd           | Version:  7
     \\/     M anipulation  |
\*---------------------------------------------------------------------------*/
FoamFile
{
    version     2.0;
    format      ascii;
    class       surfaceScalarField;
    location    "0.8";
    object      phi;
}
// * * * * * * * * * * * * * * * * * * * * * * * * * * * * * * * * * * * * * //

dimensions      [0 3 -1 0 0 0 0];

internalField   nonuniform List<scalar> 
5457
(
0.198395
0.00160524
0.196414
0.00198042
0.194065
0.00234937
0.191304
0.0027609
0.188132
0.00317253
0.184551
0.00358009
0.18056
0.00399184
0.176144
0.00441511
0.17129
0.00485494
0.165974
0.0053152
0.160175
0.00579919
0.153866
0.00630964
0.147017
0.00684845
0.139601
0.00741638
0.131588
0.00801247
0.122955
0.00863342
0.113682
0.00927268
0.103763
0.00991941
0.0932055
0.0105572
0.0820424
0.0111631
0.0703362
0.0117061
0.0581891
0.0121471
0.0457501
0.012439
0.0332188
0.0125312
0.0208307
0.0123881
0.00876572
0.012065
-0.00242644
0.0111922
-0.00799502
0.00556858
-0.00739926
-0.000595764
-0.00739926
0.199905
0.00169999
0.199109
0.00277632
0.197837
0.00362202
0.196126
0.00447199
0.193973
0.00532464
0.191379
0.00617432
0.188338
0.00703305
0.184839
0.00791418
0.180866
0.00882783
0.176399
0.00978201
0.171415
0.0107836
0.165886
0.0118384
0.159784
0.0129508
0.153077
0.0141227
0.145737
0.0153531
0.137734
0.0166363
0.129046
0.0179603
0.119661
0.0193047
0.10958
0.0206379
0.0988287
0.0219148
0.0874614
0.0230735
0.0755747
0.0240338
0.0633191
0.0246946
0.0509181
0.0249323
0.0387164
0.0245898
0.0273684
0.023413
0.0179171
0.0206434
0.00876654
0.0147192
0.00157405
0.00659673
-0.00582521
0.199758
0.00194193
0.199022
0.00351286
0.19782
0.00482341
0.196207
0.00608471
0.194192
0.00734047
0.191771
0.00859467
0.188943
0.00986142
0.185699
0.0111582
0.182027
0.0124999
0.17791
0.0138985
0.173329
0.0153644
0.168261
0.0169068
0.162679
0.0185325
0.156556
0.0202458
0.149863
0.0220467
0.14257
0.0239292
0.134651
0.0258788
0.126087
0.0278691
0.116866
0.0298583
0.106997
0.0317844
0.0965093
0.0335608
0.0854718
0.0350712
0.0740024
0.036164
0.0622913
0.0366435
0.0506314
0.0362497
0.0394313
0.0346131
0.0289446
0.0311301
0.0186742
0.0249895
0.00918478
0.0160862
0.00335957
0.199681
0.00226134
0.198943
0.00425074
0.197762
0.00600424
0.196175
0.00767149
0.194198
0.00931797
0.191831
0.0109615
0.189073
0.0126195
0.185919
0.0143121
0.182361
0.0160577
0.178388
0.0178717
0.173985
0.0197672
0.169136
0.0217559
0.163822
0.0238467
0.158022
0.0260458
0.151714
0.0283544
0.144876
0.0307672
0.137486
0.0332692
0.129523
0.0358318
0.120973
0.0384081
0.111831
0.040927
0.102105
0.0432866
0.091829
0.045347
0.0810705
0.0469225
0.0699416
0.0477725
0.058601
0.0475902
0.0472235
0.0459907
0.0358795
0.0424742
0.0244094
0.0364596
0.0126661
0.0278294
0.0160257
0.199645
0.00261635
0.198899
0.00499647
0.197738
0.00716577
0.19618
0.009229
0.194242
0.0112562
0.191926
0.0132773
0.189232
0.0153141
0.186154
0.0173893
0.182688
0.0195237
0.178825
0.0217354
0.174552
0.0240396
0.169859
0.0264495
0.16473
0.0289757
0.15915
0.031625
0.153105
0.0343999
0.146577
0.0372954
0.139549
0.040297
0.132005
0.043376
0.123928
0.0464846
0.115306
0.0495492
0.10613
0.0524627
0.0964014
0.0550757
0.0861355
0.0571884
0.0753653
0.0585427
0.0641369
0.0588185
0.0524923
0.0576353
0.0404143
0.0545522
0.0277567
0.0491172
0.0143211
0.041265
0.0303468
0.19963
0.00298592
0.198884
0.00574289
0.197746
0.00830383
0.196226
0.010749
0.194336
0.0131458
0.192081
0.0155322
0.18946
0.0179352
0.18647
0.0203798
0.183105
0.022889
0.179357
0.025483
0.175218
0.0281787
0.170677
0.0309907
0.165722
0.0339306
0.160341
0.037006
0.154521
0.0402199
0.148248
0.0435681
0.141508
0.047037
0.134285
0.0505993
0.12656
0.0542092
0.118314
0.0577957
0.109522
0.0612547
0.100158
0.0644398
0.0901929
0.067153
0.0795976
0.069138
0.0683386
0.0700775
0.0563745
0.0695994
0.043633
0.0672937
0.0299969
0.0627533
0.0153855
0.0558764
0.0457323
0.199628
0.00335814
0.19889
0.00648108
0.19778
0.00941343
0.196305
0.0122245
0.194473
0.0149777
0.192289
0.0177161
0.189753
0.0204711
0.186862
0.0232704
0.183612
0.0261391
0.179996
0.029099
0.176006
0.0321691
0.171632
0.035365
0.166863
0.0386993
0.161688
0.0421807
0.156095
0.045813
0.15007
0.0495933
0.143597
0.0535097
0.136659
0.0575378
0.129232
0.0616363
0.121286
0.0657412
0.112783
0.0697574
0.103673
0.0735502
0.0938904
0.0769356
0.0833573
0.0796711
0.0719832
0.0814516
0.0596703
0.0819124
0.0463179
0.0806461
0.0318478
0.0772234
0.0162812
0.0714429
0.0620135
0.199632
0.00372566
0.19891
0.00720321
0.197835
0.010489
0.19641
0.0136488
0.194645
0.0167435
0.192542
0.0198188
0.190103
0.0229103
0.187325
0.026048
0.184205
0.0292592
0.180737
0.0325674
0.176912
0.0359933
0.172724
0.0395538
0.16816
0.0432629
0.16321
0.0471307
0.157861
0.0511624
0.152097
0.0553572
0.1459
0.0597064
0.139248
0.0641902
0.13211
0.0687743
0.124446
0.0734049
0.116202
0.0780012
0.107305
0.0824472
0.09766
0.0865809
0.0871478
0.0901834
0.0756308
0.0929685
0.0629653
0.0945779
0.0490252
0.0945862
0.0337528
0.0924958
0.0172406
0.0879551
0.0792541
0.199642
0.00408351
0.198943
0.00790278
0.197907
0.0115247
0.19654
0.0150157
0.194848
0.0184352
0.192836
0.0218311
0.190504
0.0252419
0.187852
0.0287004
0.184876
0.0322355
0.18157
0.0358728
0.177929
0.0396341
0.173945
0.0435384
0.169607
0.0476011
0.164903
0.0518341
0.15982
0.056245
0.154341
0.0608361
0.148445
0.0656031
0.142102
0.0705328
0.135276
0.0756004
0.127915
0.0807655
0.11995
0.085966
0.111287
0.0911104
0.101801
0.0960666
0.0913365
0.100648
0.0797071
0.104598
0.0667166
0.107568
0.0521936
0.109109
0.0360628
0.108627
0.0184529
0.105565
0.0977071
0.199655
0.00442812
0.198984
0.00857446
0.197993
0.0125151
0.19669
0.016319
0.195079
0.0200457
0.193166
0.0237443
0.190952
0.0274562
0.188436
0.0312162
0.185616
0.0350553
0.182489
0.0390006
0.179047
0.0430756
0.175285
0.0473009
0.171192
0.0516939
0.166757
0.0562686
0.161967
0.0610356
0.156801
0.0660015
0.151237
0.0711674
0.145241
0.0765286
0.13877
0.0820718
0.131762
0.0877731
0.124136
0.093593
0.115776
0.0994701
0.106532
0.105311
0.096208
0.110972
0.0845633
0.116243
0.0713276
0.120804
0.0562411
0.124196
0.0391457
0.125722
0.020143
0.124568
0.11785
0.199671
0.0047568
0.199032
0.00921388
0.198092
0.0134553
0.196857
0.0175533
0.195335
0.0215682
0.193528
0.0255507
0.191441
0.029544
0.189071
0.0335853
0.18642
0.037707
0.183483
0.0419377
0.180255
0.0463028
0.176732
0.0508244
0.172904
0.0555219
0.168761
0.0604119
0.164288
0.0655085
0.159467
0.0708227
0.154271
0.0763625
0.148668
0.0821324
0.142607
0.0881326
0.136022
0.0943575
0.128822
0.100794
0.120876
0.107415
0.112012
0.114175
0.101992
0.120992
0.0905137
0.127721
0.0772029
0.134115
0.0616464
0.139752
0.0434868
0.143882
0.022653
0.145402
0.140503
0.199689
0.00506744
0.199086
0.00981742
0.1982
0.0143409
0.19704
0.0187135
0.195611
0.022997
0.193919
0.0272434
0.191965
0.0314976
0.189752
0.0357985
0.187279
0.0401801
0.184544
0.0446725
0.181544
0.0493024
0.178275
0.0540936
0.174729
0.0590675
0.170898
0.0642433
0.166768
0.0696385
0.162321
0.0752692
0.157534
0.0811503
0.15237
0.0872958
0.146783
0.0937199
0.140704
0.100437
0.134037
0.10746
0.126649
0.114804
0.118349
0.122475
0.108873
0.130468
0.0978506
0.138743
0.0847833
0.147182
0.0690243
0.155511
0.0498267
0.163079
0.0266029
0.168625
0.167106
0.199709
0.00535835
0.199144
0.0103821
0.198317
0.0151681
0.197236
0.0197952
0.195906
0.024327
0.194333
0.0288164
0.19252
0.0333099
0.190471
0.037848
0.188185
0.0424658
0.185663
0.0471947
0.182903
0.0520627
0.179901
0.057095
0.176654
0.0623149
0.173153
0.0677439
0.169389
0.0734029
0.165346
0.0793124
0.161002
0.0854939
0.156327
0.0919707
0.151277
0.0987698
0.14579
0.105924
0.139776
0.113474
0.133108
0.121472
0.125598
0.129985
0.116974
0.139093
0.106827
0.14889
0.0945443
0.159465
0.0791942
0.170861
0.0593894
0.182884
0.0332834
0.194731
0.200389
0.19973
0.00562821
0.199207
0.0109055
0.198441
0.0159337
0.197442
0.0207947
0.196215
0.0255536
0.194767
0.0302645
0.193102
0.0349752
0.191223
0.039727
0.189132
0.0445565
0.186831
0.0494958
0.18432
0.0545739
0.181597
0.0598173
0.178661
0.0652506
0.175508
0.0708975
0.172129
0.0767814
0.168515
0.0829269
0.164648
0.0893605
0.160506
0.0961132
0.156053
0.103223
0.15124
0.110737
0.145994
0.118719
0.140211
0.127255
0.133733
0.136462
0.126321
0.146505
0.117595
0.157616
0.106921
0.170139
0.0931811
0.184601
0.0742445
0.201821
0.0457623
0.223213
0.246152
0.199752
0.005876
0.199272
0.0113857
0.198571
0.0166351
0.197656
0.0217089
0.196537
0.0266733
0.195217
0.0315837
0.193704
0.0364886
0.192001
0.0414304
0.190111
0.0464462
0.188038
0.051569
0.185783
0.0568283
0.183349
0.0622515
0.180736
0.0678642
0.177942
0.0736913
0.174965
0.0797583
0.1718
0.0860922
0.168437
0.0927233
0.164862
0.0996875
0.161055
0.10703
0.156985
0.114807
0.152606
0.123098
0.147854
0.132008
0.142631
0.141686
0.136787
0.152349
0.130079
0.164324
0.122078
0.17814
0.111937
0.194743
0.0976228
0.216135
0.0724929
0.248343
0.318645
-0.0152387
0.0152387
-0.0328273
0.0175886
-0.0509579
0.0181306
-0.0692599
0.018302
-0.0874763
0.0182164
-0.105418
0.0179417
-0.12293
0.0175121
-0.13988
0.0169499
-0.15615
0.0162699
-0.17163
0.0154805
-0.186215
0.0145846
-0.199795
0.0135801
-0.212256
0.0124605
-0.223472
0.011216
-0.233306
0.00983423
-0.241607
0.00830116
-0.248208
0.00660114
-0.252929
0.00472052
-0.255591
0.00266265
-0.255897
0.00030546
-0.253648
-0.00224901
-0.248411
-0.0052371
-0.239816
-0.00859448
-0.227433
-0.0123827
-0.210718
-0.0167159
-0.18899
-0.0217279
-0.16131
-0.0276796
-0.125787
-0.0355227
-0.0790575
-0.0467298
-0.0530516
-0.0194627
0.0347014
-0.0390368
0.0371628
-0.0586532
0.0377469
-0.0781845
0.0378334
-0.0974494
0.0374813
-0.116289
0.0367809
-0.134568
0.0357915
-0.152173
0.0345548
-0.169002
0.0330987
-0.184959
0.0314383
-0.199952
0.0295771
-0.213881
0.027509
-0.22664
0.0252194
-0.238112
0.0226877
-0.248166
0.0198883
-0.256658
0.0167932
-0.26343
0.0133739
-0.268315
0.00960487
-0.271103
0.00545058
-0.271685
0.000888052
-0.269766
-0.00416863
-0.265227
-0.00977592
-0.257794
-0.0160269
-0.247178
-0.022999
-0.233057
-0.0308368
-0.215085
-0.0397002
-0.192926
-0.0498383
-0.166552
-0.0618969
-0.136911
-0.0763709
-0.0914097
-0.0203194
0.0550208
-0.0403877
0.057231
-0.0601607
0.05752
-0.0796012
0.0572739
-0.0986039
0.056484
-0.11707
0.0552468
-0.134911
0.0536326
-0.15205
0.0516942
-0.168418
0.0494659
-0.183943
0.046964
-0.198555
0.0441884
-0.21217
0.0411248
-0.224699
0.0377476
-0.236034
0.0340227
-0.246056
0.0299103
-0.25463
0.0253674
-0.261607
0.020351
-0.266823
0.014821
-0.270118
0.00874584
-0.271301
0.0020707
-0.270281
-0.00518879
-0.266867
-0.01319
-0.260886
-0.0220082
-0.252161
-0.0317237
-0.240517
-0.0424811
-0.225798
-0.0544188
-0.207987
-0.0676497
-0.187458
-0.0824258
-0.164494
-0.0993343
-0.117979
-0.0196821
0.0747029
-0.0391165
0.0766654
-0.0581415
0.0765449
-0.0767217
0.0758541
-0.0947984
0.0745607
-0.112324
0.0727725
-0.129254
0.0705623
-0.145544
0.0679847
-0.16115
0.0650715
-0.176018
0.0618324
-0.190087
0.0582571
-0.203281
0.0543185
-0.215509
0.0499764
-0.226668
0.0451815
-0.236636
0.0398784
-0.245279
0.0340099
-0.252447
0.0275196
-0.257983
0.0203569
-0.261721
0.0124841
-0.263527
0.00387631
-0.263263
-0.00545237
-0.26085
-0.0156031
-0.256175
-0.0266832
-0.249141
-0.0387576
-0.239669
-0.0519535
-0.227721
-0.0663671
-0.213407
-0.0819631
-0.197104
-0.0987289
-0.1792
-0.117238
-0.136723
-0.0182254
0.0929283
-0.036254
0.094694
-0.053896
0.0941869
-0.0711075
0.0930657
-0.0878523
0.0913054
-0.104112
0.0890324
-0.119868
0.0863177
-0.135094
0.0832106
-0.149755
0.0797332
-0.163805
0.0758825
-0.177182
0.0716338
-0.189808
0.0669448
-0.201592
0.0617602
-0.212427
0.0560161
-0.222192
0.0496439
-0.230757
0.0425742
-0.237978
0.0347405
-0.243705
0.0260843
-0.247788
0.0165672
-0.2501
0.00618793
-0.250531
-0.00502082
-0.249031
-0.0171037
-0.24555
-0.0301635
-0.240064
-0.0442437
-0.232566
-0.0594516
-0.223088
-0.0758457
-0.211765
-0.0932862
-0.198919
-0.111574
-0.185157
-0.131
-0.150163
-0.0162185
0.109147
-0.0323392
0.110815
-0.0481604
0.110008
-0.0636401
0.108545
-0.0787559
0.106421
-0.0935042
0.103781
-0.107876
0.100689
-0.121852
0.0971867
-0.1354
0.0932815
-0.148473
0.0889551
-0.161006
0.0841668
-0.17292
0.0788591
-0.184123
0.0729629
-0.194507
0.0664009
-0.203956
0.0590923
-0.212338
0.0509568
-0.219517
0.0419189
-0.225347
0.031914
-0.229684
0.0209046
-0.232404
0.00890802
-0.233417
-0.00400765
-0.232714
-0.0178073
-0.230307
-0.0325703
-0.226234
-0.0483168
-0.220545
-0.0651399
-0.213306
-0.0830851
-0.204626
-0.101966
-0.194765
-0.121435
-0.18442
-0.141345
-0.159793
-0.0138257
0.122972
-0.0276918
0.124681
-0.0413796
0.123696
-0.0548561
0.122022
-0.0681114
0.119677
-0.0811497
0.116819
-0.093964
0.113504
-0.106535
0.109758
-0.118829
0.105575
-0.130791
0.100918
-0.142355
0.0957305
-0.153437
0.089941
-0.163942
0.0834675
-0.173762
0.0762208
-0.182779
0.0681097
-0.190867
0.0590447
-0.197892
0.0489437
-0.203716
0.0377384
-0.208205
0.025393
-0.211234
0.0119372
-0.212721
-0.00252005
-0.212699
-0.0178298
-0.21124
-0.034029
-0.208448
-0.0511093
-0.204425
-0.069163
-0.199247
-0.088263
-0.192973
-0.10824
-0.185775
-0.128633
-0.178296
-0.148824
-0.1665
-0.0111562
0.134129
-0.0225127
0.136037
-0.0338308
0.135014
-0.0450943
0.133285
-0.0563054
0.130888
-0.0674735
0.127987
-0.0785898
0.12462
-0.0896304
0.120799
-0.100553
0.116498
-0.111299
0.111664
-0.121793
0.106224
-0.131946
0.100095
-0.141661
0.0931828
-0.15083
0.0853897
-0.159335
0.0766146
-0.16705
0.0667597
-0.173843
0.055737
-0.179581
0.0434757
-0.184129
0.0299411
-0.187364
0.0151725
-0.189191
-0.000692969
-0.189698
-0.0173233
-0.189024
-0.0347022
-0.187347
-0.0527866
-0.184826
-0.0716842
-0.181544
-0.0915448
-0.177498
-0.112286
-0.172735
-0.133396
-0.167732
-0.153827
-0.170834
-0.0082774
0.142406
-0.0169272
0.144687
-0.0256888
0.143776
-0.0345725
0.142169
-0.0435938
0.139909
-0.052766
0.137159
-0.062074
0.133928
-0.0714859
0.130211
-0.0809497
0.125961
-0.0903973
0.121111
-0.0997459
0.115573
-0.108902
0.109251
-0.117767
0.102047
-0.126231
0.0938537
-0.134176
0.0845601
-0.141476
0.0740593
-0.147994
0.0622551
-0.153591
0.049073
-0.158129
0.0344783
-0.161482
0.0185258
-0.163504
0.00132953
-0.164366
-0.0164619
-0.164282
-0.0347862
-0.163511
-0.0535576
-0.162287
-0.0729084
-0.160712
-0.0931197
-0.158727
-0.11427
-0.156229
-0.135894
-0.153444
-0.156612
-0.173144
-0.005232
0.147638
-0.0110114
0.150467
-0.0170612
0.149825
-0.0234311
0.148539
-0.03015
0.146628
-0.0372332
0.144242
-0.0446536
0.141348
-0.052367
0.137924
-0.0603088
0.133903
-0.0683996
0.129202
-0.0765482
0.123721
-0.0846554
0.117358
-0.0926234
0.110015
-0.100346
0.101577
-0.107707
0.0919211
-0.114576
0.0809285
-0.120809
0.0684874
-0.126248
0.0545123
-0.130729
0.0389588
-0.134084
0.0218817
-0.136241
0.00348608
-0.137327
-0.0153764
-0.137629
-0.034484
-0.137526
-0.0536604
-0.137345
-0.0730888
-0.137234
-0.0932314
-0.137105
-0.114399
-0.136717
-0.136281
-0.13599
-0.15734
-0.173656
-0.00206432
0.149702
-0.00480846
0.153211
-0.00801088
0.153028
-0.0117556
0.152284
-0.0160921
0.150964
-0.021028
0.149178
-0.0265135
0.146834
-0.032488
0.143899
-0.038869
0.140284
-0.0455633
0.135896
-0.0524697
0.130628
-0.0594782
0.124367
-0.0665005
0.117038
-0.0734375
0.108514
-0.0801794
0.098663
-0.0865997
0.0873488
-0.0925455
0.0744332
-0.09784
0.0598068
-0.102291
0.0434097
-0.105682
0.0252732
-0.1079
0.00570367
-0.109097
-0.0141799
-0.109626
-0.0339542
-0.109978
-0.053309
-0.110573
-0.0724937
-0.111625
-0.0921797
-0.113069
-0.112954
-0.114591
-0.134759
-0.115811
-0.15612
-0.172518
0.00119957
0.148503
0.00164589
0.152764
0.00140956
0.153264
0.000393382
0.1533
-0.00152044
0.152878
-0.00427001
0.151928
-0.00780898
0.150373
-0.0120363
0.148126
-0.0168434
0.145091
-0.0221217
0.141174
-0.0277578
0.136264
-0.0336124
0.130221
-0.0396224
0.123048
-0.0456977
0.114589
-0.0517392
0.104704
-0.0576359
0.0932455
-0.0632424
0.0800397
-0.068368
0.0649325
-0.0728324
0.0478742
-0.0763528
0.0287936
-0.0786495
0.00800031
-0.0799495
-0.0128799
-0.080671
-0.0332328
-0.081374
-0.0526059
-0.0825366
-0.0713311
-0.084443
-0.0902733
-0.0871011
-0.110296
-0.0902291
-0.131631
-0.0932702
-0.153079
-0.169843
0.00460245
0.1439
0.00839213
0.148975
0.0112136
0.150443
0.0129337
0.15158
0.0134557
0.152356
0.0128428
0.152541
0.0112329
0.151983
0.00876399
0.150595
0.00556455
0.148291
0.0017499
0.144989
-0.00258424
0.140598
-0.00728321
0.13492
-0.012231
0.127995
-0.0173491
0.119707
-0.0225562
0.109912
-0.0277674
0.0984567
-0.0328715
0.0851439
-0.0376533
0.0697142
-0.0420501
0.0522709
-0.0457935
0.032537
-0.0484079
0.0106148
-0.0498652
-0.0114225
-0.0509223
-0.0321757
-0.0520527
-0.0514756
-0.0537179
-0.0696659
-0.056245
-0.0877463
-0.0597386
-0.106803
-0.0640438
-0.127326
-0.0686765
-0.148446
-0.165708
0.00824648
0.135654
0.015532
0.141689
0.0214961
0.144479
0.0258979
0.147178
0.0287181
0.149536
0.0301374
0.151121
0.0303545
0.151766
0.0295571
0.151392
0.0279073
0.149941
0.0255487
0.147348
0.0226076
0.143539
0.0191693
0.138359
0.0153794
0.131785
0.0113389
0.123747
0.00712904
0.114121
0.00282025
0.102766
-0.00156004
0.0895241
-0.00592449
0.0740787
-0.00982955
0.056176
-0.0133771
0.0360845
-0.0163524
0.0135901
-0.0185397
-0.0092353
-0.0203308
-0.0303845
-0.0221659
-0.0496405
-0.024439
-0.0673927
-0.0274968
-0.0846885
-0.0315255
-0.102774
-0.0365199
-0.122331
-0.0423048
-0.142661
-0.160186
0.0122563
0.123398
0.0232265
0.130719
0.0324784
0.135227
0.0394009
0.140255
0.0442963
0.144641
0.0475392
0.147878
0.0494171
0.149888
0.0501643
0.150645
0.0499728
0.150132
0.0490026
0.148318
0.0473882
0.145153
0.0452168
0.14053
0.0426108
0.134391
0.0396823
0.126676
0.0365232
0.117281
0.0332186
0.10607
0.0298677
0.092875
0.0265211
0.0774253
0.0232146
0.0594825
0.0201482
0.0391509
0.0169463
0.016792
0.0139423
-0.00623134
0.011138
-0.0275802
0.00828002
-0.0467825
0.00514834
-0.064261
0.00150128
-0.0810414
-0.00289695
-0.0983758
-0.00815602
-0.117072
-0.0145676
-0.13625
-0.153843
0.207427
0.00610904
0.206975
0.0118369
0.206317
0.0172933
0.205461
0.0225649
0.204415
0.0277193
0.203186
0.0328126
0.201781
0.0378942
0.200204
0.0430068
0.198462
0.0481883
0.19656
0.0534717
0.194501
0.0588872
0.19229
0.0644623
0.189931
0.070223
0.187428
0.076195
0.184781
0.0824045
0.181994
0.0888795
0.179065
0.095652
0.175993
0.10276
0.172773
0.11025
0.169398
0.118183
0.165857
0.126639
0.16214
0.135725
0.158233
0.145593
0.154128
0.156453
0.149839
0.168613
0.145448
0.182531
0.141298
0.198892
0.138983
0.21845
0.148704
0.238623
0.248973
0.218376
0.21247
0.00632152
0.212059
0.012248
0.211461
0.017892
0.210684
0.0233418
0.209737
0.0286662
0.208628
0.0339215
0.207364
0.0391577
0.205953
0.0444178
0.204402
0.0497395
0.202718
0.0551563
0.200907
0.0606978
0.198978
0.0663916
0.196937
0.0722634
0.194794
0.0783385
0.192555
0.0846427
0.190231
0.0912036
0.187831
0.098052
0.185367
0.105224
0.182852
0.112764
0.180307
0.120728
0.17776
0.129186
0.175257
0.138228
0.172877
0.147973
0.170762
0.158568
0.169188
0.170186
0.168735
0.182985
0.170677
0.19695
0.177364
0.211763
0.189555
0.226432
0.240044
0.198484
0.217638
0.00651114
0.217271
0.0126146
0.216738
0.0184249
0.216049
0.0240316
0.215211
0.029504
0.214234
0.0348988
0.213125
0.0402658
0.211895
0.0456482
0.210551
0.0510833
0.209103
0.0566041
0.207562
0.0622397
0.205936
0.0680169
0.204239
0.0739603
0.202484
0.0800941
0.200684
0.0864422
0.198858
0.0930301
0.197025
0.0998853
0.19521
0.107039
0.193445
0.114529
0.191776
0.122398
0.190263
0.130698
0.188999
0.139492
0.188124
0.148848
0.187859
0.158834
0.18855
0.169496
0.190711
0.180824
0.194969
0.192692
0.201776
0.204955
0.210549
0.217659
0.2285
0.222093
0.222932
0.00667575
0.222614
0.0129325
0.222153
0.018886
0.221558
0.0246264
0.220839
0.0302232
0.220005
0.0357332
0.219065
0.0412058
0.218029
0.0466837
0.216909
0.0522037
0.215715
0.0577977
0.214461
0.0634939
0.21316
0.0693175
0.211829
0.0752917
0.210485
0.0814381
0.209149
0.0877782
0.207846
0.0943333
0.206605
0.101126
0.205464
0.10818
0.20447
0.115523
0.203686
0.123182
0.203196
0.131189
0.203115
0.139573
0.203603
0.14836
0.204879
0.157558
0.207225
0.167149
0.210974
0.177075
0.216454
0.187211
0.224074
0.197336
0.234519
0.207213
0.214756
0.248263
0.228356
0.00681331
0.22809
0.0131978
0.227707
0.0192695
0.227214
0.0251189
0.226623
0.0308151
0.225941
0.0364145
0.225181
0.041966
0.224354
0.0475113
0.223471
0.0530863
0.222547
0.0587216
0.221597
0.0644438
0.220639
0.0702762
0.219691
0.0762395
0.218776
0.0823525
0.217922
0.0886328
0.217158
0.0950968
0.216523
0.101761
0.216063
0.10864
0.215837
0.115749
0.215916
0.123102
0.216397
0.130708
0.217399
0.138571
0.219076
0.146682
0.22162
0.155014
0.225258
0.163511
0.230255
0.172078
0.236912
0.180554
0.245593
0.188654
0.25669
0.196116
0.201928
0.269518
0.233912
0.0069219
0.233703
0.0134068
0.233402
0.0195703
0.233019
0.0255023
0.232562
0.0312714
0.232044
0.0369332
0.231474
0.0425357
0.230866
0.0481194
0.230234
0.0537187
0.229593
0.0593626
0.228961
0.0650758
0.228358
0.0708791
0.227807
0.0767905
0.227334
0.0828251
0.226971
0.0889961
0.226753
0.0953145
0.226724
0.101789
0.226937
0.108427
0.227454
0.115232
0.228354
0.122203
0.229731
0.129331
0.231701
0.136601
0.234403
0.143981
0.237998
0.151418
0.242674
0.158836
0.248634
0.166118
0.256085
0.173104
0.265178
0.179561
0.276
0.185295
0.189834
0.288095
0.239603
0.00699982
0.239454
0.0135561
0.239241
0.0197835
0.238973
0.0257705
0.238659
0.031585
0.238311
0.0372812
0.237941
0.0429058
0.237562
0.0484981
0.23719
0.0540906
0.236843
0.0597103
0.236539
0.0653797
0.236301
0.0711169
0.236155
0.0769365
0.23613
0.08285
0.23626
0.0888659
0.236585
0.0949895
0.237152
0.101223
0.238014
0.107565
0.239238
0.114009
0.240899
0.120542
0.243086
0.127143
0.245905
0.133782
0.249473
0.140412
0.253922
0.14697
0.259388
0.153369
0.266008
0.159498
0.273893
0.165219
0.283093
0.170361
0.293625
0.174762
0.178176
0.305283
0.245433
0.00704555
0.245347
0.013643
0.245225
0.0199049
0.245077
0.0259184
0.244913
0.0317496
0.244742
0.0374515
0.244579
0.043069
0.244437
0.0486397
0.244334
0.0541942
0.244287
0.0597574
0.244317
0.065349
0.24445
0.0709844
0.244712
0.0766749
0.245134
0.082428
0.245752
0.0882476
0.246608
0.0941339
0.247748
0.100083
0.249227
0.106085
0.251109
0.112127
0.253463
0.118188
0.25637
0.124237
0.259918
0.130234
0.264203
0.136127
0.269323
0.14185
0.275373
0.147319
0.282435
0.152436
0.290567
0.157088
0.299782
0.161146
0.310061
0.164483
0.166972
0.321266
0.251405
0.00705779
0.251383
0.0136649
0.251357
0.0199312
0.251334
0.0259415
0.251323
0.0317603
0.251336
0.0374386
0.251385
0.0430196
0.251486
0.0485388
0.251656
0.0540246
0.251914
0.0594997
0.252281
0.0649811
0.252785
0.0704812
0.253451
0.0760082
0.254314
0.0815658
0.255408
0.0871537
0.256774
0.0927673
0.258459
0.0983974
0.260515
0.10403
0.262998
0.109644
0.265972
0.115214
0.269506
0.120703
0.27367
0.12607
0.278538
0.131259
0.284179
0.136208
0.290655
0.140843
0.298012
0.145079
0.306273
0.148827
0.315426
0.151992
0.325425
0.154485
0.156239
0.336158
0.257521
0.00703553
0.257566
0.0136199
0.257638
0.0198596
0.257743
0.0258366
0.25789
0.0316133
0.258089
0.0372387
0.258355
0.0427539
0.258702
0.048192
0.259147
0.0535795
0.25971
0.0589363
0.260414
0.064277
0.261284
0.0696113
0.262349
0.0749441
0.263639
0.0802758
0.26519
0.0856025
0.267041
0.0909159
0.269236
0.0962028
0.271821
0.101445
0.274846
0.106618
0.278367
0.111693
0.282437
0.116633
0.287114
0.121394
0.292448
0.125925
0.298487
0.13017
0.305266
0.134064
0.312805
0.13754
0.321103
0.140528
0.330132
0.142963
0.339835
0.144782
0.145954
0.35012
0.263785
0.006978
0.263898
0.0135065
0.26407
0.019688
0.264305
0.0256014
0.264612
0.0313064
0.265001
0.0368497
0.265485
0.0422702
0.266078
0.0475987
0.266798
0.0528594
0.267665
0.0580697
0.2687
0.0632418
0.269929
0.0683828
0.271378
0.0734947
0.273078
0.0785753
0.275063
0.0836178
0.277368
0.0886108
0.280033
0.0935385
0.283097
0.0983803
0.286605
0.103111
0.290599
0.107699
0.295124
0.112108
0.300218
0.116299
0.305919
0.120225
0.312253
0.123836
0.319236
0.12708
0.32687
0.129905
0.335139
0.13226
0.344005
0.134097
0.353411
0.135377
0.136086
0.363278
0.2702
0.00688473
0.270383
0.0133239
0.270655
0.0194154
0.271022
0.0252346
0.27149
0.0308384
0.272069
0.036271
0.27277
0.0415688
0.273608
0.0467605
0.2746
0.0518675
0.275765
0.0569054
0.277123
0.0618838
0.278698
0.0668075
0.280516
0.0716763
0.282606
0.0764858
0.284997
0.0812269
0.287721
0.0858864
0.290813
0.0904471
0.294306
0.0948872
0.298235
0.099181
0.302635
0.103299
0.307537
0.107207
0.312967
0.110868
0.318948
0.114244
0.325492
0.117292
0.332601
0.119971
0.340265
0.122242
0.348457
0.124067
0.357137
0.125417
0.366248
0.126265
0.126612
0.375723
0.27677
0.00675554
0.277022
0.0130718
0.277396
0.0190416
0.277894
0.0247363
0.278523
0.0302099
0.27929
0.0355039
0.280207
0.0406522
0.281286
0.045681
0.282544
0.0506097
0.283998
0.0554516
0.285667
0.0602142
0.287574
0.0649005
0.289742
0.0695083
0.292196
0.0740317
0.294963
0.0784601
0.29807
0.0827795
0.301545
0.086972
0.305416
0.0910161
0.30971
0.0948872
0.314451
0.0985575
0.319661
0.101997
0.325355
0.105174
0.331544
0.108055
0.338229
0.110607
0.345403
0.112798
0.353045
0.1146
0.361127
0.115986
0.369605
0.116938
0.378427
0.117443
0.117506
0.387533
0.283498
0.00659052
0.283819
0.0127504
0.284294
0.018567
0.284923
0.0241075
0.28571
0.0294226
0.286663
0.0345511
0.28779
0.0395244
0.289105
0.0443663
0.290621
0.0490941
0.292353
0.053719
0.294321
0.0582471
0.296542
0.0626794
0.299037
0.0670127
0.301829
0.0712398
0.30494
0.0753495
0.308391
0.0793277
0.312207
0.0831567
0.316407
0.0868161
0.321011
0.0902834
0.326034
0.0935336
0.331491
0.0965408
0.337387
0.099278
0.343723
0.101719
0.350493
0.103837
0.357682
0.105609
0.365265
0.107016
0.373212
0.10804
0.381479
0.108671
0.390018
0.108904
0.108749
0.398776
0.290387
0.00639004
0.290777
0.0123605
0.291351
0.0179929
0.292108
0.0233501
0.293051
0.0284794
0.294186
0.0334168
0.295519
0.0381912
0.297061
0.042824
0.298825
0.0473307
0.300823
0.0517206
0.303072
0.0559984
0.305587
0.0601639
0.308387
0.0642131
0.311488
0.0681381
0.31491
0.0719278
0.318669
0.0755684
0.322783
0.0790432
0.327265
0.0823338
0.332129
0.0854197
0.337383
0.0882797
0.343032
0.0908917
0.349076
0.0932341
0.355509
0.0952858
0.362318
0.0970278
0.369484
0.0984433
0.37698
0.0995192
0.384774
0.100246
0.392825
0.10062
0.401089
0.10064
0.10032
0.409517
0.297441
0.00615472
0.297898
0.0119033
0.29857
0.0173214
0.299453
0.0224671
0.300548
0.0273845
0.301858
0.0321066
0.303389
0.0366598
0.30515
0.0410635
0.307149
0.0453311
0.309399
0.0494708
0.311912
0.0534857
0.314701
0.0573749
0.31778
0.061134
0.321163
0.064755
0.324864
0.0682273
0.328894
0.0715378
0.333266
0.0746715
0.337988
0.077612
0.343066
0.0803416
0.348503
0.0828424
0.354298
0.0850966
0.360445
0.0870871
0.366933
0.0887981
0.373744
0.0902159
0.380858
0.0913296
0.388246
0.0921314
0.395875
0.0926171
0.403708
0.0927867
0.411705
0.0926441
0.092203
0.419822
0.304664
0.00588541
0.305187
0.0113806
0.305953
0.016555
0.306958
0.0214623
0.3082
0.026143
0.309679
0.0306272
0.3114
0.0349388
0.313369
0.0390953
0.315591
0.0431084
0.318077
0.0469849
0.320836
0.0507272
0.323877
0.0543339
0.32721
0.0578002
0.330847
0.0611187
0.334795
0.0642794
0.339062
0.0672704
0.343655
0.0700787
0.348577
0.0726899
0.353829
0.0750893
0.359409
0.0772625
0.365311
0.0791952
0.371523
0.0808745
0.378032
0.0822892
0.384818
0.08343
0.391857
0.0842905
0.399122
0.084867
0.406579
0.0851592
0.414196
0.0851702
0.421934
0.084906
0.084381
0.429756
0.312061
0.00558315
0.312647
0.0107944
0.313505
0.0156971
0.314627
0.0203402
0.316009
0.0247606
0.317651
0.0289859
0.319552
0.0330374
0.321717
0.0369307
0.324149
0.0406761
0.326855
0.0442792
0.32984
0.0477419
0.333111
0.0510624
0.336676
0.0542361
0.340538
0.0572561
0.344704
0.0601135
0.349176
0.062798
0.353957
0.0652982
0.359045
0.0676022
0.364436
0.0696981
0.370124
0.0715743
0.376099
0.0732202
0.382347
0.0746265
0.388851
0.0757854
0.395589
0.0766916
0.402538
0.0773419
0.409669
0.0777357
0.416953
0.0778755
0.424357
0.0777663
0.431847
0.0774156
0.0768377
0.439391
0.319634
0.00524912
0.320281
0.010147
0.321227
0.014751
0.322462
0.0191055
0.323978
0.0232439
0.325773
0.0271908
0.327845
0.0309655
0.330194
0.0345816
0.332822
0.0380482
0.335732
0.0413699
0.338925
0.0445482
0.342406
0.0475812
0.346178
0.0504647
0.350241
0.0531926
0.354598
0.055757
0.359247
0.0581492
0.364185
0.0603597
0.369408
0.062379
0.374909
0.0641975
0.380677
0.0658066
0.386699
0.0671984
0.392958
0.0683667
0.399437
0.0693068
0.406113
0.070016
0.412961
0.0704939
0.419954
0.0707421
0.427065
0.0707647
0.434263
0.0705681
0.441518
0.0701606
0.0695559
0.4488
0.327388
0.00488459
0.328094
0.00944102
0.329124
0.0137207
0.330466
0.0177636
0.33211
0.0215995
0.334051
0.0252504
0.336283
0.0287333
0.338804
0.0320601
0.341614
0.0352386
0.344711
0.038273
0.348095
0.041164
0.351766
0.0439101
0.355723
0.0465076
0.359965
0.0489511
0.364488
0.0512341
0.369288
0.0533492
0.374358
0.0552889
0.379692
0.0570455
0.385277
0.058612
0.391102
0.059982
0.39715
0.0611501
0.403404
0.0621125
0.409844
0.0628669
0.416447
0.0634128
0.42319
0.0637513
0.430046
0.063886
0.436989
0.0638218
0.443991
0.0635659
0.451025
0.0631268
0.0625173
0.458063
0.335328
0.00449086
0.33609
0.00867897
0.3372
0.0126101
0.338644
0.0163198
0.340409
0.0198345
0.342486
0.0231732
0.344869
0.0263509
0.347551
0.029378
0.350528
0.032261
0.353798
0.0350035
0.357356
0.0376061
0.361198
0.0400675
0.365322
0.0423843
0.369721
0.0445523
0.374389
0.0465659
0.379318
0.0484194
0.384501
0.0501068
0.389924
0.0516223
0.395575
0.0529607
0.40144
0.0541177
0.4075
0.05509
0.413737
0.0558755
0.42013
0.0564738
0.426657
0.0568858
0.433294
0.0571142
0.440017
0.0571631
0.4468
0.0570383
0.453619
0.056747
0.460448
0.0562977
0.0557021
0.467264
0.343457
0.0040692
0.344273
0.00786336
0.34546
0.0114231
0.347
0.0147795
0.348879
0.0179555
0.351085
0.0209676
0.353608
0.0238283
0.356439
0.0265466
0.359572
0.029128
0.363
0.0315755
0.366716
0.0338898
0.370714
0.0360694
0.374987
0.0381119
0.379526
0.0400136
0.384321
0.0417702
0.389363