/*--------------------------------*- C++ -*----------------------------------*\
  =========                 |
  \\      /  F ield         | OpenFOAM: The Open Source CFD Toolbox
   \\    /   O peration     | Website:  https://openfoam.org
    \\  /    A nd           | Version:  7
     \\/     M anipulation  |
\*---------------------------------------------------------------------------*/
FoamFile
{
    version     2.0;
    format      ascii;
    class       volVectorField;
    location    "0.8";
    object      U;
}
// * * * * * * * * * * * * * * * * * * * * * * * * * * * * * * * * * * * * * //

dimensions      [0 1 -1 0 0 0 0];

internalField   nonuniform List<vector> 
2790
(
(9.94353 0.0207917 0)
(9.87375 0.0301239 0)
(9.77065 0.0367805 0)
(9.64138 0.0435867 0)
(9.49178 0.050641 0)
(9.32287 0.0578931 0)
(9.13391 0.0654725 0)
(8.92411 0.0735395 0)
(8.69273 0.0822305 0)
(8.4389 0.0916677 0)
(8.16154 0.101972 0)
(7.85939 0.113268 0)
(7.53109 0.125677 0)
(7.17517 0.139318 0)
(6.79022 0.154292 0)
(6.37487 0.170673 0)
(5.92805 0.188488 0)
(5.44905 0.207687 0)
(4.93786 0.228108 0)
(4.39543 0.249434 0)
(3.824 0.271135 0)
(3.22753 0.292416 0)
(2.61207 0.312151 0)
(1.98598 0.328907 0)
(1.35952 0.341393 0)
(0.751194 0.350736 0)
(0.143202 0.316903 0)
(-0.441724 -0.0555423 0)
(-0.430013 -0.260546 0)
(-0.200008 -0.37768 0)
(9.99804 0.0415308 0)
(9.97948 0.0640003 0)
(9.93116 0.0814991 0)
(9.85605 0.0996735 0)
(9.75857 0.118811 0)
(9.63982 0.138758 0)
(9.49925 0.159767 0)
(9.33611 0.182188 0)
(9.14969 0.206326 0)
(8.93914 0.232449 0)
(8.70337 0.260815 0)
(8.44112 0.291676 0)
(8.15099 0.32526 0)
(7.83149 0.361753 0)
(7.48108 0.401268 0)
(7.09829 0.443796 0)
(6.68183 0.489149 0)
(6.23075 0.536876 0)
(5.74473 0.586165 0)
(5.22432 0.635733 0)
(4.67137 0.683698 0)
(4.08945 0.727461 0)
(3.48445 0.763608 0)
(2.86528 0.787831 0)
(2.2452 0.794875 0)
(1.64668 0.777921 0)
(1.08673 0.711702 0)
(0.621424 0.50984 0)
(0.225405 0.173668 0)
(-0.00303207 -0.418244 0)
(9.99514 0.0446057 0)
(9.97362 0.077985 0)
(9.9273 0.107294 0)
(9.85694 0.137472 0)
(9.76564 0.169231 0)
(9.65461 0.202549 0)
(9.52362 0.237773 0)
(9.37212 0.2754 0)
(9.19954 0.315904 0)
(9.0052 0.359726 0)
(8.78822 0.407298 0)
(8.54751 0.459045 0)
(8.28185 0.515366 0)
(7.98988 0.576599 0)
(7.67017 0.642972 0)
(7.32126 0.714532 0)
(6.94175 0.791039 0)
(6.53044 0.871836 0)
(6.08648 0.95568 0)
(5.60971 1.04054 0)
(5.10092 1.12335 0)
(4.56237 1.19979 0)
(3.9984 1.26399 0)
(3.41621 1.30812 0)
(2.82686 1.32161 0)
(2.24717 1.28872 0)
(1.69174 1.17811 0)
(1.17728 0.933908 0)
(0.687783 0.545485 0)
(0.331731 -0.0914743 0)
(9.99357 0.051447 0)
(9.96987 0.0969817 0)
(9.92339 0.139059 0)
(9.85431 0.181291 0)
(9.76483 0.224993 0)
(9.6561 0.27057 0)
(9.52813 0.318549 0)
(9.38058 0.36959 0)
(9.21306 0.424345 0)
(9.02509 0.483433 0)
(8.81605 0.547464 0)
(8.58517 0.617038 0)
(8.33156 0.692728 0)
(8.05423 0.775044 0)
(7.75212 0.864371 0)
(7.42411 0.960884 0)
(7.06907 1.06442 0)
(6.68591 1.1743 0)
(6.27374 1.28912 0)
(5.83195 1.40644 0)
(5.36053 1.52245 0)
(4.86037 1.63162 0)
(4.33373 1.72618 0)
(3.78475 1.79554 0)
(3.21983 1.82537 0)
(2.64783 1.7958 0)
(2.07619 1.67709 0)
(1.51021 1.43157 0)
(0.927964 1.05054 0)
(0.462615 0.501828 0)
(9.99286 0.0597113 0)
(9.96801 0.115802 0)
(9.92145 0.169143 0)
(9.85353 0.222432 0)
(9.7659 0.277336 0)
(9.65947 0.334623 0)
(9.53435 0.394962 0)
(9.39027 0.459102 0)
(9.22693 0.527798 0)
(9.04395 0.60178 0)
(8.84086 0.681761 0)
(8.61706 0.768445 0)
(8.37188 0.862511 0)
(8.10461 0.964569 0)
(7.81446 1.07511 0)
(7.50062 1.1944 0)
(7.16226 1.32237 0)
(6.79852 1.45839 0)
(6.40857 1.60104 0)
(5.99163 1.74775 0)
(5.5471 1.89441 0)
(5.0747 2.03486 0)
(4.57468 2.16032 0)
(4.04814 2.25876 0)
(3.49698 2.31424 0)
(2.92396 2.30622 0)
(2.33081 2.20855 0)
(1.71863 1.99218 0)
(1.05831 1.64692 0)
(0.50226 1.13833 0)
(9.99257 0.0685849 0)
(9.9673 0.134609 0)
(9.92109 0.198698 0)
(9.85462 0.262923 0)
(9.76921 0.328968 0)
(9.66557 0.397819 0)
(9.54379 0.470272 0)
(9.4037 0.547157 0)
(9.24502 0.629324 0)
(9.06745 0.717605 0)
(8.87056 0.812815 0)
(8.65387 0.915751 0)
(8.41681 1.02718 0)
(8.15879 1.1478 0)
(7.87916 1.27818 0)
(7.57727 1.41869 0)
(7.25241 1.56932 0)
(6.90382 1.72955 0)
(6.53065 1.89806 0)
(6.13192 2.07238 0)
(5.70652 2.24843 0)
(5.25314 2.42 0)
(4.77038 2.57815 0)
(4.25674 2.71057 0)
(3.71069 2.80117 0)
(3.13073 2.82986 0)
(2.51462 2.7729 0)
(1.86248 2.60485 0)
(1.14071 2.31435 0)
(0.522692 1.85544 0)
(9.99252 0.0776679 0)
(9.96734 0.153282 0)
(9.92191 0.227611 0)
(9.8572 0.302366 0)
(9.77437 0.379161 0)
(9.67398 0.459135 0)
(9.55611 0.543222 0)
(9.42063 0.632353 0)
(9.26732 0.727467 0)
(9.0959 0.829488 0)
(8.906 0.93932 0)
(8.69718 1.05784 0)
(8.46892 1.18589 0)
(8.22068 1.32425 0)
(7.95186 1.47356 0)
(7.66179 1.63426 0)
(7.34978 1.80647 0)
(7.01497 1.98982 0)
(6.65637 2.18317 0)
(6.27267 2.38432 0)
(5.86218 2.58955 0)
(5.42269 2.7931 0)
(4.95133 2.9865 0)
(4.44458 3.15801 0)
(3.89827 3.29213 0)
(3.3079 3.36948 0)
(2.66845 3.36733 0)
(1.98078 3.26079 0)
(1.20759 3.03551 0)
(0.539377 2.62926 0)
(9.99262 0.0867255 0)
(9.9679 0.171631 0)
(9.92363 0.255717 0)
(9.86099 0.340547 0)
(9.7811 0.427671 0)
(9.68442 0.518331 0)
(9.57099 0.613587 0)
(9.44074 0.714462 0)
(9.29349 0.821979 0)
(9.12899 0.937145 0)
(8.94692 1.06095 0)
(8.74687 1.19434 0)
(8.52836 1.33825 0)
(8.29085 1.49354 0)
(8.03373 1.66094 0)
(7.75629 1.841 0)
(7.45771 2.034 0)
(7.13699 2.23976 0)
(6.79282 2.45745 0)
(6.4235 2.6853 0)
(6.02671 2.9202 0)
(5.59932 3.15717 0)
(5.13718 3.38875 0)
(4.63502 3.60429 0)
(4.08644 3.78937 0)
(3.48451 3.92533 0)
(2.82179 3.9895 0)
(2.10001 3.95523 0)
(1.27784 3.80261 0)
(0.559836 3.45024 0)
(9.99281 0.0956069 0)
(9.96882 0.189485 0)
(9.92605 0.282867 0)
(9.8658 0.377297 0)
(9.7892 0.474291 0)
(9.69664 0.575159 0)
(9.58816 0.681067 0)
(9.46371 0.793126 0)
(9.32317 0.912437 0)
(9.16632 1.04009 0)
(8.9929 1.17714 0)
(8.80252 1.32464 0)
(8.59473 1.4836 0)
(8.36901 1.65497 0)
(8.12472 1.83961 0)
(7.86108 2.03822 0)
(7.57716 2.25127 0)
(7.27173 2.47886 0)
(6.94318 2.72059 0)
(6.58936 2.97525 0)
(6.20732 3.24055 0)
(5.79303 3.5126 0)
(5.34114 3.78534 0)
(4.8447 4.04968 0)
(4.29518 4.29272 0)
(3.68308 4.49673 0)
(2.99789 4.6386 0)
(2.24102 4.68833 0)
(1.36595 4.61789 0)
(0.589867 4.32329 0)
(9.99308 0.104208 0)
(9.97002 0.206699 0)
(9.92902 0.308919 0)
(9.87148 0.412453 0)
(9.79849 0.518816 0)
(9.71044 0.62937 0)
(9.60737 0.745365 0)
(9.48925 0.867996 0)
(9.35601 0.998436 0)
(9.2075 1.13785 0)
(9.04348 1.28737 0)
(8.86362 1.44814 0)
(8.66752 1.62126 0)
(8.45465 1.80779 0)
(8.22437 2.00873 0)
(7.97589 2.22497 0)
(7.70814 2.45722 0)
(7.41975 2.70597 0)
(7.10883 2.97129 0)
(6.77284 3.25272 0)
(6.40826 3.54897 0)
(6.0103 3.85753 0)
(5.57244 4.17407 0)
(5.08612 4.49164 0)
(4.54046 4.79946 0)
(3.92276 5.0814 0)
(3.21795 5.31423 0)
(2.42444 5.46396 0)
(1.48761 5.49194 0)
(0.636603 5.26571 0)
(9.99341 0.112452 0)
(9.97144 0.223155 0)
(9.93246 0.333739 0)
(9.87788 0.445862 0)
(9.80882 0.561059 0)
(9.72563 0.680735 0)
(9.62837 0.806213 0)
(9.51707 0.938758 0)
(9.39169 1.07961 0)
(9.25213 1.23001 0)
(9.09821 1.39116 0)
(8.92966 1.56429 0)
(8.74612 1.75059 0)
(8.54713 1.95124 0)
(8.33208 2.16741 0)
(8.10014 2.40019 0)
(7.85024 2.65061 0)
(7.58091 2.91953 0)
(7.29012 3.20766 0)
(6.97507 3.51535 0)
(6.63189 3.8425 0)
(6.25518 4.18823 0)
(5.83753 4.55037 0)
(5.36887 4.92471 0)
(4.83581 5.30363 0)
(4.22165 5.67404 0)
(3.50453 6.01426 0)
(2.67534 6.28746 0)
(1.66482 6.4427 0)
(0.711633 6.30912 0)
(9.99377 0.12028 0)
(9.97303 0.238753 0)
(9.93627 0.357208 0)
(9.88491 0.477385 0)
(9.82003 0.600851 0)
(9.74202 0.729053 0)
(9.65096 0.863371 0)
(9.54689 1.00513 0)
(9.42985 1.15565 0)
(9.29979 1.3162 0)
(9.1566 1.48808 0)
(9.00007 1.67257 0)
(8.82993 1.87098 0)
(8.64577 2.08461 0)
(8.44706 2.31478 0)
(8.23304 2.56282 0)
(8.00268 2.83006 0)
(7.75455 3.11782 0)
(7.48663 3.42742 0)
(7.1961 3.76016 0)
(6.87901 4.1172 0)
(6.52975 4.4995 0)
(6.14046 4.90747 0)
(5.70002 5.34036 0)
(5.19287 5.79513 0)
(4.59788 6.26414 0)
(3.88419 6.73118 0)
(3.02861 7.16169 0)
(1.93394 7.49512 0)
(0.837214 7.5087 0)
(9.99417 0.127645 0)
(9.97476 0.253412 0)
(9.94039 0.379222 0)
(9.89245 0.506897 0)
(9.83201 0.638044 0)
(9.75946 0.774144 0)
(9.6749 0.916627 0)
(9.57845 1.06687 0)
(9.47016 1.22624 0)
(9.35008 1.39607 0)
(9.21816 1.57771 0)
(9.07428 1.77252 0)
(8.91825 1.98188 0)
(8.74979 2.20722 0)
(8.56845 2.45001 0)
(8.37363 2.71179 0)
(8.16442 2.9942 0)
(7.93957 3.29901 0)
(7.69726 3.62815 0)
(7.43494 3.98383 0)
(7.14895 4.36852 0)
(6.83403 4.78509 0)
(6.48261 5.23676 0)
(6.0836 5.72692 0)
(5.62052 6.2586 0)
(5.06898 6.83298 0)
(4.38875 7.44602 0)
(3.53602 8.07806 0)
(2.36165 8.67744 0)
(1.06179 8.96858 0)
(9.9946 0.134511 0)
(9.9766 0.267064 0)
(9.94477 0.399692 0)
(9.90042 0.534293 0)
(9.84462 0.672511 0)
(9.77776 0.815862 0)
(9.69999 0.965813 0)
(9.61144 1.12379 0)
(9.51227 1.29118 0)
(9.40257 1.46938 0)
(9.28237 1.65977 0)
(9.15166 1.86378 0)
(9.01037 2.08286 0)
(8.85832 2.31853 0)
(8.69526 2.5724 0)
(8.52074 2.8462 0)
(8.33411 3.14184 0)
(8.13441 3.46145 0)
(7.92024 3.80755 0)
(7.68958 4.18311 0)
(7.43949 4.59181 0)
(7.16575 5.03828 0)
(6.86212 5.52846 0)
(6.51921 6.07004 0)
(6.12234 6.67305 0)
(5.64814 7.35043 0)
(5.05275 8.11871 0)
(4.27401 8.99556 0)
(3.08135 9.99717 0)
(1.50371 10.9162 0)
(9.99504 0.140849 0)
(9.97853 0.279654 0)
(9.94935 0.418541 0)
(9.90875 0.55947 0)
(9.85775 0.704121 0)
(9.79677 0.854036 0)
(9.726 1.01071 0)
(9.64562 1.1756 0)
(9.55585 1.35014 0)
(9.45683 1.53573 0)
(9.34872 1.7338 0)
(9.2316 1.94582 0)
(9.10552 2.17329 0)
(8.97048 2.4178 0)
(8.82639 2.68106 0)
(8.67306 2.96493 0)
(8.51016 3.27154 0)
(8.33714 3.60331 0)
(8.15316 3.96314 0)
(7.957 4.35463 0)
(7.74686 4.78232 0)
(7.52016 5.25218 0)
(7.27312 5.77224 0)
(7.00008 6.35369 0)
(6.69217 7.01264 0)
(6.33516 7.77352 0)
(5.89923 8.67657 0)
(5.34104 9.79609 0)
(4.39015 11.3217 0)
(2.49894 13.9346 0)
(-0.480564 0.529322 0)
(-1.20339 0.568855 0)
(-2.11444 0.539265 0)
(-3.02476 0.506862 0)
(-3.93746 0.473705 0)
(-4.84132 0.440279 0)
(-5.72771 0.406556 0)
(-6.58942 0.372555 0)
(-7.42019 0.338335 0)
(-8.21435 0.303947 0)
(-8.96652 0.269405 0)
(-9.67134 0.234678 0)
(-10.3232 0.199696 0)
(-10.9161 0.164358 0)
(-11.4435 0.128529 0)
(-11.8982 0.092036 0)
(-12.2721 0.0546609 0)
(-12.5569 0.0162016 0)
(-12.7428 -0.023712 0)
(-12.8186 -0.0664721 0)
(-12.7737 -0.116176 0)
(-12.5886 -0.171686 0)
(-12.2441 -0.234336 0)
(-11.7215 -0.306097 0)
(-11.001 -0.390053 0)
(-10.0544 -0.490627 0)
(-8.81641 -0.615911 0)
(-7.14392 -0.782163 0)
(-4.86097 -0.997802 0)
(-2.07845 -1.17256 0)
(-0.638776 1.21921 0)
(-1.46073 1.29575 0)
(-2.46066 1.2893 0)
(-3.43895 1.26547 0)
(-4.40947 1.22816 0)
(-5.36246 1.18126 0)
(-6.29071 1.12721 0)
(-7.18809 1.06773 0)
(-8.04924 1.00407 0)
(-8.8693 0.936999 0)
(-9.64358 0.866942 0)
(-10.3673 0.793999 0)
(-11.0353 0.71804 0)
(-11.6421 0.638777 0)
(-12.1813 0.555823 0)
(-12.6462 0.468736 0)
(-13.029 0.377102 0)
(-13.3216 0.28058 0)
(-13.5153 0.178836 0)
(-13.6013 0.070591 0)
(-13.5671 -0.0474406 0)
(-13.4067 -0.174026 0)
(-13.1078 -0.309284 0)
(-12.6567 -0.455066 0)
(-12.0416 -0.615 0)
(-11.2485 -0.793846 0)
(-10.2419 -1.00061 0)
(-8.94099 -1.25557 0)
(-7.31199 -1.57051 0)
(-5.87709 -1.85326 0)
(-0.667607 2.17469 0)
(-1.51266 2.24097 0)
(-2.53406 2.21393 0)
(-3.51225 2.16188 0)
(-4.4737 2.0879 0)
(-5.41057 1.99777 0)
(-6.31833 1.89555 0)
(-7.19292 1.78424 0)
(-8.03072 1.66592 0)
(-8.8283 1.54192 0)
(-9.58213 1.4129 0)
(-10.2884 1.27906 0)
(-10.9427 1.14024 0)
(-11.5403 0.996094 0)
(-12.0753 0.846205 0)
(-12.5413 0.690167 0)
(-12.9313 0.527713 0)
(-13.2373 0.358799 0)
(-13.4513 0.183615 0)
(-13.5646 0.0024027 0)
(-13.5679 -0.184471 0)
(-13.4568 -0.382801 0)
(-13.2214 -0.593505 0)
(-12.8528 -0.817494 0)
(-12.3447 -1.05731 0)
(-11.6916 -1.31533 0)
(-10.8744 -1.59468 0)
(-9.84147 -1.90592 0)
(-8.59629 -2.2651 0)
(-7.60367 -2.63223 0)
(-0.641506 3.16485 0)
(-1.45966 3.19757 0)
(-2.45353 3.13045 0)
(-3.38934 3.03762 0)
(-4.3058 2.9208 0)
(-5.19561 2.78664 0)
(-6.0568 2.63982 0)
(-6.88719 2.48387 0)
(-7.68463 2.32115 0)
(-8.4467 2.15303 0)
(-9.17055 1.98007 0)
(-9.85275 1.80215 0)
(-10.4891 1.61875 0)
(-11.0749 1.42901 0)
(-11.6042 1.23191 0)
(-12.0707 1.02638 0)
(-12.4672 0.811368 0)
(-12.7859 0.586019 0)
(-13.0189 0.349765 0)
(-13.1586 0.10238 0)
(-13.1959 -0.156574 0)
(-13.1274 -0.426559 0)
(-12.9491 -0.709236 0)
(-12.6548 -1.00561 0)
(-12.2421 -1.31804 0)
(-11.7102 -1.64776 0)
(-11.0489 -1.99346 0)
(-10.2247 -2.35728 0)
(-9.25664 -2.7547 0)
(-8.52428 -3.15777 0)
(-0.588685 4.10564 0)
(-1.34633 4.10167 0)
(-2.27649 3.99227 0)
(-3.14126 3.85774 0)
(-3.9902 3.69905 0)
(-4.8148 3.52333 0)
(-5.61484 3.33518 0)
(-6.38922 3.13796 0)
(-7.13647 2.9337 0)
(-7.85458 2.72334 0)
(-8.54079 2.50689 0)
(-9.19162 2.28376 0)
(-9.80281 2.05294 0)
(-10.3694 1.81325 0)
(-10.8856 1.56353 0)
(-11.3451 1.30277 0)
(-11.7409 1.03025 0)
(-12.0656 0.745684 0)
(-12.3118 0.449472 0)
(-12.4723 0.142865 0)
(-12.5401 -0.172675 0)
(-12.51 -0.498988 0)
(-12.384 -0.838063 0)
(-12.1579 -1.18998 0)
(-11.8327 -1.55638 0)
(-11.4102 -1.9374 0)
(-10.8853 -2.32866 0)
(-10.2363 -2.72657 0)
(-9.48867 -3.14118 0)
(-8.93944 -3.53843 0)
(-0.520427 4.95834 0)
(-1.19389 4.92444 0)
(-2.03487 4.77797 0)
(-2.80859 4.60633 0)
(-3.57391 4.41082 0)
(-4.31988 4.19929 0)
(-5.04754 3.97612 0)
(-5.75613 3.74434 0)
(-6.44441 3.50557 0)
(-7.11037 3.26023 0)
(-7.75117 3.00792 0)
(-8.36323 2.74766 0)
(-8.94219 2.47813 0)
(-9.48305 2.19785 0)
(-9.98015 1.9054 0)
(-10.4273 1.59946 0)
(-10.8175 1.27899 0)
(-11.1437 0.943376 0)
(-11.3985 0.592897 0)
(-11.5751 0.229354 0)
(-11.668 -0.144359 0)
(-11.6707 -0.526945 0)
(-11.5909 -0.919697 0)
(-11.4269 -1.32222 0)
(-11.1819 -1.73579 0)
(-10.8597 -2.15998 0)
(-10.4573 -2.58869 0)
(-9.96086 -3.0139 0)
(-9.3956 -3.43663 0)
(-8.98646 -3.81384 0)
(-0.442618 5.70099 0)
(-1.01446 5.64678 0)
(-1.74809 5.47115 0)
(-2.41621 5.26978 0)
(-3.08562 5.04501 0)
(-3.7423 4.80537 0)
(-4.38838 4.55484 0)
(-5.02305 4.29596 0)
(-5.64499 4.02972 0)
(-6.25197 3.75598 0)
(-6.84094 3.47376 0)
(-7.40808 3.18165 0)
(-7.94889 2.87795 0)
(-8.45825 2.56093 0)
(-8.93053 2.22895 0)
(-9.35956 1.88063 0)
(-9.73873 1.51502 0)
(-10.061 1.13176 0)
(-10.3191 0.731593 0)
(-10.5067 0.317143 0)
(-10.6196 -0.107215 0)
(-10.6492 -0.537653 0)
(-10.6097 -0.974971 0)
(-10.5013 -1.41816 0)
(-10.33 -1.86839 0)
(-10.1005 -2.32558 0)
(-9.81084 -2.78334 0)
(-9.45079 -3.23005 0)
(-9.04142 -3.65588 0)
(-8.74643 -4.00982 0)
(-0.358903 6.31839 0)
(-0.815569 6.25451 0)
(-1.4284 6.05883 0)
(-1.97976 5.83694 0)
(-2.54364 5.59218 0)
(-3.10241 5.33356 0)
(-3.65946 5.06439 0)
(-4.21358 4.78663 0)
(-4.76316 4.5006 0)
(-5.30563 4.20552 0)
(-5.83758 3.89998 0)
(-6.35488 3.58217 0)
(-6.85286 3.2502 0)
(-7.32632 2.90219 0)
(-7.76959 2.5364 0)
(-8.17659 2.15144 0)
(-8.54082 1.74641 0)
(-8.85528 1.32107 0)
(-9.11253 0.876389 0)
(-9.30611 0.41551 0)
(-9.43289 -0.0556947 0)
(-9.48199 -0.529155 0)
(-9.47488 -1.00426 0)
(-9.41385 -1.47961 0)
(-9.3081 -1.95695 0)
(-9.16365 -2.43789 0)
(-8.97841 -2.91745 0)
(-8.74283 -3.38168 0)
(-8.47093 -3.8098 0)
(-8.27466 -4.14254 0)
(-0.271591 6.79907 0)
(-0.601754 6.7369 0)
(-1.08349 6.53109 0)
(-1.50919 6.29912 0)
(-1.95991 6.04492 0)
(-2.41393 5.77759 0)
(-2.87609 5.49942 0)
(-3.34448 5.21172 0)
(-3.81707 4.91412 0)
(-4.2908 4.60529 0)
(-4.76183 4.28338 0)
(-5.2257 3.94636 0)
(-5.67759 3.59225 0)
(-6.11227 3.21903 0)
(-6.52406 2.82493 0)
(-6.90687 2.40849 0)
(-7.25415 1.96888 0)
(-7.55861 1.50604 0)
(-7.81223 1.02126 0)
(-8.00777 0.518292 0)
(-8.14201 0.00468602 0)
(-8.20244 -0.507591 0)
(-8.2183 -1.01338 0)
(-8.19453 -1.51206 0)
(-8.14404 -2.00643 0)
(-8.07502 -2.50132 0)
(-7.98542 -2.99512 0)
(-7.86441 -3.47351 0)
(-7.71723 -3.90592 0)
(-7.61176 -4.22233 0)
(-0.182267 7.13406 0)
(-0.375647 7.08551 0)
(-0.718163 6.88008 0)
(-1.01071 6.64956 0)
(-1.34234 6.39754 0)
(-1.68638 6.13272 0)
(-2.04942 5.85593 0)
(-2.42836 5.5678 0)
(-2.82066 5.26728 0)
(-3.22262 4.95257 0)
(-3.62989 4.62154 0)
(-4.03764 4.27201 0)
(-4.44097 3.90213 0)
(-4.83481 3.50982 0)
(-5.2136 3.09319 0)
(-5.57128 2.65071 0)
(-5.9011 2.18147 0)
(-6.19523 1.6855 0)
(-6.44415 1.16431 0)
(-6.63814 0.622254 0)
(-6.77117 0.0694217 0)
(-6.84208 -0.477799 0)
(-6.87094 -1.00844 0)
(-6.87356 -1.52205 0)
(-6.86611 -2.02315 0)
(-6.86011 -2.52144 0)
(-6.85474 -3.02077 0)
(-6.83779 -3.50914 0)
(-6.80542 -3.94899 0)
(-6.78884 -4.25579 0)
(-0.0925002 7.3165 0)
(-0.138873 7.29355 0)
(-0.335282 7.09953 0)
(-0.487887 6.88286 0)
(-0.696101 6.64559 0)
(-0.926534 6.39566 0)
(-1.18792 6.13126 0)
(-1.47525 5.85263 0)
(-1.7853 5.55807 0)
(-2.11355 5.24552 0)
(-2.45505 4.91266 0)
(-2.80438 4.55732 0)
(-3.15664 4.17828 0)
(-3.50725 3.77334 0)
(-3.85104 3.34047 0)
(-4.18225 2.87787 0)
(-4.49424 2.38423 0)
(-4.77872 1.85931 0)
(-5.02443 1.30465 0)
(-5.21785 0.725026 0)
(-5.34873 0.134204 0)
(-5.4237 -0.444339 0)
(-5.45944 -0.995638 0)
(-5.47991 -1.51677 0)
(-5.50374 -2.01485 0)
(-5.54644 -2.50575 0)
(-5.61014 -3.00055 0)
(-5.6835 -3.49255 0)
(-5.75504 -3.94185 0)
(-5.83037 -4.24708 0)
(-0.00340997 7.34098 0)
(0.105409 7.35344 0)
(0.063792 7.18463 0)
(0.0565657 6.99648 0)
(-0.0238808 6.78948 0)
(-0.138929 6.56615 0)
(-0.298422 6.32522 0)
(-0.493751 6.06567 0)
(-0.721087 5.78524 0)
(-0.974851 5.48196 0)
(-1.24946 5.15385 0)
(-1.53833 4.79985 0)
(-1.83645 4.41853 0)
(-2.14027 4.00757 0)
(-2.44511 3.565 0)
(-2.74588 3.08873 0)
(-3.0368 2.57661 0)
(-3.31006 2.02755 0)
(-3.55348 1.44334 0)
(-3.74866 0.828234 0)
(-3.87927 0.199723 0)
(-3.95626 -0.411635 0)
(-3.99965 -0.97979 0)
(-4.03641 -1.50222 0)
(-4.08459 -1.98932 0)
(-4.16305 -2.46338 0)
(-4.27828 -2.94341 0)
(-4.4235 -3.43004 0)
(-4.5825 -3.88699 0)
(-4.75576 -4.19885 0)
(0.0891165 7.20251 0)
(0.357657 7.25573 0)
(0.481452 7.12772 0)
(0.618268 6.98341 0)
(0.667105 6.82333 0)
(0.666454 6.64281 0)
(0.608806 6.43853 0)
(0.505372 6.20911 0)
(0.361791 5.95279 0)
(0.184624 5.66817 0)
(-0.0202523 5.35314 0)
(-0.249767 5.00174 0)
(-0.49238 4.62161 0)
(-0.745735 4.20934 0)
(-1.00602 3.76212 0)
(-1.26907 3.2774 0)
(-1.53065 2.75181 0)
(-1.78464 2.18396 0)
(-2.02041 1.57488 0)
(-2.21444 0.923529 0)
(-2.34908 0.258045 0)
(-2.43288 -0.381698 0)
(-2.49374 -0.961047 0)
(-2.55527 -1.48013 0)
(-2.62963 -1.95152 0)
(-2.73692 -2.40282 0)
(-2.88766 -2.8603 0)
(-3.0833 -3.33165 0)
(-3.30413 -3.78869 0)
(-3.58014 -4.11381 0)
(0.19087 6.89303 0)
(0.624568 6.99487 0)
(0.92311 6.92546 0)
(1.20241 6.84516 0)
(1.37747 6.7493 0)
(1.48405 6.62512 0)
(1.52258 6.46803 0)
(1.50609 6.27695 0)
(1.44282 6.05136 0)
(1.34053 5.79098 0)
(1.20628 5.49539 0)
(1.04392 5.16088 0)
(0.861191 4.79008 0)
(0.663261 4.38339 0)
(0.45427 3.93922 0)
(0.237934 3.45574 0)
(0.0185711 2.93029 0)
(-0.201336 2.35333 0)
(-0.421932 1.72986 0)
(-0.598717 1.06305 0)
(-0.731866 0.34923 0)
(-0.846314 -0.334755 0)
(-0.938487 -0.925744 0)
(-1.03997 -1.44217 0)
(-1.15057 -1.89894 0)
(-1.28824 -2.32733 0)
(-1.46448 -2.75959 0)
(-1.69087 -3.20896 0)
(-1.94111 -3.65474 0)
(-2.31395 -3.99668 0)
(0.301893 6.40872 0)
(0.915031 6.57676 0)
(1.39755 6.58593 0)
(1.81788 6.5928 0)
(2.11001 6.5785 0)
(2.31218 6.52309 0)
(2.43716 6.42237 0)
(2.50019 6.27665 0)
(2.51169 6.08726 0)
(2.48038 5.85543 0)
(2.41388 5.58202 0)
(2.31703 5.26547 0)
(2.19556 4.90715 0)
(2.05515 4.50831 0)
(1.90066 4.06856 0)
(1.73627 3.58677 0)
(1.56655 3.06123 0)
(1.39407 2.48731 0)
(1.21797 1.86128 0)
(1.06306 1.19174 0)
(0.953913 0.481823 0)
(0.802205 -0.219113 0)
(0.661165 -0.838364 0)
(0.506164 -1.36484 0)
(0.346106 -1.81794 0)
(0.171307 -2.23144 0)
(-0.0277427 -2.64178 0)
(-0.271343 -3.07116 0)
(-0.526045 -3.4973 0)
(-0.961849 -3.8526 0)
(9.99551 0.146739 0)
(9.98057 0.291355 0)
(9.95417 0.436048 0)
(9.91751 0.58283 0)
(9.87157 0.73341 0)
(9.81678 0.889349 0)
(9.75337 1.05217 0)
(9.6816 1.22333 0)
(9.60172 1.40429 0)
(9.51399 1.59647 0)
(9.41865 1.80132 0)
(9.31589 2.02032 0)
(9.20593 2.25499 0)
(9.08894 2.50699 0)
(8.96505 2.77806 0)
(8.83436 3.07015 0)
(8.69692 3.3855 0)
(8.55268 3.72669 0)
(8.40152 4.09685 0)
(8.24319 4.49987 0)
(8.07733 4.94074 0)
(7.90352 5.42602 0)
(7.72131 5.96468 0)
(7.53052 6.5693 0)
(7.33183 7.25836 0)
(7.12947 8.06048 0)
(6.93539 9.02313 0)
(6.83406 10.2288 0)
(7.1976 11.8033 0)
(7.31372 14.2677 0)
(9.99601 0.152192 0)
(9.98271 0.302175 0)
(9.95925 0.452198 0)
(9.92672 0.604315 0)
(9.88605 0.760256 0)
(9.83769 0.921594 0)
(9.78192 1.08986 0)
(9.71905 1.26653 0)
(9.64941 1.45305 0)
(9.57333 1.65087 0)
(9.49116 1.86141 0)
(9.40325 2.08616 0)
(9.30993 2.32665 0)
(9.21159 2.58452 0)
(9.1086 2.86152 0)
(9.00138 3.15962 0)
(8.89037 3.48105 0)
(8.77608 3.8284 0)
(8.65913 4.20478 0)
(8.5403 4.61405 0)
(8.42074 5.06104 0)
(8.30218 5.55202 0)
(8.18751 6.09524 0)
(8.08182 6.7018 0)
(7.99455 7.38672 0)
(7.94493 8.17019 0)
(7.96708 9.07756 0)
(8.1097 10.1352 0)
(8.61997 11.2819 0)
(8.9373 12.2385 0)
(9.99652 0.157116 0)
(9.98495 0.311939 0)
(9.96454 0.466756 0)
(9.9363 0.623644 0)
(9.9011 0.784348 0)
(9.8594 0.950442 0)
(9.81151 1.12345 0)
(9.75781 1.30485 0)
(9.69869 1.49607 0)
(9.63458 1.69854 0)
(9.56592 1.91366 0)
(9.49318 2.1429 0)
(9.41687 2.38776 0)
(9.33757 2.64981 0)
(9.25591 2.93078 0)
(9.17261 3.23254 0)
(9.08852 3.55723 0)
(9.00466 3.90727 0)
(8.92235 4.28555 0)
(8.84332 4.69552 0)
(8.76993 5.14137 0)
(8.70563 5.62823 0)
(8.65555 6.16239 0)
(8.62759 6.75129 0)
(8.63386 7.40317 0)
(8.69295 8.12518 0)
(8.83054 8.91757 0)
(9.04899 9.76817 0)
(9.46475 10.6251 0)
(9.92384 11.2896 0)
(9.99705 0.161453 0)
(9.98725 0.320532 0)
(9.96999 0.47954 0)
(9.94618 0.640569 0)
(9.9166 0.805362 0)
(9.88172 0.975485 0)
(9.84192 1.15245 0)
(9.7976 1.33771 0)
(9.74922 1.53268 0)
(9.69729 1.73873 0)
(9.64236 1.95724 0)
(9.58501 2.18961 0)
(9.52592 2.43727 0)
(9.46584 2.70172 0)
(9.40563 2.98456 0)
(9.34631 3.28753 0)
(9.28908 3.61253 0)
(9.23543 3.96173 0)
(9.18722 4.33756 0)
(9.14686 4.74284 0)
(9.11757 5.18075 0)
(9.10371 5.65492 0)
(9.11125 6.1692 0)
(9.14838 6.72731 0)
(9.22594 7.33189 0)
(9.35746 7.98275 0)
(9.56127 8.67361 0)
(9.83957 9.39206 0)
(10.2546 10.1312 0)
(10.8331 10.7894 0)
(9.9976 0.165153 0)
(9.98961 0.327853 0)
(9.97558 0.490405 0)
(9.95627 0.654895 0)
(9.93242 0.823056 0)
(9.9045 0.996437 0)
(9.8729 1.17652 0)
(9.83809 1.36473 0)
(9.80059 1.56242 0)
(9.76096 1.77094 0)
(9.71985 1.99158 0)
(9.67795 2.22566 0)
(9.63608 2.47451 0)
(9.59515 2.73951 0)
(9.55622 3.02209 0)
(9.52054 3.32378 0)
(9.48961 3.6462 0)
(9.46524 3.9911 0)
(9.44969 4.3604 0)
(9.44576 4.75612 0)
(9.45707 5.18038 0)
(9.48824 5.63527 0)
(9.54515 6.12257 0)
(9.63523 6.64332 0)
(9.7676 7.19711 0)
(9.9528 7.78131 0)
(10.2053 8.3899 0)
(10.5324 9.01189 0)
(10.9575 9.64125 0)
(11.5395 10.2108 0)
(9.99815 0.168167 0)
(9.99201 0.333807 0)
(9.98124 0.499207 0)
(9.96651 0.666436 0)
(9.94845 0.837204 0)
(9.92755 1.01303 0)
(9.90422 1.19535 0)
(9.87897 1.38555 0)
(9.85237 1.58492 0)
(9.82504 1.79474 0)
(9.79769 2.01622 0)
(9.77114 2.25056 0)
(9.74629 2.49899 0)
(9.72418 2.7627 0)
(9.70604 3.04292 0)
(9.69329 3.34093 0)
(9.68762 3.658 0)
(9.69103 3.99546 0)
(9.70599 4.35461 0)
(9.73546 4.73672 0)
(9.78308 5.14289 0)
(9.8533 5.57393 0)
(9.95149 6.03005 0)
(10.084 6.51055 0)
(10.2584 7.01332 0)
(10.4826 7.53433 0)
(10.7666 8.06688 0)
(11.1162 8.59909 0)
(11.5342 9.1195 0)
(12.0815 9.59061 0)
(9.99871 0.17045 0)
(9.99442 0.338306 0)
(9.98694 0.505819 0)
(9.9768 0.675024 0)
(9.96456 0.847596 0)
(9.95068 1.02501 0)
(9.93562 1.20866 0)
(9.91989 1.39986 0)
(9.90411 1.59984 0)
(9.88895 1.80977 0)
(9.87519 2.03079 0)
(9.86369 2.26396 0)
(9.85545 2.51035 0)
(9.8516 2.77098 0)
(9.85347 3.04685 0)
(9.86258 3.33893 0)
(9.88071 3.64816 0)
(9.90995 3.9754 0)
(9.95278 4.3214 0)
(10.0121 4.6867 0)
(10.0914 5.07158 0)
(10.1946 5.4758 0)
(10.3264 5.89849 0)
(10.492 6.33778 0)
(10.697 6.79051 0)
(10.947 7.25176 0)
(11.2478 7.71457 0)
(11.6029 8.16853 0)
(12.0086 8.6031 0)
(12.5233 9.00007 0)
(9.99927 0.171964 0)
(9.99684 0.341273 0)
(9.99264 0.510125 0)
(9.98708 0.680509 0)
(9.98062 0.854052 0)
(9.97371 1.03217 0)
(9.96683 1.21621 0)
(9.9605 1.4074 0)
(9.95536 1.6069 0)
(9.95213 1.81577 0)
(9.9516 2.03503 0)
(9.9547 2.26561 0)
(9.96247 2.50842 0)
(9.97608 2.76427 0)
(9.99692 3.03392 0)
(10.0265 3.31806 0)
(10.0667 3.61726 0)
(10.1195 3.93197 0)
(10.1872 4.26242 0)
(10.2727 4.60857 0)
(10.3789 4.97001 0)
(10.5093 5.34578 0)
(10.6677 5.73426 0)
(10.8579 6.13291 0)
(11.0841 6.53809 0)
(11.3498 6.94484 0)
(11.6582 7.34686 0)
(12.0112 7.73609 0)
(12.4034 8.1042 0)
(12.8881 8.44123 0)
(9.99982 0.172674 0)
(9.99922 0.342639 0)
(9.99827 0.512027 0)
(9.99724 0.682764 0)
(9.99649 0.85642 0)
(9.99644 1.03435 0)
(9.99758 1.21782 0)
(10.0004 1.40799 0)
(10.0057 1.60591 0)
(10.014 1.81255 0)
(10.0262 2.02879 0)
(10.0433 2.25543 0)
(10.0663 2.49319 0)
(10.0964 2.74269 0)
(10.1349 3.00445 0)
(10.1834 3.27887 0)
(10.2436 3.56622 0)
(10.3174 3.86655 0)
(10.4071 4.17967 0)
(10.5149 4.50508 0)
(10.6435 4.84187 0)
(10.7956 5.18861 0)
(10.9743 5.54324 0)
(11.1823 5.90297 0)
(11.4224 6.26413 0)
(11.6966 6.62216 0)
(12.0066 6.97168 0)
(12.353 7.30644 0)
(12.73 7.61982 0)
(13.1855 7.90557 0)
(10.0004 0.172551 0)
(10.0016 0.34235 0)
(10.0038 0.511445 0)
(10.0072 0.681689 0)
(10.012 0.854583 0)
(10.0187 1.03141 0)
(10.0276 1.21336 0)
(10.0394 1.40149 0)
(10.0546 1.59677 0)
(10.074 1.80004 0)
(10.0984 2.01206 0)
(10.1287 2.23348 0)
(10.1659 2.46484 0)
(10.2113 2.70657 0)
(10.2661 2.95897 0)
(10.3318 3.22219 0)
(10.4099 3.49621 0)
(10.5022 3.78076 0)
(10.6105 4.07534 0)
(10.737 4.3791 0)
(10.8837 4.69079 0)
(11.0528 5.00873 0)
(11.2465 5.33067 0)
(11.4666 5.65382 0)
(11.7149 5.97474 0)
(11.9924 6.28941 0)
(12.2996 6.5933 0)
(12.6363 6.88151 0)
(12.997 7.14889 0)
(13.4248 7.39136 0)
(10.0009 0.171574 0)
(10.0039 0.340362 0)
(10.0092 0.508318 0)
(10.0169 0.677209 0)
(10.0271 0.848459 0)
(10.0402 1.02327 0)
(10.0567 1.20275 0)
(10.0769 1.38785 0)
(10.1017 1.57945 0)
(10.1316 1.77827 0)
(10.1674 1.98493 0)
(10.2101 2.19994 0)
(10.2606 2.42369 0)
(10.32 2.65641 0)
(10.3895 2.89821 0)
(10.4704 3.14903 0)
(10.5642 3.40859 0)
(10.6723 3.67641 0)
(10.7964 3.95172 0)
(10.9381 4.23346 0)
(11.0991 4.5202 0)
(11.2809 4.81014 0)
(11.485 5.10103 0)
(11.7127 5.39023 0)
(11.9648 5.67463 0)
(12.2417 5.95079 0)
(12.543 6.21497 0)
(12.8683 6.46335 0)
(13.2123 6.69201 0)
(13.6143 6.89824 0)
(10.0014 0.169728 0)
(10.0061 0.336647 0)
(10.0144 0.502607 0)
(10.0262 0.66928 0)
(10.0417 0.838003 0)
(10.061 1.0099 0)
(10.0845 1.18597 0)
(10.1129 1.36709 0)
(10.1466 1.55401 0)
(10.1863 1.74735 0)
(10.2328 1.94761 0)
(10.2869 2.15515 0)
(10.3494 2.37021 0)
(10.4215 2.59287 0)
(10.5041 2.82306 0)
(10.5984 3.06055 0)
(10.7057 3.30487 0)
(10.8272 3.55536 0)
(10.9641 3.81111 0)
(11.1179 4.07091 0)
(11.2896 4.33328 0)
(11.4805 4.5964 0)
(11.6914 4.85816 0)
(11.9229 5.11611 0)
(12.1754 5.36757 0)
(12.4488 5.60963 0)
(12.7423 5.83926 0)
(13.055 6.05349 0)
(13.3824 6.24937 0)
(13.7604 6.42503 0)
(10.0019 0.167004 0)
(10.0082 0.331191 0)
(10.0194 0.494295 0)
(10.0352 0.657884 0)
(10.0555 0.823207 0)
(10.0807 0.991293 0)
(10.111 1.16306 0)
(10.1469 1.33927 0)
(10.189 1.52058 0)
(10.2379 1.7075 0)
(10.2941 1.9004 0)
(10.3585 2.09953 0)
(10.4319 2.30498 0)
(10.5152 2.51672 0)
(10.6092 2.73452 0)
(10.7151 2.958 0)
(10.8337 3.18659 0)
(10.9661 3.41949 0)
(11.1134 3.65572 0)
(11.2763 3.89401 0)
(11.4559 4.1329 0)
(11.6526 4.37064 0)
(11.8672 4.6053 0)
(12.0997 4.83471 0)
(12.3501 5.05657 0)
(12.6179 5.26846 0)
(12.9022 5.46798 0)
(13.2019 5.65281 0)
(13.513 5.82074 0)
(13.8684 5.97046 0)
(10.0024 0.163401 0)
(10.0102 0.323992 0)
(10.0241 0.483384 0)
(10.0436 0.643036 0)
(10.0686 0.804102 0)
(10.0993 0.96752 0)
(10.1359 1.13411 0)
(10.1788 1.30455 0)
(10.2286 1.47938 0)
(10.2858 1.65901 0)
(10.3509 1.84371 0)
(10.4246 2.03361 0)
(10.5076 2.2287 0)
(10.6007 2.42882 0)
(10.7046 2.63365 0)
(10.8201 2.8427 0)
(10.9481 3.05532 0)
(11.0892 3.27066 0)
(11.2443 3.48767 0)
(11.414 3.70514 0)
(11.5987 3.92164 0)
(11.7988 4.13558 0)
(12.0146 4.34521 0)
(12.2458 4.54866 0)
(12.4921 4.74398 0)
(12.7529 4.92921 0)
(13.0271 5.10242 0)
(13.3136 5.26184 0)
(13.6088 5.4058 0)
(13.9433 5.53341 0)
(10.0028 0.158926 0)
(10.0121 0.315063 0)
(10.0285 0.469898 0)
(10.0515 0.624775 0)
(10.0809 0.780752 0)
(10.1166 0.938672 0)
(10.159 1.09926 0)
(10.2084 1.26311 0)
(10.2653 1.43067 0)
(10.3299 1.60224 0)
(10.4029 1.778 0)
(10.4848 1.95799 0)
(10.5762 2.1421 0)
(10.6777 2.3301 0)
(10.7899 2.52157 0)
(10.9134 2.71598 0)
(11.0488 2.91262 0)
(11.1967 3.11061 0)
(11.3575 3.30895 0)
(11.5317 3.50645 0)
(11.7194 3.70179 0)
(11.9208 3.89355 0)
(12.1357 4.08018 0)
(12.3638 4.2601 0)
(12.6047 4.43167 0)
(12.8574 4.59331 0)
(13.1211 4.74351 0)
(13.3944 4.8809 0)
(13.6745 5.00423 0)
(13.9893 5.1129 0)
(10.0032 0.15359 0)
(10.0138 0.304431 0)
(10.0326 0.453881 0)
(10.0589 0.603168 0)
(10.0922 0.753252 0)
(10.1326 0.904887 0)
(10.1803 1.05871 0)
(10.2356 1.21522 0)
(10.2987 1.37477 0)
(10.3701 1.5376 0)
(10.4501 1.7038 0)
(10.5391 1.87332 0)
(10.6377 2.04599 0)
(10.7462 2.2215 0)
(10.8652 2.39941 0)
(10.9951 2.57913 0)
(11.1363 2.75995 0)
(11.2891 2.94101 0)
(11.4538 3.12134 0)
(11.6306 3.29985 0)
(11.8195 3.47533 0)
(12.0203 3.64653 0)
(12.2329 3.81212 0)
(12.4567 3.97075 0)
(12.691 4.12109 0)
(12.9351 4.26187 0)
(13.188 4.3919 0)
(13.4484 4.51014 0)
(13.7138 4.61566 0)
(14.0103 4.70806 0)
(10.0036 0.147411 0)
(10.0154 0.292132 0)
(10.0364 0.435392 0)
(10.0656 0.578303 0)
(10.1026 0.721729 0)
(10.1473 0.866334 0)
(10.1997 1.01267 0)
(10.2603 1.16115 0)
(10.329 1.31207 0)
(10.4062 1.46556 0)
(10.4923 1.62166 0)
(10.5874 1.78027 0)
(10.692 1.94116 0)
(10.8063 2.10398 0)
(10.9307 2.26826 0)
(11.0656 2.43341 0)
(11.211 2.59872 0)
(11.3671 2.76337 0)
(11.5342 2.92647 0)
(11.712 3.08702 0)
(11.9006 3.24396 0)
(12.0996 3.39618 0)
(12.3086 3.54256 0)
(12.5271 3.68198 0)
(12.7543 3.81336 0)
(12.9894 3.93567 0)
(13.2314 4.048 0)
(13.4793 4.14956 0)
(13.7308 4.23966 0)
(14.0101 4.31806 0)
(10.0039 0.140413 0)
(10.0169 0.278214 0)
(10.0398 0.414506 0)
(10.0717 0.550288 0)
(10.112 0.686329 0)
(10.1605 0.823208 0)
(10.2172 0.961398 0)
(10.2824 1.10124 0)
(10.356 1.24294 0)
(10.4383 1.3866 0)
(10.5295 1.53219 0)
(10.6298 1.67955 0)
(10.7393 1.82843 0)
(10.8583 1.97847 0)