/*--------------------------------*- C++ -*----------------------------------*\
  =========                 |
  \\      /  F ield         | OpenFOAM: The Open Source CFD Toolbox
   \\    /   O peration     | Website:  https://openfoam.org
    \\  /    A nd           | Version:  7
     \\/     M anipulation  |
\*---------------------------------------------------------------------------*/
FoamFile
{
    version     2.0;
    format      ascii;
    class       surfaceVectorField;
    location    "0.8";
    object      Uf;
}
// * * * * * * * * * * * * * * * * * * * * * * * * * * * * * * * * * * * * * //

dimensions      [0 1 -1 0 0 0 0];

internalField   nonuniform List<vector> 
5457
(
(9.91974 0.0255136 0)
(9.97078 0.0393059 0)
(9.82072 0.033492 0)
(9.92662 0.0496654 0)
(9.70325 0.0402243 0)
(9.8509 0.0603432 0)
(9.5652 0.047156 0)
(9.74871 0.0726289 0)
(9.40658 0.0543104 0)
(9.62518 0.0854761 0)
(9.22757 0.0617281 0)
(9.48135 0.0987899 0)
(9.02798 0.0695542 0)
(9.31658 0.112816 0)
(8.80722 0.077937 0)
(9.13011 0.127797 0)
(8.56448 0.0870055 0)
(8.92121 0.143928 0)
(8.29872 0.0968816 0)
(8.68902 0.161384 0)
(8.00876 0.107688 0)
(8.43245 0.180338 0)
(7.69328 0.119547 0)
(8.15026 0.200958 0)
(7.35085 0.132579 0)
(7.84104 0.223395 0)
(6.98003 0.146894 0)
(7.50333 0.247773 0)
(6.57941 0.16258 0)
(7.13565 0.274163 0)
(6.14774 0.179687 0)
(6.73658 0.302555 0)
(5.68411 0.198202 0)
(6.30494 0.332819 0)
(5.18814 0.21802 0)
(5.8399 0.364644 0)
(4.66027 0.238898 0)
(5.3413 0.397479 0)
(4.10212 0.260414 0)
(4.80988 0.430456 0)
(3.51681 0.281903 0)
(4.24768 0.462315 0)
(2.90946 0.302401 0)
(3.65849 0.491335 0)
(2.2875 0.320629 0)
(3.04826 0.515313 0)
(1.66094 0.335225 0)
(2.42563 0.531691 0)
(1.04154 0.34612 0)
(1.80236 0.538333 0)
(0.438286 0.333617 0)
(1.19894 0.536974 0)
(-0.121322 0.128455 0)
(0.614964 0.510176 0)
(-0.399751 -0.159269 0)
(0.0898502 0.259974 0)
(-0.369963 -0.319813 0)
(-0.102304 -0.0284866 0)
(-0.10152 -0.362356 0)
(9.99526 0.0528998 0)
(9.99659 0.0416259 0)
(9.95547 0.0728543 0)
(9.97655 0.0696253 0)
(9.89183 0.0906949 0)
(9.92923 0.0930312 0)
(9.80628 0.109357 0)
(9.85649 0.117641 0)
(9.69867 0.128904 0)
(9.76211 0.143459 0)
(9.56896 0.149388 0)
(9.64722 0.170376 0)
(9.4169 0.171111 0)
(9.51143 0.198766 0)
(9.24195 0.194401 0)
(9.35411 0.229079 0)
(9.04331 0.219543 0)
(9.17462 0.261706 0)
(8.81996 0.246802 0)
(8.97217 0.297008 0)
(8.57074 0.27643 0)
(8.74579 0.33534 0)
(8.2943 0.308669 0)
(8.49431 0.377047 0)
(7.98919 0.343725 0)
(8.21642 0.422452 0)
(7.65387 0.381747 0)
(7.91068 0.471823 0)
(7.28684 0.422786 0)
(7.57563 0.525336 0)
(6.8867 0.466743 0)
(7.20978 0.583013 0)
(6.45232 0.513297 0)
(6.81179 0.644638 0)
(5.98305 0.561815 0)
(6.3806 0.709652 0)
(5.47902 0.611245 0)
(5.91561 0.777015 0)
(4.94144 0.660002 0)
(5.41702 0.845046 0)
(4.37307 0.705841 0)
(4.88614 0.91125 0)
(3.77874 0.74575 0)
(4.32591 0.972134 0)
(3.16596 0.775864 0)
(3.74142 1.02303 0)
(2.5459 0.791395 0)
(3.14075 1.05786 0)
(1.93582 0.786297 0)
(2.53603 1.06856 0)
(1.36842 0.744416 0)
(1.94692 1.04204 0)
(0.895856 0.609565 0)
(1.38923 0.940995 0)
(0.438327 0.339745 0)
(0.899351 0.687179 0)
(0.0787025 -0.125825 0)
(0.456594 0.315424 0)
(0.164349 -0.285272 0)
(9.9879 0.0614948 0)
(9.99435 0.04755 0)
(9.95108 0.0928146 0)
(9.97174 0.0880965 0)
(9.89101 0.122563 0)
(9.92534 0.123889 0)
(9.81037 0.153541 0)
(9.85562 0.160066 0)
(9.70958 0.186089 0)
(9.76524 0.197771 0)
(9.58856 0.220372 0)
(9.65536 0.237164 0)
(9.44714 0.256811 0)
(9.52588 0.278701 0)
(9.28494 0.295894 0)
(9.37635 0.32298 0)
(9.10134 0.338077 0)
(9.2063 0.370567 0)
(8.89551 0.383796 0)
(9.01515 0.421996 0)
(8.66647 0.43348 0)
(8.80213 0.477791 0)
(8.41305 0.487542 0)
(8.56634 0.53847 0)
(8.13397 0.546348 0)
(8.3067 0.604527 0)
(7.82781 0.610182 0)
(8.02205 0.67639 0)
(7.49313 0.67918 0)
(7.71115 0.754373 0)
(7.12848 0.753242 0)
(7.37269 0.838593 0)
(6.73255 0.83192 0)
(7.00541 0.928853 0)
(6.30433 0.914259 0)
(6.60817 1.02449 0)
(5.84331 0.998615 0)
(6.18011 1.12416 0)
(5.34983 1.08244 0)
(5.72083 1.22563 0)
(4.82546 1.16203 0)
(5.23073 1.32543 0)
(4.27359 1.23228 0)
(4.71137 1.41858 0)
(3.70012 1.28632 0)
(4.16606 1.49817 0)
(3.11456 1.31495 0)
(3.60048 1.55475 0)
(2.53157 1.30497 0)
(3.02335 1.57525 0)
(1.97156 1.23275 0)
(2.4475 1.54052 0)
(1.44723 1.05455 0)
(1.88396 1.41901 0)
(0.933711 0.737376 0)
(1.34374 1.16666 0)
(0.459239 0.223199 0)
(0.807873 0.769164 0)
(0.397173 0.164525 0)
(9.98403 0.0744864 0)
(9.99321 0.055371 0)
(9.94714 0.118272 0)
(9.96894 0.106601 0)
(9.88809 0.160427 0)
(9.92242 0.154218 0)
(9.80876 0.203403 0)
(9.85392 0.201808 0)
(9.70988 0.248054 0)
(9.76536 0.25105 0)
(9.59154 0.294846 0)
(9.65779 0.302476 0)
(9.45363 0.344375 0)
(9.53124 0.356649 0)
(9.29594 0.397295 0)
(9.38542 0.41427 0)
(9.11805 0.454242 0)
(9.21999 0.476041 0)
(8.91939 0.515832 0)
(9.03452 0.542632 0)
(8.69925 0.582667 0)
(8.82845 0.614705 0)
(8.45679 0.655336 0)
(8.60111 0.692911 0)
(8.19108 0.734378 0)
(8.35172 0.777875 0)
(7.90109 0.820241 0)
(8.07942 0.870159 0)
(7.5857 0.913204 0)
(7.78329 0.970203 0)
(7.2438 1.01327 0)
(7.46236 1.07823 0)
(6.87428 1.12002 0)
(7.11566 1.19411 0)
(6.47615 1.2324 0)
(6.74222 1.3172 0)
(6.04866 1.34848 0)
(6.34115 1.44606 0)
(5.59153 1.46514 0)
(5.91179 1.57817 0)
(5.10524 1.57769 0)
(5.45382 1.70953 0)
(4.59145 1.67946 0)
(4.96753 1.83423 0)
(4.05353 1.76127 0)
(4.45421 1.94386 0)
(3.49708 1.81064 0)
(3.91644 2.02695 0)
(2.93005 1.81041 0)
(3.3584 2.06806 0)
(2.36118 1.73574 0)
(2.78589 2.0469 0)
(1.79397 1.55286 0)
(2.2035 1.93611 0)
(1.22047 1.23878 0)
(1.61442 1.70215 0)
(0.633306 0.772906 0)
(0.993138 1.33067 0)
(0.482437 0.784808 0)
(9.98225 0.0880918 0)
(9.99271 0.064064 0)
(9.94496 0.142791 0)
(9.96765 0.125303 0)
(9.88689 0.196106 0)
(9.92127 0.184052 0)
(9.80901 0.250212 0)
(9.85408 0.24278 0)
(9.7121 0.306321 0)
(9.76755 0.30327 0)
(9.59631 0.365153 0)
(9.66252 0.366377 0)
(9.46158 0.427416 0)
(9.53907 0.432803 0)
(9.30772 0.493861 0)
(9.39698 0.50334 0)
(9.13442 0.565231 0)
(9.23598 0.578793 0)
(8.94124 0.642248 0)
(9.0557 0.659946 0)
(8.72762 0.725621 0)
(8.85571 0.747564 0)
(8.49293 0.81604 0)
(8.63546 0.842402 0)
(8.23649 0.914149 0)
(8.39435 0.94518 0)
(7.95752 1.0205 0)
(8.1317 1.05656 0)
(7.65525 1.13547 0)
(7.84681 1.17706 0)
(7.32884 1.25915 0)
(7.53894 1.30701 0)
(6.97745 1.39119 0)
(7.20733 1.44636 0)
(6.60024 1.53056 0)
(6.85117 1.59453 0)
(6.19641 1.67527 0)
(6.46961 1.75014 0)
(5.7653 1.82196 0)
(6.06178 1.91065 0)
(5.3065 1.96547 0)
(5.62681 2.07193 0)
(4.82007 2.09834 0)
(5.16392 2.22774 0)
(4.30678 2.21013 0)
(4.67253 2.36915 0)
(3.76826 2.28683 0)
(4.15244 2.48392 0)
(3.20685 2.31018 0)
(3.60383 2.55599 0)
(2.62462 2.2568 0)
(3.02735 2.56516 0)
(2.02071 2.09908 0)
(2.42271 2.48667 0)
(1.38783 1.81749 0)
(1.79056 2.29308 0)
(0.716054 1.38959 0)
(1.09951 1.9731 0)
(0.512476 1.48614 0)
(9.98152 0.101991 0)
(9.99254 0.0731131 0)
(9.9442 0.167037 0)
(9.96732 0.144022 0)
(9.8873 0.231194 0)
(9.9215 0.213283 0)
(9.8113 0.29634 0)
(9.85591 0.282765 0)
(9.71682 0.363805 0)
(9.77179 0.35418 0)
(9.60407 0.434478 0)
(9.66978 0.428601 0)
(9.47302 0.509174 0)
(9.54995 0.506881 0)
(9.32349 0.588732 0)
(9.41216 0.589901 0)
(9.15523 0.673992 0)
(9.25617 0.678558 0)
(8.96785 0.765779 0)
(9.08167 0.773731 0)
(8.76089 0.864898 0)
(8.88828 0.876278 0)
(8.53383 0.972132 0)
(8.67552 0.987036 0)
(8.28609 1.08821 0)
(8.44287 1.10681 0)
(8.01704 1.21377 0)
(8.18973 1.23633 0)
(7.72604 1.34927 0)
(7.91551 1.3762 0)
(7.4124 1.4949 0)
(7.61953 1.52683 0)
(7.0754 1.65039 0)
(7.30109 1.68827 0)
(6.71424 1.81481 0)
(6.9594 1.86006 0)
(6.32801 1.98626 0)
(6.59351 2.04097 0)
(5.91569 2.16146 0)
(6.20229 2.22864 0)
(5.47608 2.33524 0)
(5.78435 2.41916 0)
(5.00788 2.50002 0)
(5.33791 2.6065 0)
(4.50964 2.64515 0)
(4.86086 2.78196 0)
(3.97988 2.75641 0)
(4.35066 2.93347 0)
(3.41693 2.81569 0)
(3.80448 3.04526 0)
(2.81873 2.80104 0)
(3.21932 3.09764 0)
(2.18165 2.68787 0)
(2.59153 3.06747 0)
(1.49984 2.45787 0)
(1.92163 2.9297 0)
(0.769275 2.08215 0)
(1.17415 2.67175 0)
(0.531034 2.2396 0)
(9.98139 0.115927 0)
(9.99257 0.0822274 0)
(9.94448 0.190891 0)
(9.96762 0.162534 0)
(9.889 0.265435 0)
(9.92277 0.241783 0)
(9.81523 0.341223 0)
(9.85909 0.321579 0)
(9.72363 0.419626 0)
(9.77774 0.403537 0)
(9.61444 0.501681 0)
(9.6792 0.488862 0)
(9.48764 0.58832 0)
(9.56355 0.57855 0)
(9.34311 0.680478 0)
(9.43069 0.673571 0)
(9.18061 0.779087 0)
(9.2804 0.774907 0)
(8.99981 0.88506 0)
(9.11244 0.883525 0)
(8.80029 0.999288 0)
(8.92646 1.00037 0)
(8.58158 1.12263 0)
(8.72202 1.12635 0)
(8.34314 1.2559 0)
(8.49864 1.26236 0)
(8.08441 1.3998 0)
(8.25577 1.40921 0)
(7.80475 1.55487 0)
(7.99279 1.56758 0)
(7.5035 1.7214 0)
(7.70904 1.73798 0)
(7.17986 1.89924 0)
(7.40375 1.92059 0)
(6.83294 2.08765 0)
(7.07598 2.11512 0)
(6.46158 2.28494 0)
(6.72459 2.3206 0)
(6.06431 2.48816 0)
(6.34808 2.53502 0)
(5.63917 2.69254 0)
(5.94444 2.75495 0)
(5.18365 2.89095 0)
(5.511 2.97501 0)
(4.69452 3.07328 0)
(5.04426 3.18722 0)
(4.16787 3.22587 0)
(4.5398 3.38038 0)
(3.59916 3.33126 0)
(3.99235 3.53952 0)
(2.98352 3.36839 0)
(3.39621 3.64565 0)
(2.31589 3.31342 0)
(2.74512 3.67612 0)
(1.59239 3.14681 0)
(2.04039 3.60525 0)
(0.814062 2.82996 0)
(1.24271 3.41606 0)
(0.549606 3.03692 0)
(9.98162 0.129686 0)
(9.99272 0.0912263 0)
(9.94552 0.214176 0)
(9.96836 0.180644 0)
(9.89174 0.298639 0)
(9.92484 0.269408 0)
(9.82052 0.384629 0)
(9.8634 0.359048 0)
(9.73223 0.473543 0)
(9.78515 0.451112 0)
(9.6271 0.566528 0)
(9.69053 0.546886 0)
(9.50514 0.664627 0)
(9.57958 0.647484 0)
(9.36626 0.768863 0)
(9.45223 0.75397 0)
(9.21025 0.88025 0)
(9.30833 0.867405 0)
(9.03683 0.999785 0)
(9.14766 0.988835 0)
(8.84562 1.12844 0)
(8.96991 1.11929 0)
(8.63618 1.26716 0)
(8.77469 1.25976 0)
(8.408 1.41682 0)
(8.56155 1.41123 0)
(8.1605 1.57824 0)
(8.32993 1.57458 0)
(7.89304 1.75205 0)
(8.07922 1.75062 0)
(7.60484 1.93866 0)
(7.80868 1.93998 0)
(7.295 2.13811 0)
(7.51743 2.14301 0)
(6.96238 2.34991 0)
(7.20436 2.35967 0)
(6.60548 2.57274 0)
(6.868 2.58934 0)
(6.2223 2.80416 0)
(6.50643 2.83054 0)
(5.81011 3.0401 0)
(6.11701 3.08053 0)
(5.36526 3.27434 0)
(5.69618 3.33488 0)
(4.883 3.49781 0)
(5.23916 3.5868 0)
(4.35739 3.69793 0)
(4.73986 3.82641 0)
(3.78154 3.85816 0)
(4.19081 4.04 0)
(3.14826 3.9578 0)
(3.5838 4.20935 0)
(2.45126 3.97216 0)
(2.90984 4.31155 0)
(1.68764 3.87801 0)
(2.17051 4.31826 0)
(0.862032 3.62432 0)
(1.32189 4.2056 0)
(0.574851 3.88123 0)
(9.98211 0.143107 0)
(9.99295 0.0999886 0)
(9.94713 0.236734 0)
(9.96942 0.198188 0)
(9.89534 0.330646 0)
(9.92754 0.296011 0)
(9.827 0.426373 0)
(9.86864 0.395005 0)
(9.74241 0.525328 0)
(9.79385 0.496691 0)
(9.6418 0.628746 0)
(9.70354 0.602413 0)
(9.52522 0.737766 0)
(9.59776 0.71338 0)
(9.3926 0.853495 0)
(9.47648 0.830744 0)
(9.24378 0.977024 0)
(9.33959 0.95564 0)
(9.07852 1.10943 0)
(9.18691 1.08919 0)
(8.89647 1.25177 0)
(9.01819 1.23251 0)
(8.69724 1.40507 0)
(8.83307 1.38667 0)
(8.48033 1.57031 0)
(8.63112 1.55274 0)
(8.24515 1.74839 0)
(8.41183 1.73172 0)
(7.99102 1.9401 0)
(8.17455 1.92454 0)
(7.71707 2.14602 0)
(7.91849 2.13198 0)
(7.42224 2.36643 0)
(7.64265 2.35465 0)
(7.1051 2.60117 0)
(7.34574 2.59283 0)
(6.7638 2.84944 0)
(7.02601 2.84635 0)
(6.39577 3.10948 0)
(6.6811 3.11437 0)
(5.99752 3.3782 0)
(6.30779 3.39509 0)
(5.56436 3.6506 0)
(5.90167 3.6853 0)
(5.09007 3.91909 0)
(5.45679 3.97976 0)
(4.56683 4.17265 0)
(4.96541 4.27043 0)
(3.98536 4.39594 0)
(4.41782 4.54536 0)
(3.33583 4.56851 0)
(3.80292 4.78752 0)
(2.60968 4.66376 0)
(3.10792 4.97356 0)
(1.80314 4.65269 0)
(2.33273 5.07134 0)
(0.922646 4.46883 0)
(1.42678 5.04762 0)
(0.613235 4.7849 0)
(9.98277 0.156066 0)
(9.99325 0.108427 0)
(9.94918 0.25842 0)
(9.97073 0.215033 0)
(9.89966 0.361304 0)
(9.93074 0.32145 0)
(9.8345 0.46627 0)
(9.87468 0.429292 0)
(9.75397 0.574753 0)
(9.80365 0.540081 0)
(9.65831 0.68806 0)
(9.71803 0.655207 0)
(9.5476 0.807413 0)
(9.61787 0.775959 0)
(9.42181 0.933995 0)
(9.50316 0.903566 0)
(9.28082 1.06897 0)
(9.37385 1.03924 0)
(9.12443 1.2135 0)
(9.22982 1.18416 0)
(8.95235 1.36872 0)
(9.07084 1.33953 0)
(8.76423 1.53573 0)
(8.89664 1.5065 0)
(8.55959 1.71564 0)
(8.70682 1.68624 0)
(8.33787 1.90946 0)
(8.50089 1.87987 0)
(8.09834 2.11814 0)
(8.27823 2.08846 0)
(7.84007 2.34248 0)
(8.03801 2.313 0)
(7.56186 2.58308 0)
(7.77919 2.55437 0)
(7.26207 2.84021 0)
(7.50033 2.81324 0)
(6.9385 3.11368 0)
(7.19947 3.08999 0)
(6.58812 3.40261 0)
(6.87395 3.38458 0)
(6.20678 3.70509 0)
(6.52008 3.6963 0)
(5.7888 4.01769 0)
(6.13274 4.02343 0)
(5.3266 4.33475 0)
(5.70499 4.36271 0)
(4.8104 4.64739 0)
(5.2275 4.70847 0)
(4.22816 4.94211 0)
(4.68813 5.05139 0)
(3.56638 5.19921 0)
(4.0722 5.3766 0)
(2.81206 5.38999 0)
(3.36124 5.66125 0)
(1.95728 5.47811 0)
(2.54989 5.86946 0)
(1.00715 5.37747 0)
(1.57622 5.95624 0)
(0.674118 5.77134 0)
(9.98357 0.168465 0)
(9.99359 0.116475 0)
(9.9516 0.279107 0)
(9.97224 0.231068 0)
(9.90459 0.39047 0)
(9.93437 0.345599 0)
(9.84287 0.504149 0)
(9.88139 0.461761 0)
(9.76674 0.621612 0)
(9.81443 0.581103 0)
(9.67642 0.744224 0)
(9.73382 0.705054 0)
(9.57203 0.873277 0)
(9.63967 0.834967 0)
(9.45357 1.01003 0)
(9.53198 0.97214 0)
(9.32099 1.15571 0)
(9.41077 1.11784 0)
(9.17413 1.31155 0)
(9.27596 1.27334 0)
(9.01277 1.47876 0)
(9.1274 1.43989 0)
(8.8366 1.65855 0)
(8.96487 1.61873 0)
(8.6452 1.85211 0)
(8.78803 1.81111 0)
(8.43803 2.06062 0)
(8.59645 2.01829 0)
(8.21439 2.28519 0)
(8.38957 2.2415 0)
(7.97333 2.5269 0)
(8.16659 2.48196 0)
(7.71357 2.78668 0)
(7.92646 2.74083 0)
(7.43338 3.06532 0)
(7.66773 3.01924 0)
(7.13034 3.36334 0)
(7.38837 3.31818 0)
(6.80112 3.68088 0)
(7.08559 3.63848 0)
(6.44108 4.01743 0)
(6.75545 3.98068 0)
(6.04382 4.37146 0)
(6.39247 4.34481 0)
(5.60058 4.73977 0)
(5.98899 4.72996 0)
(5.09961 5.11643 0)
(5.53445 5.13359 0)
(4.52569 5.49105 0)
(5.01434 5.55019 0)
(3.86015 5.84618 0)
(4.40977 5.96902 0)
(3.08232 6.15249 0)
(3.69436 6.37037 0)
(2.17434 6.36601 0)
(2.85197 6.71726 0)
(1.13265 6.37511 0)
(1.79938 6.95241 0)
(0.774424 6.8807 0)
(9.98447 0.180224 0)
(9.99397 0.124081 0)
(9.95429 0.298688 0)
(9.9739 0.246204 0)
(9.91001 0.418014 0)
(9.93833 0.368345 0)
(9.852 0.539856 0)
(9.88868 0.492282 0)
(9.78056 0.665718 0)
(9.82602 0.619599 0)
(9.69593 0.797014 0)
(9.75074 0.751762 0)
(9.59825 0.9351 0)
(9.66293 0.890178 0)
(9.48759 1.08129 0)
(9.56267 1.0362 0)
(9.36393 1.23688 0)
(9.45001 1.19116 0)
(9.22719 1.40317 0)
(9.32494 1.35638 0)
(9.07721 1.58143 0)
(9.18738 1.53316 0)
(8.91375 1.77296 0)
(9.03717 1.72285 0)
(8.73647 1.97907 0)
(8.87409 1.92677 0)
(8.5449 2.20107 0)
(8.69778 2.14629 0)
(8.3384 2.44028 0)
(8.50776 2.38282 0)
(8.11607 2.69804 0)
(8.30334 2.63779 0)
(7.87668 2.97566 0)
(8.08355 2.91268 0)
(7.61851 3.27447 0)
(7.84706 3.20905 0)
(7.33915 3.59578 0)
(7.59195 3.52854 0)
(7.03519 3.94081 0)
(7.31552 3.87289 0)
(6.70187 4.31064 0)
(7.01398 4.24396 0)
(6.33246 4.70592 0)
(6.68189 4.64365 0)
(5.91747 5.1265 0)
(6.31153 5.07379 0)
(5.44364 5.57046 0)
(5.89181 5.53568 0)
(4.89253 6.03244 0)
(5.4067 6.02916 0)
(4.23917 6.50045 0)
(4.83343 6.5506 0)
(3.45122 6.94901 0)
(4.13647 7.08872 0)
(2.49133 7.3304 0)
(3.28231 7.61352 0)
(1.33015 7.50199 0)
(2.1478 8.06286 0)
(0.949503 8.1835 0)
(9.98545 0.19128 0)
(9.99438 0.131204 0)
(9.95722 0.317069 0)
(9.97568 0.260365 0)
(9.91586 0.443822 0)
(9.94258 0.389591 0)
(9.86178 0.573254 0)
(9.89644 0.520738 0)
(9.79528 0.706907 0)
(9.83832 0.65543 0)
(9.71663 0.846237 0)
(9.76861 0.795166 0)
(9.62602 0.992649 0)
(9.68744 0.941397 0)
(9.52354 1.14751 0)
(9.59494 1.09552 0)
(9.40926 1.31217 0)
(9.49122 1.25892 0)
(9.28315 1.48798 0)
(9.37632 1.43296 0)
(9.14514 1.67628 0)
(9.25026 1.619 0)
(8.99506 1.87845 0)
(9.11297 1.81844 0)
(8.83269 2.0959 0)
(8.96431 2.0327 0)
(8.65767 2.33007 0)
(8.80405 2.26325 0)
(8.46945 2.58246 0)
(8.63185 2.51163 0)
(8.26729 2.85468 0)
(8.44718 2.77948 0)
(8.05011 3.14842 0)
(8.24927 3.06858 0)
(7.81637 3.46555 0)
(8.03699 3.3809 0)
(7.56387 3.80812 0)
(7.80875 3.71867 0)
(7.28951 4.17847 0)
(7.56226 4.08449 0)
(6.98882 4.57929 0)
(7.29422 4.48147 0)
(6.65539 5.01362 0)
(6.99989 4.91339 0)
(6.2799 5.48476 0)
(6.67236 5.3849 0)
(5.84868 5.99594 0)
(6.30141 5.9016 0)
(5.34136 6.54922 0)
(5.87143 6.47009 0)
(4.72721 7.14316 0)
(5.35856 7.09727 0)
(3.95971 7.76581 0)
(4.72075 7.78842 0)
(2.96947 8.38133 0)
(3.90502 8.53813 0)
(1.66417 8.82475 0)
(2.7215 9.31113 0)
(1.28275 9.81345 0)
(9.98651 0.20158 0)
(9.99482 0.137812 0)
(9.96034 0.33417 0)
(9.97757 0.273491 0)
(9.92206 0.467797 0)
(9.94706 0.409255 0)
(9.87208 0.604228 0)
(9.90459 0.547031 0)
(9.81075 0.745043 0)
(9.85119 0.688478 0)
(9.73834 0.891733 0)
(9.78727 0.835127 0)
(9.65508 1.04574 0)
(9.71299 0.988459 0)
(9.56113 1.20848 0)
(9.62853 1.14991 0)
(9.45659 1.38134 0)
(9.53406 1.3209 0)
(9.34154 1.56571 0)
(9.4297 1.50283 0)
(9.21598 1.763 0)
(9.31554 1.69709 0)
(9.07986 1.97463 0)
(9.19163 1.90514 0)
(8.93307 2.20211 0)
(9.05794 2.12846 0)
(8.77539 2.44699 0)
(8.9144 2.3686 0)
(8.60646 2.71094 0)
(8.76082 2.62723 0)
(8.42574 2.99579 0)
(8.5969 2.90615 0)
(8.23241 3.30355 0)
(8.42213 3.20736 0)
(8.02529 3.63657 0)
(8.23578 3.53318 0)
(7.80264 3.99757 0)
(8.0367 3.88632 0)
(7.56198 4.3899 0)
(7.82329 4.27009 0)
(7.2997 4.81771 0)
(7.59318 4.68863 0)
(7.01054 5.2863 0)
(7.34296 5.14732 0)
(6.68666 5.80248 0)
(7.06762 5.65325 0)
(6.31607 6.37515 0)
(6.75965 6.21608 0)
(5.87975 7.01578 0)
(6.40726 6.84929 0)
(5.34606 7.73916 0)
(5.99165 7.57233 0)
(4.65905 8.56237 0)
(5.47599 8.41474 0)
(3.71223 9.50235 0)
(4.80753 9.4222 0)
(2.28812 10.4622 0)
(3.73575 10.673 0)
(2.00133 12.0545 0)
(9.98761 0.211081 0)
(9.99527 0.14388 0)
(9.9636 0.349928 0)
(9.97953 0.285533 0)
(9.92853 0.489848 0)
(9.95171 0.427272 0)
(9.88282 0.63266 0)
(9.91305 0.571079 0)
(9.82683 0.779974 0)
(9.86453 0.718648 0)
(9.76087 0.93331 0)
(9.80659 0.871529 0)
(9.6852 1.09414 0)
(9.73943 1.03123 0)
(9.60003 1.26391 0)
(9.66327 1.19922 0)
(9.50555 1.44404 0)
(9.57835 1.37693 0)
(9.40189 1.63595 0)
(9.48488 1.56577 0)
(9.28917 1.84108 0)
(9.38303 1.7672 0)
(9.16746 2.06091 0)
(9.27295 1.98267 0)
(9.03678 2.297 0)
(9.15478 2.21372 0)
(8.89709 2.551 0)
(9.02859 2.46194 0)
(8.74825 2.82469 0)
(8.89441 2.72909 0)
(8.58998 3.12007 0)
(8.7522 3.01707 0)
(8.42184 3.43941 0)
(8.60179 3.32806 0)
(8.24312 3.78537 0)
(8.44289 3.66458 0)
(8.05277 4.16122 0)
(8.27501 4.02965 0)
(7.84925 4.57103 0)
(8.09741 4.42704 0)
(7.63031 5.02006 0)
(7.90899 4.86156 0)
(7.39269 5.51532 0)
(7.70824 5.33954 0)
(7.13153 6.06644 0)
(7.493 5.86963 0)
(6.83933 6.6871 0)
(7.26032 6.46403 0)
(6.50395 7.39763 0)
(7.00599 7.14078 0)
(6.10392 8.23044 0)
(6.72485 7.92841 0)
(5.59683 9.24302 0)
(6.40758 8.87704 0)
(4.88114 10.568 0)
(6.07352 10.0905 0)
(3.62465 12.6437 0)
(5.7675 11.8746 0)
(4.8611 15.6046 0)
(-0.761935 0.548852 0)
(-0.55967 0.746268 0)
(-1.64137 0.554237 0)
(-1.33206 0.841006 0)
(-2.54789 0.523257 0)
(-2.28755 0.846443 0)
(-3.463 0.490482 0)
(-3.23185 0.834267 0)
(-4.37381 0.457192 0)
(-4.17346 0.810752 0)
(-5.2709 0.423619 0)
(-5.10189 0.779666 0)
(-6.1465 0.389758 0)
(-6.00921 0.743026 0)
(-6.994 0.355649 0)
(-6.88876 0.702187 0)
(-7.80749 0.321347 0)
(-7.73472 0.658095 0)
(-8.58152 0.286883 0)
(-8.54183 0.611377 0)
(-9.31075 0.252249 0)
(-9.30505 0.562392 0)
(-9.98976 0.217396 0)
(-10.0193 0.511288 0)
(-10.6128 0.182238 0)
(-10.6793 0.458054 0)
(-11.1736 0.146658 0)
(-11.2791 0.402568 0)
(-11.6653 0.110501 0)
(-11.8124 0.344638 0)
(-12.0803 0.0735718 0)
(-12.2722 0.284041 0)
(-12.4104 0.0356611 0)
(-12.6506 0.220537 0)
(-12.6464 -0.00351669 0)
(-12.9393 0.153983 0)
(-12.7796 -0.0448365 0)
(-13.1291 0.0848038 0)
(-12.7948 -0.091027 0)
(-13.2099 0.00949893 0)
(-12.6824 -0.1436 0)
(-13.1704 -0.068286 0)
(-12.4205 -0.202637 0)
(-12.9977 -0.155257 0)
(-11.9908 -0.269788 0)
(-12.676 -0.248771 0)
(-11.3717 -0.347574 0)
(-12.1891 -0.349956 0)
(-10.5359 -0.439739 0)
(-11.5213 -0.461262 0)
(-9.44948 -0.55252 0)
(-10.6514 -0.585406 0)
(-8.0655 -0.698044 0)
(-9.52915 -0.728146 0)
(-6.28936 -0.888694 0)
(-8.04245 -0.912398 0)
(-3.95288 -1.08414 0)
(-6.08648 -1.1719 0)
(-3.97777 -1.29902 0)
(-0.973134 1.25702 0)
(-0.653192 1.69939 0)
(-1.95184 1.29256 0)
(-1.4867 1.77695 0)
(-2.93266 1.27753 0)
(-2.49736 1.76225 0)
(-3.90923 1.24704 0)
(-3.4756 1.72457 0)
(-4.87247 1.20499 0)
(-4.44158 1.66817 0)
(-5.81443 1.15456 0)
(-5.38651 1.59834 0)
(-6.7284 1.09782 0)
(-6.30452 1.5186 0)
(-7.60864 1.03628 0)
(-7.1905 1.43151 0)
(-8.45008 0.970933 0)
(-8.03998 1.3388 0)
(-9.24797 0.902389 0)
(-8.8488 1.2416 0)
(-9.9976 0.830907 0)
(-9.61285 1.14051 0)
(-10.694 0.756473 0)
(-10.3278 1.03571 0)
(-11.332 0.678882 0)
(-10.989 0.927083 0)
(-11.9056 0.597796 0)
(-11.5912 0.814315 0)
(-12.4083 0.5128 0)
(-12.1283 0.69698 0)
(-12.8329 0.423467 0)
(-12.5938 0.574613 0)
(-13.1715 0.329418 0)
(-12.9802 0.446806 0)
(-13.4157 0.230316 0)
(-13.2795 0.313309 0)
(-13.5551 0.12536 0)
(-13.4833 0.173598 0)
(-13.5843 0.0122805 0)
(-13.5829 0.0276159 0)
(-13.4883 -0.109977 0)
(-13.5675 -0.126571 0)
(-13.2613 -0.240847 0)
(-13.4317 -0.289813 0)
(-12.8897 -0.381304 0)
(-13.1646 -0.463906 0)
(-12.3589 -0.534077 0)
(-12.7547 -0.649992 0)
(-11.6529 -0.703354 0)
(-12.1932 -0.850919 0)
(-10.7542 -0.895994 0)
(-11.47 -1.06963 0)
(-9.6463 -1.12657 0)
(-10.5581 -1.31106 0)
(-8.3276 -1.41116 0)
(-9.39123 -1.58982 0)
(-6.84554 -1.7102 0)
(-7.95414 -1.91525 0)
(-6.74038 -2.23826 0)
(-1.01597 2.20743 0)
(-0.654556 2.69447 0)
(-2.01938 2.22761 0)
(-1.48616 2.73652 0)
(-3.00804 2.18822 0)
(-2.4938 2.68538 0)
(-3.98006 2.12533 0)
(-3.4508 2.61073 0)
(-4.9302 2.04337 0)
(-4.38975 2.51392 0)
(-5.85349 1.94727 0)
(-5.30309 2.40078 0)
(-6.74555 1.84056 0)
(-6.18756 2.27559 0)
(-7.60252 1.72579 0)
(-7.04006 2.14154 0)
(-8.42088 1.60466 0)
(-7.85767 2.00083 0)
(-9.19717 1.47818 0)
(-8.6375 1.85477 0)
(-9.92773 1.34678 0)
(-9.37634 1.70393 0)
(-10.6085 1.21047 0)
(-10.0706 1.54834 0)
(-11.2349 1.06903 0)
(-10.7159 1.38763 0)
(-11.8017 0.922045 0)
(-11.3076 1.22116 0)
(-12.3028 0.769119 0)
(-11.8397 1.0482 0)
(-12.7315 0.609911 0)
(-12.306 0.867997 0)
(-13.0803 0.444265 0)
(-12.6992 0.679902 0)
(-13.3412 0.272253 0)
(-13.0116 0.483459 0)
(-13.5059 0.0940915 0)
(-13.2351 0.278549 0)
(-13.565 -0.0899178 0)
(-13.3616 0.064393 0)
(-13.514 -0.282451 0)
(-13.3819 -0.157546 0)
(-13.3433 -0.486894 0)
(-13.2921 -0.391025 0)
(-13.0443 -0.704161 0)
(-13.0853 -0.637035 0)
(-12.608 -0.935967 0)
(-12.7538 -0.896566 0)
(-12.0258 -1.18477 0)
(-12.2934 -1.17223 0)
(-11.2899 -1.45333 0)
(-11.7009 -1.46618 0)
(-10.3993 -1.74844 0)
(-10.9616 -1.77961 0)
(-9.37289 -2.08336 0)
(-10.0331 -2.1171 0)
(-8.22472 -2.44647 0)
(-8.92647 -2.49113 0)
(-8.06398 -2.88884 0)
(-0.984106 3.18101 0)
(-0.615095 3.65834 0)
(-1.95583 3.16441 0)
(-1.40299 3.66578 0)
(-2.90707 3.08459 0)
(-2.36501 3.57357 0)
(-3.83609 2.9799 0)
(-3.2653 3.45768 0)
(-4.73992 2.85452 0)
(-4.148 3.31845 0)
(-5.6162 2.71411 0)
(-5.00521 3.16237 0)
(-6.46269 2.56278 0)
(-5.83582 2.9939 0)
(-7.27721 2.40348 0)
(-6.63821 2.81641 0)
(-8.05749 2.2381 0)
(-7.41055 2.63206 0)
(-8.80091 2.06758 0)
(-8.15064 2.44197 0)
(-9.50434 1.89217 0)
(-8.85567 2.24643 0)
(-10.164 1.71155 0)
(-9.52218 2.04508 0)
(-10.7755 1.52501 0)
(-10.146 1.83717 0)
(-11.3334 1.33164 0)
(-10.7221 1.62167 0)
(-11.8318 1.13037 0)
(-11.2449 1.39753 0)
(-12.2639 0.920158 0)
(-11.7079 1.16372 0)
(-12.6224 0.70004 0)
(-12.104 0.919397 0)
(-12.8992 0.469303 0)
(-12.4257 0.664039 0)
(-13.0861 0.227551 0)
(-12.6654 0.39761 0)
(-13.1764 -0.0255493 0)
(-12.8154 0.120542 0)
(-13.1632 -0.289953 0)
(-12.868 -0.165548 0)
(-13.0425 -0.566208 0)
(-12.8187 -0.462563 0)
(-12.8088 -0.855653 0)
(-12.6665 -0.772356 0)
(-12.4571 -1.15996 0)
(-12.4064 -1.09536 0)
(-11.9834 -1.48093 0)
(-12.0374 -1.43362 0)
(-11.386 -1.81854 0)
(-11.5602 -1.7881 0)
(-10.6704 -2.17319 0)
(-10.9671 -2.15614 0)
(-9.8552 -2.55361 0)
(-10.2305 -2.53584 0)
(-8.96002 -2.95383 0)
(-9.37266 -2.94012 0)
(-8.73186 -3.34779 0)
(-0.91127 4.10368 0)
(-0.554556 4.55088 0)
(-1.8127 4.04762 0)
(-1.27011 4.52782 0)
(-2.6948 3.92581 0)
(-2.15568 4.39721 0)
(-3.55538 3.77935 0)
(-2.97493 4.24224 0)
(-4.39261 3.61224 0)
(-3.78206 4.06371 0)
(-5.20561 3.43038 0)
(-4.56734 3.86895 0)
(-5.99338 3.23775 0)
(-5.33119 3.66239 0)
(-6.75468 3.03705 0)
(-6.07267 3.44717 0)
(-7.48776 2.82978 0)
(-6.79044 3.2251 0)
(-8.19027 2.61641 0)
(-7.48247 2.99685 0)
(-8.8591 2.39666 0)
(-8.14598 2.76224 0)
(-9.49042 2.16973 0)
(-8.77742 2.52046 0)
(-10.0796 1.93453 0)
(-9.3725 2.27034 0)
(-10.6213 1.68989 0)
(-9.92621 2.01055 0)
(-11.1096 1.43471 0)
(-10.4329 1.73976 0)
(-11.5378 1.16814 0)
(-10.8862 1.45676 0)
(-11.8989 0.889666 0)
(-11.2792 1.16064 0)
(-12.1852 0.599348 0)
(-11.6047 0.850864 0)
(-12.3894 0.298 0)
(-11.8551 0.527655 0)
(-12.505 -0.0130199 0)
(-12.0237 0.192427 0)
(-12.5266 -0.333882 0)
(-12.1041 -0.152446 0)
(-12.4515 -0.6665 0)
(-12.0903 -0.507048 0)
(-12.2775 -1.01192 0)
(-11.9875 -0.873094 0)
(-12.0032 -1.37099 0)
(-11.7924 -1.2504 0)
(-11.6283 -1.74461 0)
(-11.5073 -1.64052 0)
(-11.1544 -2.13069 0)
(-11.135 -2.04347 0)
(-10.5882 -2.52524 0)
(-10.6713 -2.45401 0)
(-9.94596 -2.9314 0)
(-10.0986 -2.86578 0)
(-9.25786 -3.33743 0)
(-9.44214 -3.28525 0)
(-8.96295 -3.67689 0)
(-0.810925 4.94159 0)
(-0.481523 5.34513 0)
(-1.61696 4.85208 0)
(-1.10418 5.29864 0)
(-2.40802 4.69318 0)
(-1.89148 5.13584 0)
(-3.18201 4.50974 0)
(-2.6124 4.94786 0)
(-3.9378 4.30631 0)
(-3.32977 4.73646 0)
(-4.67521 4.08904 0)
(-4.03109 4.50985 0)
(-5.39378 3.86162 0)
(-4.71796 4.27216 0)
(-6.09258 3.62638 0)
(-5.38959 4.02616 0)
(-6.77 3.38436 0)
(-6.0447 3.77311 0)
(-7.42363 3.13558 0)
(-6.68117 3.51314 0)
(-8.05028 2.87935 0)
(-7.29606 3.24552 0)
(-8.646 2.61451 0)
(-7.88565 2.96903 0)
(-9.20614 2.33967 0)
(-8.44554 2.68216 0)
(-9.72537 2.05337 0)
(-8.97065 2.38329 0)
(-10.1978 1.75426 0)
(-9.45534 2.07087 0)
(-10.6169 1.44114 0)
(-9.89341 1.74359 0)
(-10.9758 1.11319 0)
(-10.2781 1.40046 0)
(-11.2673 0.770231 0)
(-10.6024 1.04103 0)
(-11.4842 0.413297 0)
(-10.8588 0.665799 0)
(-11.6202 0.0447305 0)
(-11.0409 0.277014 0)
(-11.6709 -0.333366 0)
(-11.1438 -0.121683 0)
(-11.6357 -0.720974 0)
(-11.1599 -0.527906 0)
(-11.5153 -1.11856 0)
(-11.1003 -0.942761 0)
(-11.3117 -1.52654 0)
(-10.9641 -1.36552 0)
(-11.0273 -1.94535 0)
(-10.756 -1.79749 0)
(-10.6653 -2.37177 0)
(-10.4801 -2.23852 0)
(-10.2313 -2.79875 0)
(-10.1341 -2.68235 0)
(-9.73825 -3.22274 0)
(-9.70583 -3.11904 0)
(-9.22098 -3.62298 0)
(-9.21851 -3.54469 0)
(-8.86644 -3.91268 0)
(-0.691283 5.67421 0)
(-0.400761 6.0222 0)
(-1.38459 5.56001 0)
(-0.915016 5.96165 0)
(-2.06898 5.37167 0)
(-1.58824 5.77487 0)
(-2.74281 5.15874 0)
(-2.19798 5.56216 0)
(-3.40557 4.92662 0)
(-2.81463 5.32641 0)
(-4.05748 4.6816 0)
(-3.42236 5.07643 0)
(-4.6982 4.42694 0)
(-4.02392 4.81587 0)
(-5.32677 4.16443 0)
(-4.61831 4.54696 0)
(-5.94144 3.89449 0)
(-5.20408 4.27036 0)
(-6.53957 3.61656 0)
(-5.7788 3.98558 0)
(-7.11776 3.32945 0)
(-6.33926 3.69142 0)
(-7.67185 3.03161 0)
(-6.88148 3.38627 0)
(-8.19708 2.72134 0)
(-7.40087 3.06832 0)
(-8.68808 2.39692 0)
(-7.89229 2.73575 0)
(-9.13895 2.05687 0)
(-8.35006 2.38688 0)
(-9.54335 1.70001 0)
(-8.76807 2.02033 0)
(-9.89459 1.32568 0)
(-9.13978 1.63515 0)
(-10.1858 0.934069 0)
(-9.45813 1.23102 0)
(-10.4102 0.526844 0)
(-9.7158 0.808752 0)
(-10.5617 0.107499 0)
(-9.90639 0.371213 0)
(-10.6361 -0.319862 0)
(-10.0263 -0.0765155 0)
(-10.6349 -0.753699 0)
(-10.0656 -0.528575 0)
(-10.562 -1.19392 0)
(-10.0423 -0.984983 0)
(-10.4224 -1.64058 0)
(-9.95758 -1.44444 0)
(-10.2212 -2.09425 0)
(-9.81905 -1.9085 0)
(-9.96234 -2.55173 0)
(-9.63209 -2.37803 0)
(-9.64864 -3.00402 0)
(-9.39462 -2.84739 0)
(-9.28876 -3.44042 0)
(-9.09681 -3.30391 0)
(-8.91481 -3.83074 0)
(-8.75617 -3.73225 0)
(-8.51054 -4.07691 0)
(-0.557809 6.28683 0)
(-0.315247 6.56854 0)
(-1.12564 6.15784 0)
(-0.708661 6.50466 0)
(-1.69154 5.94921 0)
(-1.25594 6.30327 0)
(-2.25471 5.71602 0)
(-1.74448 6.07559 0)
(-2.81527 5.46442 0)
(-2.25177 5.82538 0)
(-3.37368 5.20059 0)
(-2.75817 5.56175 0)
(-3.92949 4.92717 0)
(-3.26778 5.28752 0)
(-4.48152 4.64532 0)
(-3.77903 5.00434 0)
(-5.02766 4.35482 0)
(-4.29012 4.71217 0)
(-5.56495 4.05458 0)
(-4.79822 4.40997 0)
(-6.08963 3.74297 0)
(-5.2997 4.09606 0)
(-6.5973 3.41817 0)
(-5.79029 3.76855 0)
(-7.08307 3.07828 0)
(-6.26523 3.42546 0)
(-7.54151 2.72148 0)
(-6.71929 3.06484 0)
(-7.96675 2.34622 0)
(-7.14682 2.68493 0)
(-8.3525 1.95135 0)
(-7.54173 2.28432 0)
(-8.69217 1.53628 0)
(-7.89748 1.86211 0)
(-8.97903 1.10138 0)
(-8.20695 1.41817 0)
(-9.20643 0.648704 0)
(-8.46238 0.953604 0)
(-9.3682 0.182723 0)
(-8.65694 0.471822 0)
(-9.45955 -0.289596 0)
(-8.78745 -0.0210404 0)
(-9.48488 -0.763867 0)
(-8.84222 -0.51356 0)
(-9.45122 -1.23909 0)
(-8.84659 -1.00447 0)
(-9.36735 -1.71543 0)
(-8.80419 -1.49184 0)
(-9.24129 -2.19455 0)
(-8.72607 -1.97807 0)
(-9.0772 -2.6748 0)
(-8.61933 -2.46645 0)
(-8.87492 -3.14679 0)
(-8.48192 -2.95382 0)
(-8.63676 -3.59318 0)
(-8.30362 -3.42625 0)
(-8.38662 -3.97418 0)
(-8.09408 -3.85772 0)
(-7.94321 -4.18303 0)
(-0.41387 6.76836 0)
(-0.226929 6.9739 0)
(-0.846362 6.63523 0)
(-0.488701 6.91826 0)
(-1.28444 6.41649 0)
(-0.900826 6.71231 0)
(-1.72863 6.17354 0)
(-1.25995 6.48054 0)
(-2.17969 5.91285 0)
(-1.65112 6.22689 0)
(-2.6383 5.64016 0)
(-2.05016 5.96033 0)
(-3.1037 5.35729 0)
(-2.46276 5.68246 0)
(-3.57429 5.0647 0)
(-2.88642 5.39425 0)
(-4.04749 4.76155 0)
(-3.31886 5.09498 0)
(-4.51987 4.44626 0)
(-3.75671 4.78308 0)
(-4.98729 4.11689 0)
(-4.19586 4.45655 0)
(-5.44511 3.77142 0)
(-4.63167 4.11328 0)
(-5.88834 3.40787 0)
(-5.05928 3.75132 0)
(-6.31154 3.02433 0)
(-5.47354 3.36864 0)
(-6.70882 2.6192 0)
(-5.86883 2.96338 0)
(-7.0738 2.19131 0)
(-6.23907 2.53409 0)
(-7.3997 1.74023 0)
(-6.57762 2.07987 0)
(-7.67957 1.26655 0)
(-6.87692 1.60075 0)
(-7.90643 0.77278 0)
(-7.12819 1.09811 0)
(-8.0741 0.264558 0)
(-7.32295 0.5761 0)
(-8.17522 -0.248392 0)
(-7.45659 0.0403681 0)
(-8.21829 -0.757464 0)
(-7.52226 -0.488023 0)
(-8.21409 -1.25974 0)
(-7.54462 -1.0069 0)
(-8.17554 -1.75629 0)
(-7.53404 -1.51363 0)
(-8.11433 -2.25092 0)
(-7.50507 -2.01185 0)
(-8.03558 -2.74527 0)
(-7.46756 -2.50888 0)
(-7.93636 -3.23145 0)
(-7.42008 -3.00602 0)
(-7.81147 -3.68713 0)