/*--------------------------------*- C++ -*----------------------------------*\
  =========                 |
  \\      /  F ield         | OpenFOAM: The Open Source CFD Toolbox
   \\    /   O peration     | Website:  https://openfoam.org
    \\  /    A nd           | Version:  7
     \\/     M anipulation  |
\*---------------------------------------------------------------------------*/
FoamFile
{
    version     2.0;
    format      ascii;
    class       volScalarField;
    location    "4.8";
    object      p;
}
// * * * * * * * * * * * * * * * * * * * * * * * * * * * * * * * * * * * * * //

dimensions      [0 2 -2 0 0 0 0];

internalField   nonuniform List<scalar> 
2790
(
147.062
146.969
147.236
147.807
148.587
149.545
150.677
151.984
153.46
155.101
156.901
158.851
160.945
163.17
165.511
167.946
170.451
172.99
175.521
177.996
180.354
182.531
184.462
186.082
187.342
188.216
188.653
188.708
188.759
188.971
146.859
146.877
147.169
147.737
148.513
149.467
150.595
151.896
153.365
154.998
156.788
158.728
160.811
163.025
165.355
167.78
170.276
172.809
175.339
177.817
180.186
182.381
184.336
185.984
187.269
188.143
188.54
188.595
188.727
189.012
146.66
146.748
147.059
147.617
148.38
149.322
150.434
151.717
153.165
154.773
156.535
158.444
160.492
162.667
164.956
167.338
169.79
172.281
174.773
177.22
179.57
181.762
183.735
185.425
186.776
187.751
188.344
188.7
189.015
189.314
146.435
146.554
146.877
147.427
148.175
149.1
150.194
151.452
152.871
154.445
156.169
158.034
160.033
162.153
164.382
166.7
169.084
171.507
173.934
176.325
178.632
180.804
182.786
184.525
185.98
187.132
188
188.671
189.223
189.743
146.174
146.307
146.639
147.181
147.913
148.817
149.884
151.111
152.493
154.025
155.699
157.508
159.444
161.494
163.646
165.882
168.18
170.515
172.856
175.17
177.415
179.55
181.532
183.323
184.893
186.236
187.366
188.328
189.139
189.886
145.874
146.012
146.346
146.878
147.59
148.468
149.504
150.693
152.031
153.51
155.125
156.868
158.729
160.697
162.758
164.896
167.091
169.32
171.557
173.772
175.935
178.012
179.974
181.795
183.458
184.96
186.306
187.512
188.532
189.45
145.531
145.67
146.002
146.52
147.21
148.057
149.057
150.202
151.488
152.908
154.455
156.12
157.895
159.768
161.725
163.751
165.827
167.933
170.046
172.142
174.197
176.188
178.095
179.906
181.612
183.212
184.706
186.085
187.25
188.297
145.146
145.283
145.608
146.11
146.774
147.587
148.545
149.64
150.868
152.221
153.691
155.271
156.949
158.715
160.555
162.455
164.396
166.36
168.328
170.279
172.197
174.064
175.871
177.613
179.292
180.911
182.466
183.938
185.188
186.339
144.72
144.853
145.167
145.65
146.284
147.06
147.972
149.012
150.176
151.455
152.841
154.325
155.897
157.546
159.256
161.015
162.804
164.608
166.407
168.186
169.929
171.627
173.275
174.876
176.437
177.972
179.481
180.951
182.222
183.461
144.254
144.382
144.682
145.143
145.745
146.48
147.341
148.322
149.415
150.614
151.909
153.29
154.747
156.267
157.837
159.441
161.062
162.684
164.29
165.864
167.392
168.867
170.285
171.653
172.985
174.304
175.624
176.962
178.163
179.467
143.748
143.87
144.155
144.591
145.159
145.849
146.656
147.573
148.592
149.705
150.902
152.173
153.507
154.889
156.307
157.743
159.18
160.601
161.988
163.322
164.59
165.78
166.887
167.915
168.879
169.808
170.738
171.737
172.7
174.018
143.206
143.321
143.589
143.997
144.528
145.172
145.922
146.771
147.711
148.733
149.827
150.982
152.185
153.422
154.677
155.933
157.172
158.373
159.515
160.577
161.539
162.381
163.089
163.655
164.081
164.391
164.634
164.942
165.324
166.497
142.629
142.736
142.986
143.365
143.857
144.451
145.141
145.919
146.777
147.705
148.691
149.725
150.791
151.875
152.961
154.027
155.054
156.018
156.893
157.652
158.265
158.7
158.922
158.897
158.593
157.996
157.121
156.129
155.182
155.687
142.02
142.118
142.349
142.698
143.149
143.692
144.32
145.024
145.797
146.627
147.502
148.41
149.336
150.262
151.171
152.04
152.845
153.559
154.15
154.582
154.812
154.789
154.451
153.719
152.496
150.667
148.104
144.803
140.856
138.822
141.381
141.471
141.68
141.998
142.407
142.897
143.461
144.091
144.776
145.506
146.268
147.047
147.829
148.594
149.322
149.989
150.567
151.023
151.319
151.409
151.236
150.726
149.781
148.266
145.987
142.655
137.812
130.797
120.338
108.12
1.24675
1.22871
1.16466
1.0756
0.982239
0.894406
0.815036
0.744238
0.681199
0.624789
0.573771
0.52693
0.483169
0.441555
0.401341
0.361988
0.323198
0.284945
0.247493
0.211348
0.177129
0.145381
0.116409
0.0901927
0.0671364
0.0472546
0.0307886
0.017875
0.00840375
0.00095404
1.20127
1.1803
1.11982
1.03778
0.951969
0.870763
0.796789
0.730264
0.670555
0.616713
0.56766
0.522315
0.47968
0.438888
0.399234
0.360207
0.321532
0.28322
0.245595
0.209254
0.174909
0.143163
0.114347
0.088625
0.065718
0.0458692
0.029526
0.0168692
0.00801051
0.00246839
1.1518
1.12632
1.06795
0.992538
0.914833
0.841115
0.77344
0.712012
0.656349
0.605675
0.559082
0.515633
0.474443
0.434726
0.395832
0.357282
0.318829
0.280523
0.242764
0.206262
0.171858
0.140228
0.111665
0.086101
0.0632697
0.0432703
0.0266472
0.0144968
0.00688813
0.00302973
1.10523
1.07528
1.01834
0.948632
0.878405
0.811678
0.749972
0.693427
0.641679
0.594111
0.549962
0.508423
0.468714
0.430129
0.392071
0.3541
0.315989
0.277815
0.240032
0.203441
0.168995
0.137456
0.109113
0.0837777
0.0611288
0.0412095
0.0246776
0.0125514
0.00509042
0.00145025
1.07469
1.04044
0.985
0.919502
0.854752
0.792838
0.735089
0.681708
0.632473
0.586888
0.544287
0.50395
0.465168
0.427293
0.389773
0.3522
0.314365
0.276361
0.238663
0.202107
0.16769
0.136219
0.108016
0.0829199
0.0605913
0.0409748
0.0246471
0.0128348
0.00576627
0.00139337
1.07151
1.03199
0.977463
0.913316
0.850466
0.789916
0.732982
0.680072
0.631167
0.585811
0.543367
0.503134
0.464422
0.426604
0.389152
0.351677
0.313989
0.276185
0.238722
0.202392
0.168128
0.136698
0.108455
0.0833092
0.0610286
0.0416102
0.025675
0.0137202
0.00587054
0.00131119
1.10511
1.05814
1.0007
0.932917
0.86625
0.802472
0.742759
0.68753
0.636723
0.589826
0.546133
0.504903
0.46542
0.427038
0.389227
0.351612
0.314025
0.276553
0.239579
0.203758
0.169867
0.138571
0.110257
0.0849679
0.0626375
0.0431863
0.026752
0.0140843
0.00549253
0.0010524
1.18055
1.12186
1.05279
0.973781
0.897144
0.825395
0.759493
0.699467
0.64499
0.595335
0.549572
0.506796
0.466182
0.427006
0.38869
0.350877
0.313454
0.276515
0.240332
0.205358
0.17214
0.141157
0.112801
0.0872264
0.0644413
0.0446639
0.0279959
0.0144321
0.00478429
0.000777414
1.29596
1.21353
1.12252
1.02404
0.932052
0.849633
0.77643
0.710864
0.651955
0.599048
0.550958
0.506567
0.464895
0.425064
0.38638
0.348493
0.311427
0.275364
0.240455
0.206843
0.174671
0.144037
0.115223
0.0889707
0.0658761
0.04601
0.0290076
0.0145003
0.00395083
0.000493771
1.42745
1.30988
1.19179
1.07329
0.963325
0.866426
0.783318
0.712599
0.651475
0.5973
0.548325
0.503301
0.461246
0.421206
0.382364
0.344391
0.307585
0.272523
0.239395
0.207729
0.176857
0.146608
0.117515
0.0906009
0.066961
0.046884
0.0295672
0.0142428
0.00303704
0.000222294
1.52592
1.38415
1.23601
1.09457
0.971513
0.867207
0.779467
0.705863
0.643551
0.589263
0.540434
0.495618
0.45396
0.414431
0.375924
0.338085
0.3017
0.267942
0.237096
0.208054
0.179144
0.149497
0.119729
0.0916468
0.0671828
0.0469229
0.0295533
0.0137723
0.00221083
-9.95989e-06
1.60332
1.41219
1.23594
1.07615
0.944096
0.837977
0.751956
0.681388
0.622731
0.57191
0.525491
0.482223
0.442031
0.404018
0.366478
0.328835
0.292743
0.260635
0.233109
0.207947
0.181829
0.152865
0.121853
0.0918025
0.0660415
0.0457115
0.0288133
0.013147
0.00155287
-0.000176168
1.57802
1.32112
1.13059
0.978548
0.86029
0.769407
0.696575
0.636581
0.587616
0.545028
0.503703
0.463043
0.425219
0.38998
0.35425
0.316585
0.280055
0.249614
0.226784
0.20749
0.185488
0.157262
0.124037
0.0907402
0.0629484
0.0427946
0.0272549
0.0124896
0.00114221
-0.000255252
1.28387
0.979527
0.856184
0.775657
0.704799
0.654546
0.611803
0.570815
0.537864
0.509458
0.476075
0.438013
0.40298
0.372487
0.340212
0.302074
0.263363
0.233981
0.217665
0.207253
0.191307
0.163706
0.126631
0.0880597
0.0570884
0.0375555
0.024827
0.0120446
0.00108248
-0.000230835
0.551576
0.202536
0.320966
0.459048
0.474831
0.502331
0.511063
0.488888
0.472594
0.467275
0.446844
0.409401
0.375866
0.352617
0.326392
0.286253
0.241231
0.210827
0.203729
0.207384
0.20067
0.173438
0.130007
0.0831257
0.047239
0.0290714
0.0215252
0.0122856
0.0015223
-9.52712e-05
140.701
140.782
140.971
141.255
141.62
142.055
142.553
143.105
143.7
144.327
144.972
145.62
146.254
146.853
147.396
147.855
148.199
148.39
148.384
148.124
147.537
146.529
144.964
142.651
139.288
134.382
127.011
115.261
93.1036
33.3234
139.974
140.046
140.212
140.461
140.78
141.158
141.587
142.058
142.56
143.08
143.605
144.117
144.599
145.029
145.382
145.629
145.735
145.658
145.348
144.738
143.745
142.254
140.109
137.076
132.798
126.691
117.722
104.158
84.633
56.1762
139.205
139.266
139.409
139.623
139.894
140.213
140.572
140.96
141.366
141.778
142.179
142.554
142.882
143.141
143.303
143.339
143.209
142.87
142.264
141.321
139.951
138.031
135.398
131.822
126.977
120.408
111.525
99.6892
85.4511
68.824
138.394
138.445
138.564
138.741
138.964
139.223
139.51
139.814
140.123
140.425
140.703
140.94
141.115
141.203
141.179
141.007
140.65
140.059
139.177
137.931
136.23
133.957
130.959
127.04
121.953
115.406
107.101
96.7056
84.1579
69.0186
137.544
137.585
137.68
137.819
137.993
138.191
138.405
138.625
138.837
139.029
139.185
139.285
139.309
139.232
139.025
138.656
138.083
137.26
136.128
134.618
132.644
130.099
126.854
122.753
117.616
111.242
103.432
93.9436
82.6081
69.6329
136.658
136.688
136.758
136.86
136.984
137.121
137.263
137.398
137.514
137.598
137.632
137.599
137.477
137.24
136.861
136.306
135.535
134.502
133.153
131.423
129.234
126.496
123.103
118.936
113.866
107.757
100.487
91.9564
82.156
71.4987
135.737
135.756
135.802
135.866
135.94
136.017
136.087
136.139
136.161
136.138
136.056
135.894
135.631
135.244
134.704
133.978
133.029
131.813
130.281
128.374
126.028
123.166
119.708
115.566
110.653
104.89
98.2234
90.6411
82.187
73.1968
134.784
134.794
134.814
134.841
134.867
134.884
134.883
134.854
134.784
134.659
134.464
134.179
133.785
133.257
132.569
131.69
130.584
129.214
127.533
125.494
123.041
120.116
116.658
112.609
107.913
102.533
96.454
89.6957
82.3085
74.5645
133.805
133.804
133.801
133.791
133.769
133.727
133.658
133.55
133.391
133.169
132.866
132.467
131.95
131.294
130.473
129.459
128.22
126.722
124.927
122.794
120.279
117.34
113.933
110.021
105.573
100.577
95.0372
88.9884
82.4843
75.7522
132.802
132.791
132.764
132.718
132.65
132.552
132.417
132.233
131.991
131.676
131.273
130.767
130.139
129.367
128.428
127.298
125.949
124.35
122.471
120.279
117.741
114.826
111.505
107.756
103.568
98.9405
93.8916
88.4607
82.7008
76.7969
131.78
131.759
131.71
131.63
131.517
131.365
131.167
130.912
130.59
130.188
129.694
129.09
128.361
127.487
126.447
125.22
123.782
122.108
120.172
117.951
115.419
112.556
109.344
105.774
101.844
97.5635
92.9561
88.0611
82.9265
77.7008
130.744
130.714
130.643
130.53
130.375
130.172
129.914
129.592
129.196
128.716
128.137
127.446
126.628
125.665
124.54
123.233
121.726
119.999
118.031
115.804
113.302
110.511
107.424
104.037
100.356
96.3954
92.1811
87.749
83.141
78.4763
129.699
129.661
129.569
129.425
129.23
128.979
128.666
128.282
127.819
127.265
126.611
125.843
124.947
123.908
122.713
121.344
119.787
118.025
116.044
113.832
111.377
108.672
105.715
102.509
99.064
95.3959
91.5294
87.4971
83.3348
79.1386
128.652
128.605
128.494
128.321
128.089
127.793
127.429
126.989
126.464
125.846
125.124
124.288
123.326
122.225
120.973
119.558
117.966
116.187
114.209
112.025
109.629
107.018
104.194
101.164
97.9373
94.533
90.9734
87.2868
83.5035
79.7014
127.608
127.553
127.425
127.225
126.958
126.622
126.211
125.719
125.139
124.464
123.683
122.789
121.772
120.62
119.325
117.876
116.264
114.481
112.519
110.375
108.046
105.532
102.839
99.9739
96.9493
93.7819
90.4923
87.105
83.6454
80.1768
126.573
126.512
126.367
126.143
125.844
125.471
125.018
124.48
123.852
123.126
122.296
121.353
120.29
119.099
117.772
116.301
114.68
112.903
110.968
108.871
106.613
104.197
101.63
98.9194
96.0786
93.1229
90.0706
86.9427
83.7605
80.5757
125.555
125.487
125.327
125.081
124.754
124.348
123.857
123.279
122.609
121.84
120.967
119.984
118.885
117.664
116.315
114.832
113.212
111.451
109.548
107.503
105.318
102.998
100.55
97.9823
95.3079
92.5407
89.6968
86.794
83.8502
80.908
124.56
124.487
124.313
124.047
123.695
123.259
122.736
122.123
121.416
120.611
119.703
118.688
117.561
116.319
114.956
113.469
111.857
110.118
108.252
106.261
104.149
101.921
99.5842
97.148
94.6235
92.0236
89.3623
86.655
83.9167
81.1825
123.596
123.517
123.332
123.048
122.674
122.212
121.661
121.018
120.28
119.444
118.508
117.468
116.321
115.064
113.695
112.211
110.613
108.9
107.074
105.138
103.097
100.955
98.7217
96.4045
94.0142
91.5623
89.061
86.5234
83.9624
81.407
122.669
122.586
122.391
122.091
121.698
121.214
120.638
119.97
119.206
118.346
117.388
116.329
115.168
113.903
112.532
111.057
109.476
107.793
106.008
104.126
102.152
100.091
97.9519
95.7422
93.4715
91.15
88.7885
86.3983
83.9903
81.5887
121.788
121.701
121.497
121.184
120.774
120.271
119.675
118.985
118.201
117.322
116.346
115.274
114.104
112.835
111.469
110.005
108.445
106.791
105.047
103.217
101.306
99.3205
97.2668
95.1533
92.9885
90.7815
88.5419
86.2793
84.0034
81.7339
120.961
120.87
120.657
120.333
119.909
119.39
118.777
118.07
117.269
116.375
115.387
114.306
113.131
111.863
110.503
109.053
107.516
105.893
104.188
102.407
100.555
98.6367
96.66
94.6319
92.5603
90.4534
88.3195
86.1672
84.0047
81.8487
120.194
120.1
119.881
119.546
119.11
118.578
117.951
117.231
116.417
115.512
114.515
113.428
112.252
110.987
109.637
108.202
106.687
105.094
103.427
101.691
99.8917
98.0346
96.1262
94.1733
92.1831
90.1629
88.1203
86.0626
83.9972
81.938
119.497
119.4
119.175
118.832
118.386
117.843
117.205
116.473
115.65
114.736
113.734
112.644
111.469
110.21
108.87
107.451
105.958
104.393
102.76
101.066
99.3141
97.511
95.6625
93.775
91.855
89.9094
87.9447
85.9677
83.9848
82.0077
118.878
118.779
118.548
118.197
117.742
117.19
116.543
115.803
114.973
114.053
113.047
111.957
110.784
109.532
108.203
106.8
105.327
103.787
102.186
100.528
98.8183
97.062
95.2651
93.4335
91.5734
89.6908
87.7919
85.8825
83.9686
82.06
118.346
118.244
118.007
117.65
117.187
116.628
115.975
115.228
114.393
113.469
112.462
111.372
110.203
108.958
107.639
106.251
104.796
103.28
101.706
100.08
98.4054
96.6889
94.9355
93.1509
91.3406
89.5105
87.666
85.8127
83.9559
82.104
117.911
117.806
117.562
117.196
116.727
116.162
115.503
114.752
113.912
112.987
111.979
110.891
109.726
108.487
107.178
105.802
104.364
102.867
101.316
99.7156
98.0708
96.3867
94.6686
92.9218
91.1516
89.3633
87.5621
85.7531
83.9412
82.1333
117.585
117.474
117.221
116.849
116.375
115.805
115.142
114.387
113.545
112.618
111.61
110.524
109.363
108.13
106.83
105.464
104.039
102.558
101.025
99.4454
97.8238
96.1652
94.4746
92.7572
91.0181
89.2623
87.4948
85.7203
83.9437
82.1708
117.383
117.248
116.978
116.6
116.124
115.552
114.886
114.129
113.286
112.359
111.352
110.268
109.111
107.882
106.588
105.23
103.814
102.344
100.824
99.2585
97.6527
96.0112
94.3391
92.6413
90.9227
89.1882
87.4426
85.6903
83.9358
82.1841
117.365
117.166
116.868
116.483
116.004
115.429
114.76
114.002
113.157
112.231
111.225
110.142
108.987
107.763
106.473
105.121
103.711
102.249
100.737
99.1812
97.5857
95.9554
94.2951
92.6096
90.9039
89.1826
87.4504
85.7117
83.9709
82.2322
-50.5403
-30.3142
-11.0611
35.8299
28.4408
16.519
51.3458
39.2841
28.1088
52.7569
42.3453
34.3162
57.0899
48.8111
42.0638
61.4732
54.5716
48.6871
64.7412
58.8651
53.8208
67.3321
62.311
58.0053
69.5159
65.1864
61.4799
71.3589
67.5822
64.3569
72.9083
69.5795
66.7438
74.2135
71.2521
68.7345
75.315
72.6579
70.4023
76.245
73.8423
71.8048
77.03
74.8419
72.9875
77.6919
75.6861
73.9867
78.2489
76.3989
74.8314
78.7162
77.0001
75.5454
79.1066
77.5058
76.148
79.4314
77.9301
76.6554
79.6999
78.2845
77.0812
79.9208
78.5793
77.4372
80.1008
78.8227
77.7329
80.2479
79.0237
77.978
80.3647
79.1857
78.1772
80.4628
79.3212
78.3427
80.5337
79.422
78.4682
80.6059
79.5169
78.5803
80.6395
79.5668
78.6442
80.7084
79.6498
78.7337
-2.51227
-2.38277
-0.919971
0.206543
0.247276
0.327977
0.390071
0.36988
0.376218
0.427221
0.430916
0.380346
0.33805
0.324876
0.312166
0.269284
0.211804
0.177098
0.184121
0.211118
0.218578
0.190237
0.135814
0.0755138
0.0316368
0.0158083
0.0174016
0.0142334
0.00280539
0.000147088
2.77347
-0.225331
1.24076
0.786335
-0.47701
-0.296621
0.287134
0.342591
0.344309
0.442838
0.431617
0.327082
0.266105
0.288843
0.318492
0.270026
0.182486
0.129537
0.151899
0.216584
0.246127
0.214215
0.141855
0.060936
0.00495431
-0.0061169
0.0122273
0.0199311
0.0057085
0.000451806
13.8642
5.47156
2.67289
0.306888
-0.0805088
1.12262
1.32492
0.181544
-0.234656
0.0916082
0.44825
0.339199
0.239864
0.299115
0.355916
0.266349
0.110826
0.0182811
0.0742307
0.228008
0.305568
0.261221
0.158285
0.045686
-0.0299301
-0.0350915
0.00932355
0.0345966
0.0127239
0.000703749
23.581
13.7164
7.86625
4.10434
2.31932
1.68723
0.579353
-0.105475
0.134065
1.30121
1.30479
0.240358
-0.172341
-0.0499995
0.292067
0.32952
0.0887349
-0.0597345
0.0693516
0.29551
0.40303
0.316303
0.162663
0.00343362
-0.103047
-0.0997708
-0.00870932
0.0591205
0.0272434
0.000370996
32.732
22.9777
15.6662
10.3724
6.72647
4.24686
2.40051
1.37342
1.05659
1.11326
0.643659
0.0807702
-0.0852046
0.50924
1.04345
0.615561
-0.0486629
-0.449371
-0.40367
0.198951
0.540463
0.413762
0.190095
-0.0243584
-0.168
-0.148013
0.0282856
0.135696
0.0654022
-0.00119473
40.6946
31.774
23.8913
17.4623
12.537
8.88964
6.21545
4.33036
3.05935
2.18074
1.4237
0.822464
0.511844
0.618698
0.620226
0.370576
-0.152255
-0.50233
-0.124499
0.818974
0.970689
0.475823
0.14635
-0.132081
-0.3426
-0.363758
-0.0910238
0.194654
0.128054
-0.00714875
47.1911
39.3889
31.6167
24.7296
19.1058
14.6457
11.1239
8.37349
6.28027
4.71134
3.48823
2.50669
1.80588
1.3999
1.087
0.722884
0.227816
-0.0825402
0.114301
0.551517
0.699674
0.489462
0.188482
-0.124772
-0.367466
-0.324139
0.16966
0.465639
0.235112
-0.0199521
52.4821
45.7528
38.4975
31.6699
25.7888
20.8447
16.7064
13.2858
10.5153
8.2984
6.50248
5.03625
3.89054
3.04518
2.38529
1.77181
1.17648
0.773499
0.708034
0.84226
0.877928
0.659911
0.313988
-0.0198938
-0.242739
-0.2136
0.0766474
0.280284
0.285316
-0.0690649
56.7982
50.9823
44.3993
37.9273
32.1108
27.0005
22.5322
18.6707
15.3859
12.6215
10.299
8.35525
6.75789
5.46987
4.41071
3.49149
2.69461
2.0951
1.75529
1.59667
1.41838
1.09389
0.69142
0.327309
0.0868202
0.0457417
0.181845
0.296205
0.231496
-0.305655
60.3202
55.2528
49.3506
43.3665
37.8135
32.7692
28.2049
24.116
20.5037
17.3485
14.6119
12.2533
10.2394
8.5345
7.08566
5.83905
4.77375
3.91163
3.27043
2.79509
2.36185
1.88577
1.39128
0.951049
0.627331
0.460481
0.422481
0.372806
0.146155
-0.522342
63.2124
58.7528
53.4726
48.0045
42.8084
37.9674
33.4687
29.3237
25.553
22.1616
19.1365
16.4567
14.0996
12.0395
10.2431
8.67587
7.31676
6.16383
5.21309
4.42485
3.72481
3.0549
2.41468
1.84265
1.37846
1.04059
0.797667
0.545431
0.150573
-0.600591
65.6077
61.6436
56.9052
51.9259
47.1109
42.5386
38.2021
34.1183
30.3168
26.8157
23.6184
20.7187
18.1062
15.7662
13.679
11.8228
10.1802
8.74109
7.49372
6.40905
5.44054
4.54757
3.71965
2.97294
2.32785
1.78852
1.32423
0.858714
0.29511
-0.53024
67.6055
64.0496
59.7738
55.2342
50.7872
46.5032
42.3759
38.4225
34.6744
31.1562
27.8801
24.8502
22.0654
19.5201
17.2045
15.1061
13.2125
11.5131
9.9953
8.63764
7.4097
6.28298
5.24421
4.29612
3.44515
2.68692
1.99416
1.31199
0.574131
-0.337348
69.281
66.0647
62.1824
58.0289
53.9201
49.918
46.0151
42.226
38.5809
35.1061
31.8185
28.7279
25.8394
23.154
20.6692
18.3792
16.2765
14.353
12.5981
10.9964
9.5276
8.17141
6.91487
5.75358
4.68551
3.70193
2.77993
1.88061
0.960618
-0.0590586
70.692
67.7607
64.2133
60.3958
56.5903
52.8513
49.1696
45.5565
42.0394
38.644
35.3888
32.2865
29.3461
26.573
23.9694
21.5343
19.2646
17.1552
15.1987
13.3845
11.6987
10.127
8.65778
7.28372
5.99845
4.79158
3.64433
2.52923
1.41846
0.263973
71.8836
69.1932
65.9317
62.4056
58.8687
55.3693
51.8965
48.4581
45.0783
41.7811
38.5848
35.5035
32.5479
29.7261
27.0435
24.5025
22.1032
19.8435
17.719
15.7229
13.8458
12.0776
10.4086
8.8307
7.33584
5.91348
4.54825
3.22028
1.91111
0.595757
72.8914
70.4054
67.3889
64.1153
60.8149
57.5307
54.2503
50.9786
47.7363
44.545
41.4224
38.3822
35.4362
32.5939
29.8625
27.2466
24.7489
22.3695
20.1068
17.9568
15.9135
13.9697
12.1175
10.3494
8.6571
7.0305
5.45671
3.92049
2.40813
0.910376
73.744
71.4321
68.626
65.5713
62.4783
59.3857
56.2801
53.1635
50.0534
46.9693
43.927
40.9399
38.0198
35.1766
32.4185
29.7518
27.1806
24.7071
22.3315
20.0522
17.8656
15.7667
13.7494
11.8069
9.93148
8.1137
6.34227
4.60437
2.88793
1.19324
74.4648
72.3015
69.6762
66.8113
63.8998
60.9768
58.0281
55.0535
52.0677
49.0875
46.1274
43.1996
40.3153
37.4846
34.7162
32.0168
29.392
26.8451
24.3779
21.9905
19.6811
17.4463
15.2816
13.1812
11.1377
9.14269
7.1856
5.25463
3.3375
1.4393
75.0732
73.0366
70.5669
67.8663
65.1131
62.3394
59.5306
56.6845
53.8132
50.9314
48.0518
45.1855
42.3428
39.5335
36.7662
34.048
31.3851
28.7817
26.2407
23.7633
21.3491
18.9962
16.701
14.4585
12.2624
10.1043
7.97442
5.86093
3.75055
1.64993
75.5851
73.6566
71.3206
68.762
66.1464
63.5035
60.8183
58.0873
55.3201
52.5295
49.7266
46.9211
44.1227
41.3402
38.5819
35.8552
33.1663
30.52
27.9199
25.3681
22.8651
20.41
18
15.6311
13.2972
10.9906
8.70142
6.41771
4.12492
1.82941
76.0145
74.178
71.9565
69.5202
67.0236
64.4945
61.9179
59.2887
56.615
53.9074
51.1758
48.4287
45.6746
42.9217
40.1777
37.4499
34.7442
32.066
29.4191
26.8061
24.2284
21.6855
19.1755
16.6948
14.2379
11.7972
9.36294
6.92275
4.46103
1.98277
76.3724
74.6138
72.4899
70.1584
67.7641
65.3333
62.8509
60.3111
57.72
55.087
52.4203
49.7276
47.0162
44.2936
41.5669
38.8429
36.1276
33.426
30.7424
28.0796
25.4394
22.8218
20.2254
17.647
15.0813
12.5211
9.9564
7.37456
4.75921
2.11354
76.6697
74.9765
72.9353
70.6927
68.3856
66.0388
63.6374
61.1748
58.6558
56.0884
53.4798
50.8364
48.1648
45.4717
42.7635
40.0465
37.3265
34.6084
31.8963
29.1933
26.5014
23.8209
21.1508
18.488
15.8276
13.1622
10.4821
7.77424
5.02175
2.22553
76.9127
75.2739
73.3016
71.1336
68.8996
66.6235
64.2906
61.8937
59.4364
56.9256
54.3675
51.7678
49.1321
46.4663
43.7763
41.068
38.3466
35.617
32.8832
30.1482
27.4141
24.6814
21.9492
19.2147
16.473
13.717
10.9367
8.11895
5.24664
2.31839
77.1131
75.5184
73.6029
71.4961
69.3222
67.1045
64.8283
62.4859
60.0802
57.617
55.1018
52.5394
49.9349
47.2934
44.6204
41.9211
39.2005
36.4632
33.713
30.9529
28.185
25.4098
22.6265
19.8325
17.0229
14.1905
11.3253
8.41408
5.43957
2.39727
77.2678
75.7079
73.8371
71.779
69.6529
67.4816
65.2507
62.952
60.5876
58.1629
55.6825
53.1507
50.5719
47.9509
45.2924
42.6015
39.8827
37.1403
34.378
31.5987
28.8044
25.9956
23.1717
20.3298
17.4653
14.5709
11.6365
8.64881
5.59063
2.45518
77.3989
75.8647
74.028
72.0067
69.9168
67.7805
65.5839
63.3184
60.9856
58.5902
56.1365
53.6283
51.0695
48.4644
45.8176
43.1335
40.4166
37.6709
34.8999
32.1064
29.2923
26.4582
23.6033
20.7249
17.8182
14.8759
11.8878
8.84032
5.71616
2.50471
77.4795
75.9614
74.1471
72.1508
70.0853
67.9725
65.7988
63.5556
61.2439
58.8683
56.4326
53.9402
51.395
48.8008
46.162
43.4827
40.7673
38.0196
35.243
32.4402
29.613
26.7619
23.8862
20.9832
18.0478
15.0728
12.0478
8.95878
5.78847
2.52458
77.5683
76.0513
74.2492
72.2679
70.2161
68.1159
65.9543
63.7228
61.4222
59.0567
56.63
54.1455
51.6067
49.0174
46.3819
43.7042
40.9886
38.2387
35.4579
32.649
29.8137
26.9526
24.0648
21.1476
18.1961
15.2027
12.1568
9.04347
5.84289
2.5311
)
;

boundaryField
{
    inlet
    {
        type            zeroGradient;
    }
    outlet
    {
        type            fixedValue;
        value           uniform 0;
    }
    flap
    {
        type            zeroGradient;
    }
    upperWall
    {
        type            zeroGradient;
    }
    lowerWall
    {
        type            zeroGradient;
    }
    frontAndBack
    {
        type            empty;
    }
}


// ************************************************************************* //
