/*--------------------------------*- C++ -*----------------------------------*\
  =========                 |
  \\      /  F ield         | OpenFOAM: The Open Source CFD Toolbox
   \\    /   O peration     | Website:  https://openfoam.org
    \\  /    A nd           | Version:  7
     \\/     M anipulation  |
\*---------------------------------------------------------------------------*/
FoamFile
{
    version     2.0;
    format      ascii;
    class       surfaceScalarField;
    location    "4.8";
    object      phi;
}
// * * * * * * * * * * * * * * * * * * * * * * * * * * * * * * * * * * * * * //

dimensions      [0 3 -1 0 0 0 0];

internalField   nonuniform List<scalar> 
5457
(
0.198418
0.00158237
0.19648
0.00193735
0.194192
0.00228805
0.191509
0.00268354
0.188428
0.00308114
0.184951
0.0034767
0.181072
0.00387849
0.176778
0.00429392
0.17205
0.00472811
0.166865
0.0051851
0.161197
0.00566837
0.155016
0.00618088
0.148291
0.0067248
0.14099
0.00730116
0.133081
0.00790932
0.124534
0.00854626
0.115329
0.0092057
0.105452
0.009877
0.0949078
0.0105439
0.0837245
0.0111834
0.07196
0.0117645
0.0597117
0.0122482
0.047123
0.0125887
0.0343828
0.0127402
0.0216876
0.0126951
0.0090374
0.0126502
-0.00291637
0.0119538
-0.0084723
0.00555593
-0.00804311
-0.00042919
-0.00804311
0.199928
0.0016542
0.199176
0.00268977
0.197965
0.00349896
0.196332
0.00431668
0.194272
0.00514114
0.191782
0.0059667
0.188855
0.0068054
0.185478
0.00767069
0.181633
0.00857292
0.177298
0.00952039
0.172446
0.0105204
0.167048
0.0115791
0.161071
0.0127014
0.154482
0.0138899
0.147247
0.0151442
0.139335
0.0164592
0.130717
0.0178234
0.121377
0.019217
0.111312
0.0206086
0.100542
0.0219531
0.0891181
0.0231889
0.0771305
0.0242358
0.0647245
0.0249947
0.052117
0.0253478
0.0396565
0.0251556
0.0281063
0.0242005
0.0185956
0.0214644
0.00879771
0.0153538
0.00118375
0.00718477
-0.00685935
0.199781
0.00187363
0.199087
0.00338359
0.197946
0.00463986
0.196409
0.00585326
0.194483
0.00706723
0.192164
0.0082857
0.189447
0.00952276
0.186321
0.0107961
0.182774
0.0121207
0.178785
0.0135092
0.174333
0.0149724
0.169392
0.01652
0.163933
0.0181598
0.157926
0.019897
0.151338
0.0217323
0.144137
0.0236608
0.136291
0.0256687
0.127778
0.0277307
0.118581
0.0298053
0.108703
0.0318309
0.0981715
0.0337206
0.0870492
0.0353581
0.0754525
0.0365914
0.0635753
0.037225
0.0517333
0.0369975
0.0403979
0.0355359
0.0297395
0.0321228
0.0191664
0.0259269
0.00959786
0.0167533
0.00273851
0.199703
0.00217056
0.199008
0.00407889
0.197887
0.00576036
0.196376
0.00736413
0.194488
0.0089553
0.192222
0.0105516
0.189575
0.0121704
0.186539
0.013832
0.183104
0.0155551
0.179258
0.0173555
0.174983
0.0192473
0.170261
0.0212425
0.165069
0.0233514
0.159385
0.025581
0.153184
0.0279339
0.146438
0.0304058
0.139124
0.032983
0.131217
0.0356379
0.122698
0.0383244
0.113557
0.0409716
0.1038
0.0434775
0.0934579
0.0457006
0.0825966
0.0474526
0.0713338
0.0484878
0.0598418
0.0484896
0.0483176
0.0470601
0.0368115
0.0436289
0.0251882
0.0375502
0.0133357
0.0286058
0.0160742
0.199667
0.00250314
0.198964
0.00478213
0.197863
0.00686166
0.196381
0.00884578
0.194532
0.010804
0.192318
0.0127662
0.189734
0.0147541
0.186776
0.0167905
0.183434
0.0188967
0.179698
0.0210912
0.175556
0.0233901
0.170991
0.0258075
0.165987
0.0283551
0.160527
0.0310411
0.154591
0.0338693
0.148161
0.0368362
0.141215
0.0399286
0.133734
0.0431192
0.125697
0.0463611
0.117088
0.0495809
0.107895
0.0526709
0.0981156
0.0554796
0.0877656
0.0578026
0.0768795
0.0593739
0.0655094
0.0598597
0.0537086
0.058861
0.0414544
0.0558831
0.028588
0.0504166
0.0148525
0.0423413
0.0309267
0.199653
0.00285033
0.198949
0.00548618
0.197871
0.00793958
0.196427
0.0102899
0.194627
0.012604
0.192473
0.0149197
0.189964
0.0172637
0.187093
0.0196613
0.183854
0.0221359
0.180237
0.0247083
0.17623
0.0273965
0.171822
0.030216
0.166997
0.0331797
0.161741
0.0362969
0.156038
0.039572
0.149872
0.0430027
0.143224
0.0465767
0.136074
0.0502685
0.128402
0.0540333
0.120183
0.0578005
0.111388
0.0614652
0.10199
0.0648784
0.0919555
0.0678368
0.0812546
0.0700748
0.0698547
0.0712596
0.0577172
0.0709984
0.0447609
0.0688394
0.0308493
0.0643282
0.0158732
0.0573174
0.0467999
0.19965
0.00320027
0.198954
0.00618216
0.197904
0.00898919
0.196505
0.0116896
0.194763
0.0143462
0.192681
0.0170017
0.190257
0.0196873
0.187487
0.0224309
0.184365
0.0252579
0.180883
0.0281912
0.177029
0.0312504
0.172792
0.0344525
0.16816
0.0378117
0.163119
0.0413384
0.157653
0.0450382
0.151745
0.0489101
0.145378
0.0529442
0.138529
0.0571179
0.13117
0.0613914
0.12327
0.0657012
0.114783
0.0699519
0.105655
0.0740062
0.0958172
0.0776747
0.0851866
0.0807054
0.0736686
0.0827776
0.0611617
0.0835053
0.0475554
0.0824457
0.0327587
0.0791249
0.0167829
0.0732932
0.0635828
0.199655
0.00354562
0.198975
0.00686226
0.197959
0.0100049
0.19661
0.0130383
0.194934
0.0160222
0.192934
0.0190022
0.190608
0.0220133
0.187952
0.025086
0.184962
0.0282478
0.18163
0.0315232
0.177947
0.0349337
0.173902
0.0384978
0.169482
0.0422311
0.164675
0.0461457
0.159464
0.0502489
0.153832
0.0545423
0.147757
0.0590193
0.141212
0.0636625
0.134164
0.0684396
0.126568
0.0732979
0.118362
0.078157
0.10947
0.082899
0.0997869
0.0873574
0.0891876
0.0913046
0.0775254
0.0944399
0.0646475
0.0963832
0.0504175
0.0966758
0.0347682
0.0947743
0.0177898
0.0902715
0.0813726
0.199664
0.00388144
0.199006
0.00752006
0.19803
0.0109812
0.196739
0.0143297
0.195137
0.0176242
0.193227
0.020912
0.191009
0.0242311
0.188481
0.0276146
0.185637
0.0310917
0.182471
0.0346888
0.178976
0.038429
0.175141
0.0423326
0.170955
0.0464169
0.166405
0.050696
0.161474
0.0551798
0.156143
0.0598735
0.150387
0.0647754
0.144174
0.0698753
0.137462
0.075151
0.130196
0.0805643
0.122298
0.0860546
0.113667
0.0915301
0.104169
0.0968559
0.0936342
0.101839
0.0818649
0.106209
0.0686495
0.109599
0.053802
0.111523
0.0372365
0.11134
0.0190834
0.108425
0.100456
0.199677
0.00420422
0.199047
0.0081503
0.198116
0.0119125
0.196887
0.015558
0.195367
0.0191451
0.193556
0.0227226
0.191456
0.0263309
0.189065
0.0300053
0.18638
0.0337769
0.183395
0.0376736
0.180104
0.0417202
0.176498
0.0459387
0.172567
0.0503484
0.168297
0.054966
0.163672
0.0598045
0.158672
0.0648736
0.153269
0.0701779
0.147429
0.075716
0.141101
0.0814786
0.134221
0.0874449
0.126696
0.0935789
0.118405
0.099821
0.109184
0.106078
0.0988196
0.112203
0.0870527
0.117976
0.0735899
0.123061
0.0581485
0.126965
0.0405519
0.128936
0.0209013
0.128075
0.121357
0.199693
0.00451129
0.199095
0.00874868
0.198213
0.0127941
0.197053
0.0167177
0.19562
0.0205785
0.193916
0.0244264
0.191943
0.0283039
0.1897
0.0322482
0.187185
0.0362919
0.184394
0.0404645
0.181322
0.0447923
0.177962
0.0492991
0.174304
0.0540063
0.170337
0.0589331
0.166045
0.0640965
0.161408
0.0695108
0.156398
0.0751881
0.150977
0.0811369
0.145093
0.0873624
0.138674
0.093864
0.131619
0.100634
0.12379
0.10765
0.114996
0.114871
0.104983
0.122216
0.0934191
0.12954
0.0798981
0.136582
0.063968
0.142895
0.0452348
0.147669
0.0236116
0.149698
0.144969
0.199711
0.0048006
0.199148
0.00931169
0.19832
0.0136217
0.197234
0.0178039
0.195894
0.0219186
0.194303
0.0260167
0.192465
0.0301424
0.190379
0.0343343
0.188044
0.0386266
0.185459
0.04305
0.182619
0.0476322
0.179519
0.0523987
0.176152
0.0573729
0.172509
0.0625766
0.168575
0.0680303
0.164332
0.0737539
0.159754
0.0797664
0.154803
0.0860872
0.14943
0.092736
0.14356
0.0997337
0.137091
0.107102
0.129878
0.114863
0.121716
0.123034
0.112315
0.131618
0.101273
0.140581
0.0880454
0.14981
0.0719231
0.159017
0.0520863
0.167506
0.0278856
0.173899
0.172855
0.19973
0.00507053
0.199205
0.00983647
0.198435
0.0143917
0.197427
0.0188126
0.196185
0.0231606
0.194713
0.0274879
0.193016
0.0318398
0.191094
0.0362562
0.188948
0.0407724
0.186578
0.0454203
0.183981
0.0502287
0.181156
0.0552245
0.178096
0.0604328
0.174795
0.0658777
0.171242
0.0715833
0.167422
0.0775739
0.163313
0.0838755
0.158883
0.0905172
0.154086
0.0975327
0.148857
0.104963
0.143101
0.112858
0.13668
0.121284
0.129393
0.130321
0.120942
0.140068
0.110883
0.15064
0.0985434
0.16215
0.0829014
0.174659
0.0624358
0.187972
0.0351248
0.20121
0.207979
0.199751
0.00531983
0.199266
0.0103207
0.198557
0.0151011
0.197629
0.0197401
0.19649
0.0243005
0.195142
0.0288352
0.193591
0.0333906
0.19184
0.0380076
0.18989
0.0427224
0.187743
0.0475675
0.185399
0.0525727
0.182858
0.0577658
0.180117
0.0631732
0.177174
0.0688211
0.174021
0.0747359
0.170649
0.0809459
0.167042
0.0874825
0.163177
0.0943826
0.159018
0.101691
0.154516
0.109465
0.149594
0.11778
0.144142
0.126736
0.137992
0.136471
0.130886
0.147175
0.122407
0.159119
0.111861
0.172696
0.0980177
0.188502
0.0785372
0.207452
0.0486638
0.231084
0.256643
0.199772
0.00554753
0.19933
0.0107626
0.198684
0.0157476
0.19784
0.0205837
0.196806
0.0253349
0.195586
0.0300549
0.194186
0.0347907
0.19261
0.0395839
0.190861
0.0444712
0.188943
0.0494855
0.186859
0.0546572
0.18461
0.0600145
0.182198
0.0655847
0.179624
0.071395
0.176887
0.0774735
0.173982
0.0838509
0.170902
0.090562
0.167637
0.0976486
0.164165
0.105163
0.160459
0.113171
0.156474
0.121765
0.152145
0.131065
0.147371
0.141244
0.141995
0.152552
0.135751
0.165363
0.128171
0.180277
0.118312
0.198361
0.103923
0.221841
0.0776904
0.257316
0.334334
0.00369586
-0.00369586
0.00724793
-0.00355207
0.0101991
-0.00295114
0.0125468
-0.00234772
0.0143885
-0.00184173
0.0158274
-0.00143891
0.0169529
-0.00112544
0.0178385
-0.0008856
0.0185436
-0.000705137
0.0191157
-0.0005721
0.0195925
-0.000476807
0.0200039
-0.000411389
0.020373
-0.000369093
0.0207166
-0.000343573
0.0210449
-0.000328352
0.0213615
-0.000316577
0.0216628
-0.000301244
0.0219389
-0.00027611
0.0221761
-0.000237257
0.0223608
-0.00018465
0.0224832
-0.000122456
0.0225407
-5.74908e-05
0.0225393
1.40225e-06
0.0224761
6.32649e-05
0.0223496
0.000126468
0.0221512
0.000198418
0.02188
0.00027118
0.0215503
0.000329682
0.0212099
0.000340434
0.000241404
0.00339355
-0.00708941
0.00667318
-0.00683171
0.00944544
-0.00572339
0.0117164
-0.00461866
0.0135779
-0.00370322
0.01512
-0.00298103
0.0164174
-0.00242283
0.0175285
-0.0019967
0.0184986
-0.00167529
0.0193632
-0.00143664
0.0201497
-0.00126332
0.0208797
-0.00114145
0.0215701
-0.00105947
0.0222335
-0.00100697
0.0228789
-0.000973797
0.0235117
-0.000949373
0.0241332
-0.000922751
0.0247408
-0.000883669
0.0253285
-0.000824943
0.0258891
-0.000745298
0.0264172
-0.000650473
0.0269099
-0.000550242
0.0273624
-0.000451108
0.0277744
-0.000348764
0.0281389
-0.000238029
0.0284438
-0.000106443
0.0286731
4.18791e-05
0.0288311
0.000171674
0.0289563
0.000215277
0.000163886
0.00283792
-0.00992733
0.00547443
-0.00946822
0.00765094
-0.00789989
0.00941422
-0.00638194
0.0108574
-0.00514637
0.0120573
-0.00418095
0.013075
-0.00344049
0.0139543
-0.002876
0.0147279
-0.00244896
0.0154213
-0.00213001
0.0160542
-0.00189627
0.0166425
-0.00172965
0.0171983
-0.00161528
0.0177313
-0.00154004
0.018249
-0.00149142
0.0187562
-0.00145658
0.0192553
-0.00142192
0.0197457
-0.00137401
0.0202233
-0.00130257
0.0206826
-0.0012046
0.0211191
-0.00108694
0.0215322
-0.00096337
0.0219266
-0.000845484
0.0223109
-0.000733076
0.0226896
-0.000616733
0.0230655
-0.000482352
0.0234331
-0.000325756
0.0237703
-0.000165538
0.0240403
-5.46368e-05
-4.89239e-06
0.00222487
-0.0121522
0.00410695
-0.0113503
0.00556734
-0.00936029
0.00671189
-0.00752649
0.00763152
-0.00606599
0.00838432
-0.00493375
0.00901647
-0.00407264
0.00955494
-0.00341447
0.0100191
-0.00291314
0.0104242
-0.00253513
0.0107825
-0.00225454
0.0111038
-0.00205098
0.0113963
-0.00190775
0.0116667
-0.0018104
0.0119208
-0.00174558
0.012164
-0.00169978
0.0124004
-0.00165824
0.0126316
-0.00160529
0.0128565
-0.00152741
0.0130701
-0.00141824
0.0132665
-0.00128335
0.0134425
-0.00113933
0.0136009
-0.00100394
0.013751
-0.000883145
0.0139022
-0.000767892
0.0140581
-0.000638267
0.0142111
-0.000478736
0.0143439
-0.000298333
0.0144112
-0.000121986
-3.90856e-05
0.00151267
-0.0136649
0.00256104
-0.0123987
0.00324248
-0.0100417
0.00370724
-0.00799125
0.00403953
-0.00639828
0.00427134
-0.00516556
0.00443777
-0.00423907
0.00454919
-0.00352589
0.00461491
-0.00297886
0.00464304
-0.00256326
0.00464015
-0.00225165
0.00461175
-0.00202258
0.00456263
-0.00185864
0.00449742
-0.00174518
0.00442111
-0.00166928
0.00433944
-0.00161811
0.00425837
-0.00157717
0.00418271
-0.00152963
0.00411394
-0.00145864
0.00404825
-0.00135254
0.00397553
-0.00121064
0.00388172
-0.00104552
0.00375532
-0.000877535
0.00359331
-0.000721137
0.00340225
-0.000576829
0.00320035
-0.000436367
0.00299654
-0.000274928
0.00277142
-7.32174e-05
0.00255434
9.50921e-05
8.96191e-05
0.000693194
-0.0143581
0.00083929
-0.0125448
0.000702926
-0.00990537
0.000460691
-0.00774902
0.000141618
-0.0060792
-0.000206017
-0.00481793
-0.000578149
-0.00386693
-0.000965366
-0.00313867
-0.00136109
-0.00258313
-0.00175966
-0.0021647
-0.0021571
-0.00185421
-0.00255034
-0.00162934
-0.00293658
-0.0014724
-0.00331304
-0.00136872
-0.00367644
-0.00130588
-0.00402259
-0.00127196
-0.00434677
-0.00125299
-0.00464525
-0.00123115
-0.00491689
-0.001187
-0.00516398
-0.00110545
-0.00539235
-0.000982272
-0.00561114
-0.000826728
-0.0058311
-0.000657569
-0.00606057
-0.000491665
-0.00630267
-0.000334729
-0.00656398
-0.000175057
-0.00684217
3.25352e-06
-0.00707984
0.000164453
-0.00723018
0.000245437
0.000216682
-0.000265961
-0.0140921
-0.0010406
-0.0117701
-0.00199143
-0.00895454
-0.00299476
-0.00674569
-0.00399715
-0.00507682
-0.0049614
-0.00385368
-0.00587687
-0.00295145
-0.00673604
-0.0022795
-0.00753417
-0.00178501
-0.00826995
-0.00142892
-0.00894504
-0.00117911
-0.00956319
-0.00101119
-0.0101293
-0.000906267
-0.0106487
-0.000849334
-0.0111259
-0.000828659
-0.0115638
-0.000834077
-0.0119636
-0.0008532
-0.0123268
-0.000867932
-0.012657
-0.000856805
-0.0129605
-0.000801928
-0.0132459
-0.000696885
-0.0135227
-0.000549951
-0.013799
-0.000381243
-0.0140809
-0.000209768
-0.0143711
-4.45132e-05
-0.0146487
0.000102503
-0.0148784
0.000232967
-0.0150583
0.000344385
-0.0152062
0.000393287
0.000357078
-0.00128683
-0.0128053
-0.00306138
-0.00999558
-0.00485611
-0.00715981
-0.00660636
-0.00499544
-0.00825208
-0.00343109
-0.00975551
-0.00235025
-0.0110972
-0.00160975
-0.012282
-0.00109473
-0.0133235
-0.000743502
-0.0142401
-0.000512342
-0.0150503
-0.000368865
-0.0157708
-0.000290678
-0.016416
-0.00026112
-0.0169983
-0.00026697
-0.0175282
-0.000298756
-0.0180124
-0.000349918
-0.0184537
-0.000411885
-0.0188547
-0.000466945
-0.0192203
-0.00049116
-0.0195592
-0.000463083
-0.0198817
-0.00037437
-0.0201981
-0.000233574
-0.0205158
-6.35041e-05
-0.0208244
9.88365e-05
-0.0210983
0.000229316
-0.021332
0.000336242
-0.021537
0.000437969
-0.0217148
0.000522203
-0.021871
0.00054948
0.000518142
-0.00247965
-0.0103256
-0.00536635
-0.00710888
-0.00806234
-0.00446381
-0.0105116
-0.00254621
-0.0126924
-0.00125028
-0.0146204
-0.000422221
-0.0162956
6.54834e-05
-0.0177072
0.000316874
-0.0188731
0.000422336
-0.019844
0.000458532
-0.0206676
0.000454775
-0.0213805
0.000422188
-0.0220097
0.000368156
-0.0225767
0.000299972
-0.0230977
0.000222238
-0.023583
0.000135447
-0.0240364
4.15133e-05
-0.0244545
-4.88509e-05
-0.0248352
-0.000110502
-0.0251877
-0.000110535
-0.0255273
-3.48437e-05
-0.0258584
9.75662e-05
-0.0261688
0.000246925
-0.0264498
0.000379762
-0.0267049
0.000484434
-0.0269342
0.000565591
-0.0271336
0.000637367
-0.0273057
0.000694318
-0.0274647
0.00070844
0.000688718
-0.00404563
-0.00627999
-0.00842554
-0.00272898
-0.012369
-0.000520341
-0.0156208
0.000705617
-0.0181822
0.00131105
-0.0201657
0.00156128
-0.0217177
0.00161755
-0.022971
0.00157013
-0.024022
0.00147334
-0.0249191
0.0013556
-0.0256974
0.00123309
-0.0263823
0.00110707
-0.0269916
0.000977477
-0.0275407
0.000849089
-0.0280432
0.000724716
-0.0285066
0.000598824
-0.0289303
0.00046525
-0.0293134
0.000334296
-0.0296609
0.000236964
-0.0299806
0.000209183
-0.0302816
0.000266092
-0.0305743
0.000390289
-0.0308665
0.000539145
-0.0311531
0.00066636
-0.0314174
0.000748744
-0.0316475
0.000795677
-0.0318416
0.00083148
-0.032009
0.000861716
-0.0321689
0.000868342
0.000860285
-0.00632284
4.28575e-05
-0.0118003
0.00274845
-0.0160982
0.00377758
-0.0193882
0.0039956
-0.0219569
0.0038798
-0.0239934
0.00359778
-0.0256263
0.00325042
-0.0269492
0.00289301
-0.0280329
0.00255711
-0.0289418
0.00226444
-0.0297256
0.00201688
-0.0304148
0.00179627
-0.031026
0.00158868
-0.0315741
0.00139719
-0.0320753
0.00122594
-0.0325388
0.00106236
-0.0329605
0.000886876
-0.0333294
0.000703206
-0.0336446
0.000552191
-0.0339242
0.000488771
-0.0341968
0.000538679
-0.0344835
0.000677034
-0.0347859
0.000841537
-0.0350869
0.000967317
-0.0353614
0.00102327
-0.0355922
0.00102646
-0.0357799
0.00101923
-0.0359413
0.00102312
-0.0360992
0.00102623
0.00102987
-0.0078322
0.00787506
-0.0141496
0.00906589
-0.0189501
0.00857802
-0.0226066
0.00765211
-0.0253742
0.00664741
-0.0274806
0.00570422
-0.0291197
0.00488949
-0.0304223
0.00419563
-0.0314714
0.00360619
-0.0323409
0.00313392
-0.0330943
0.00277031
-0.0337648
0.0024667
-0.0343609
0.00218482
-0.0348934
0.00192964
-0.0353832
0.00171576
-0.0358442
0.00152339
-0.0362669
0.00130952
-0.0366282
0.00106459
-0.0369211
0.000845047
-0.0371708
0.000738488
-0.0374207
0.000788525
-0.037702
0.00095834
-0.038016
0.00115554
-0.0383361
0.00128746
-0.0386245
0.00131168
-0.0388558
0.00125776
-0.0390338
0.00119727
-0.0391855
0.00117476
-0.039338
0.00117874
0.00119451
-0.00939063
0.0172657
-0.0170792
0.0167545
-0.022426
0.0139248
-0.0261638
0.0113899
-0.0288717
0.0093553
-0.030851
0.00768359
-0.0323546
0.00639305
-0.033544
0.00538502
-0.0344873
0.0045495
-0.0352589
0.0039055
-0.0359438
0.00345526
-0.0365777
0.00310055
-0.0371472
0.00275433
-0.0376497
0.00243211
-0.0381153
0.00218143
-0.0385698
0.00197791
-0.0389964
0.00173607
-0.03935
0.00141815
-0.0396091
0.00110424
-0.0398104
0.000939789
-0.0400228
0.0010009
-0.0402942
0.00122973
-0.0406243
0.00148566
-0.0409721
0.00163523
-0.0412805
0.00162008
-0.0415116
0.00148887
-0.0416735
0.00135914
-0.0418089
0.00131016
-0.0419526
0.0013225
0.001352
-0.0124381
0.0297038
-0.0217176
0.026034
-0.0270288
0.019236
-0.030251
0.014612
-0.032587
0.0116913
-0.0341931
0.0092897
-0.0353748
0.0075748
-0.0363549
0.00636509
-0.0371296
0.00532417
-0.0377386
0.00451453
-0.0383133
0.00402991
-0.0389018
0.00368906
-0.0394401
0.00329267
-0.039894
0.00288605
-0.040314
0.00260139
-0.040756
0.00241988
-0.0411952
0.00217526
-0.0415462
0.00176916
-0.0417586
0.00131664
-0.0418851
0.00106631
-0.0420397
0.00115548
-0.0422975
0.0014876
-0.0426531
0.00184117
-0.0430424
0.00202454
-0.0433805
0.00195817
-0.04361
0.00171842
-0.0437445
0.00149368
-0.0438533
0.00141894
-0.0439855
0.0014547
0.00150165
-0.0177287
0.0474325
-0.0289348
0.0372401
-0.0334636
0.0237649
-0.0349149
0.0160633
-0.0365564
0.0133328
-0.0374725
0.0102058
-0.0380752
0.00817755
-0.0388093
0.00709913
-0.0394251
0.00594005
-0.0397921
0.00488147
-0.0401869
0.00442471
-0.0407334
0.0042356
-0.0412544
0.00381365
-0.0416418
0.0032735
-0.0419846
0.0029442
-0.0424125
0.00284769
-0.0428905
0.00265333
-0.0432596
0.00213826
-0.0434103
0.00146732
-0.043419
0.00107496
-0.043484
0.00122052
-0.043725
0.00172859
-0.0441212
0.00223736
-0.0445728
0.00247614
-0.0449548
0.00234024
-0.0451805
0.00194409
-0.0452692
0.00158238
-0.0453343
0.00148407
-0.045454
0.00157432
0.00164668
0.207447
0.0057603
0.207034
0.0111752
0.206432
0.0163501
0.205647
0.0213682
0.204688
0.0262942
0.20356
0.0311824
0.202271
0.0360802
0.200825
0.0410296
0.199229
0.0460675
0.197488
0.0512269
0.195607
0.056538
0.193592
0.0620294
0.191448
0.0677282
0.189182
0.0736619
0.186796
0.079859
0.184296
0.0863509
0.181684
0.0931734
0.178963
0.10037
0.176133
0.107993
0.173191
0.116113
0.170134
0.124822
0.166957
0.134242
0.163655
0.144547
0.160229
0.155978
0.156703
0.168889
0.15317
0.18381
0.149995
0.201535
0.148857
0.22298
0.160548
0.245626
0.258789
0.236093
0.21249
0.00595273
0.212118
0.0115481
0.211574
0.0168937
0.210868
0.0220741
0.210008
0.0271547
0.209
0.0321899
0.207853
0.0372274
0.206574
0.0423089
0.20517
0.0474711
0.20365
0.0527469
0.202022
0.0581661
0.200295
0.0637563
0.198479
0.0695443
0.196584
0.0755565
0.194623
0.0818207
0.192607
0.0883667
0.190551
0.0952288
0.188474
0.102447
0.186396
0.110071
0.184345
0.118164
0.182363
0.126804
0.180509
0.136096
0.178884
0.146172
0.177658
0.157203
0.177153
0.169394
0.178024
0.182939
0.181686
0.197873
0.190743
0.213923
0.206201
0.230167
0.24568
0.21931
0.217658
0.00612267
0.217329
0.0118771
0.21685
0.0173724
0.21623
0.0226938
0.215478
0.0279071
0.214601
0.0330666
0.213609
0.0382196
0.21251
0.0434075
0.211315
0.0486665
0.210033
0.0540285
0.208677
0.0595223
0.207259
0.0651744
0.205793
0.07101
0.204296
0.0770536
0.202786
0.0833306
0.201285
0.0898676
0.19982
0.0966943
0.198422
0.103845
0.197134
0.111359
0.196012
0.119286
0.195134
0.127682
0.194613
0.136617
0.194619
0.146166
0.195416
0.156407
0.197414
0.167395
0.201224
0.179129
0.207615
0.191482
0.217249
0.204289
0.229845
0.21757
0.228747
0.246779
0.222951
0.00626814
0.22267
0.0121584
0.222262
0.0177806
0.221735
0.0232202
0.2211
0.0285427
0.220364
0.0338021
0.219538
0.0390453
0.218633
0.0443126
0.217661
0.0496393
0.216633
0.0550559
0.215566
0.0605899
0.214475
0.0662656
0.213378
0.0721061
0.212299
0.0781331
0.211262
0.084368
0.210296
0.0908327
0.20944
0.0975505
0.208739
0.104546
0.20825
0.111848
0.208052
0.119485
0.208246
0.127489
0.208972
0.13589
0.210424
0.144714
0.212866
0.153965
0.216643
0.163618
0.222176
0.173597
0.229913
0.183745
0.240425
0.193777
0.254631
0.203365
0.210255
0.273123
0.228374
0.00638727
0.228144
0.0123885
0.227812
0.0181132
0.227385
0.0236465
0.226874
0.0290535
0.226289
0.0343874
0.225641
0.0396939
0.224941
0.0450124
0.224203
0.0503767
0.223444
0.0558156
0.222679
0.0613545
0.221929
0.0670154
0.221217
0.0728182
0.220569
0.078781
0.220017
0.0849205
0.219597
0.0912526
0.219355
0.0977927
0.219346
0.104555
0.219639
0.111554
0.220324
0.1188
0.221512
0.126301
0.223348
0.134054
0.226018
0.142044
0.229752
0.150231
0.23483
0.15854
0.24158
0.166846
0.250382
0.174943
0.261681
0.182478
0.27595
0.189095
0.19371
0.292495
0.233929
0.00647837
0.233754
0.012564
0.233502
0.0183654
0.233181
0.0239669
0.232802
0.0294323
0.232376
0.034814
0.231913
0.0401563
0.231429
0.0454971
0.230937
0.0508683
0.230456
0.0562968
0.230005
0.0618054
0.229607
0.0674134
0.229288
0.0731371
0.229079
0.0789902
0.229015
0.0849843
0.229139
0.0911287
0.229501
0.0974303
0.230163
0.103893
0.231199
0.110518
0.232701
0.117299
0.234779
0.124222
0.237571
0.131262
0.24124
0.138375
0.245978
0.145493
0.252005
0.152513
0.259564
0.159287
0.268897
0.16561
0.280182
0.171193
0.293515
0.175763
0.178807
0.308419
0.23962
0.00653997
0.239502
0.0126821
0.239334
0.0185333
0.239125
0.024176
0.238884
0.0296731
0.238623
0.0350752
0.238354
0.040425
0.238092
0.0457587
0.237854
0.0511061
0.23766
0.0564918
0.237529
0.0619358
0.237489
0.0674541
0.237566
0.0730593
0.237796
0.0787607
0.238216
0.0845643
0.238872
0.0904728
0.239817
0.0964854
0.241114
0.102596
0.242837
0.108795
0.245074
0.115061
0.247928
0.121368
0.251519
0.127671
0.255982
0.133912
0.261466
0.140009
0.268128
0.145851
0.276117
0.151297
0.285554
0.156173
0.296484
0.160263
0.308895
0.163352
0.165172
0.32253
0.245448
0.00657079
0.24539
0.0127404
0.24531
0.0186132
0.245216
0.0242697
0.245119
0.0297708
0.245029
0.0351653
0.244959
0.0404944
0.244926
0.0457917
0.244947
0.051085
0.245043
0.0563962
0.245236
0.0617424
0.245554
0.0671365
0.246026
0.0725871
0.246688
0.078099
0.247579
0.0836732
0.248746
0.0893062
0.250241
0.0949902
0.252126
0.100712
0.25447
0.10645
0.257354
0.112178
0.260866
0.117855
0.265106
0.123432
0.270176
0.128842
0.276185
0.134
0.283231
0.138805
0.291396
0.143132
0.300727
0.146843
0.311213
0.149778
0.322785
0.151779
0.152715
0.335242
0.251418
0.00656982
0.251422
0.0127369
0.251432
0.0186026
0.251457
0.0242445
0.251507
0.0297216
0.251591
0.0350807
0.251725
0.0403604
0.251924
0.0455926
0.252207
0.0508023
0.252594
0.0560088
0.25311
0.0612265
0.253782
0.0664646
0.254641
0.0717284
0.255721
0.0770184
0.257064
0.0823309
0.258712
0.0876575
0.260718
0.0929846
0.263137
0.0982927
0.266032
0.103555
0.269471
0.108739
0.273527
0.113799
0.278277
0.118682
0.283796
0.123323
0.290154
0.127643
0.297406
0.131553
0.305587
0.134951
0.314698
0.137731
0.324694
0.139782
0.335475
0.140997
0.141319
0.346871
0.257532
0.0065363
0.257599
0.0126703
0.257702
0.0184994
0.257848
0.0240982
0.258047
0.0295232
0.258309
0.0348189
0.258648
0.0400216
0.25908
0.0451606
0.259623
0.0502586
0.2603
0.0553322
0.261133
0.0603928
0.262151
0.0654468
0.263384
0.0704959
0.264865
0.0755373
0.266633
0.0805632
0.268729
0.0855614
0.271199
0.0905141
0.274094
0.0953978
0.277467
0.100183
0.281373
0.104833
0.285869
0.109303
0.29101
0.113541
0.296846
0.117487
0.303417
0.121072
0.310746
0.124223
0.318837
0.126861
0.327662
0.128907
0.337156
0.130288
0.347215
0.130938
0.130837
0.357697
0.263794
0.00646977
0.263925
0.0125396
0.264122
0.0183025
0.26439
0.0238296
0.264739
0.0291746
0.265178
0.0343794
0.265722
0.039478
0.266385
0.0444972
0.267187
0.0494571
0.268147
0.0543718
0.26929
0.05925
0.270641
0.0640955
0.27223
0.0689069
0.274089
0.0736787
0.276252
0.0784002
0.278757
0.0830563
0.281644
0.0876267
0.284956
0.092086
0.288736
0.0964034
0.293026
0.100542
0.297868
0.104461
0.303298
0.108111
0.309345
0.11144
0.316027
0.114391
0.323343
0.116906
0.331276
0.118927
0.339783
0.1204
0.348794
0.121277
0.35821
0.121522
0.121136
0.367911
0.270207
0.00637005
0.270402
0.0123446
0.270693
0.0180117
0.271084
0.0234386
0.271582
0.0286761
0.272198
0.0337635
0.272944
0.0387321
0.273835
0.0436063
0.274888
0.0484037
0.276124
0.0531361
0.277564
0.0578099
0.279233
0.0624264
0.281158
0.0669821
0.283368
0.0714691
0.285893
0.075875
0.288766
0.0801829
0.292021
0.0843715
0.295692
0.0884151
0.299812
0.0922835
0.304412
0.0959425
0.309519
0.0993538
0.315154
0.102476
0.321328
0.105265
0.328043
0.107676
0.335285
0.109665
0.343022
0.11119
0.351204
0.112217
0.359763
0.112718
0.36861
0.112676
0.112102
0.377643
0.276774
0.00623725
0.277033
0.0120855
0.277417
0.0176274
0.277929
0.0229262
0.278576
0.0280295
0.279366
0.0329738
0.28031
0.0377879
0.281422
0.0424937
0.282719
0.0471067
0.284219
0.0516363
0.285942
0.056087
0.28791
0.0604582
0.290148
0.0647447
0.29268
0.0689373
0.295532
0.0730224
0.298732
0.0769826
0.302307
0.0807967
0.306282
0.08444
0.310681
0.0878845
0.315524
0.0910993
0.320827
0.0940513
0.326597
0.0967057
0.332835
0.0990275
0.339528
0.100982
0.346654
0.102539
0.354176
0.103669
0.362041
0.104352
0.370185
0.104574
0.378529
0.104331
0.103641
0.38699
0.283498
0.00607174
0.283821
0.0117631
0.284297
0.0171509
0.284929
0.0222945
0.28572
0.0272378
0.28668
0.0320147
0.287816
0.0366514
0.289142
0.0411675
0.290673
0.0455764
0.292423
0.0498856
0.294412
0.054098
0.296659
0.0582115
0.299184
0.06222
0.302008
0.0661132
0.305153
0.0698776
0.308639
0.073496
0.312488
0.0769483
0.316716
0.0802117
0.321339
0.0832612
0.326369
0.08607
0.331809
0.0886105
0.33766
0.0908549
0.343911
0.0927761
0.350545
0.0943493
0.357531
0.0955529
0.36483
0.09637
0.372392
0.0967897
0.380158
0.0968082
0.38806
0.096429
0.0956724
0.396029
0.290384
0.00587416
0.290768
0.0113786
0.291335
0.0165844
0.292083
0.0215463
0.293016
0.0263051
0.294139
0.0308917
0.29546
0.0353299
0.296991
0.0396371
0.298742
0.0438248
0.300729
0.047899
0.302966
0.0518611
0.305469
0.0557083
0.308255
0.0594337
0.311341
0.0630271
0.314744
0.0664753
0.318478
0.069762
0.322557
0.0728691
0.326992
0.0757761
0.331792
0.0784616
0.336959
0.0809032
0.342491
0.0830787
0.348379
0.0849665
0.354608
0.086547
0.361155
0.0878029
0.367987
0.0887208
0.375065
0.0892916
0.382343
0.0895119
0.389767
0.0893841
0.397279
0.0889164
0.0881301
0.404822
0.297435
0.00564538
0.297879
0.0109338
0.298533
0.0159305
0.299394
0.0206856
0.300462
0.0252366
0.301743
0.0296116
0.30324
0.0338321
0.304964
0.0379133
0.306924
0.0418652
0.30913
0.0456924
0.311596
0.0493955
0.314333
0.052971
0.317355
0.056412
0.320673
0.0597086
0.3243
0.0628484
0.328245
0.0658169
0.332517
0.0685978
0.337119
0.0711738
0.342054
0.0735269
0.347318
0.0756392
0.352903
0.0774934
0.358796
0.0790735
0.364977
0.080366
0.37142
0.08136
0.378092
0.082048
0.384957
0.082427
0.391971
0.0824984
0.399086
0.0822685
0.406255
0.0817482
0.0809584
0.413426
0.304654
0.00538645
0.305157
0.0104309
0.305895
0.0151924
0.306864
0.0197168
0.308062
0.0240382
0.309492
0.028182
0.311156
0.0321674
0.313062
0.0360078
0.315216
0.0397117
0.317625
0.0432827
0.3203
0.0467207
0.323249
0.050022
0.326481
0.0531801
0.330004
0.0561858
0.333824
0.0590279
0.337948
0.0616936
0.342376
0.0641691
0.34711
0.06644
0.352145
0.0684919
0.357473
0.0703108
0.363083
0.0718839
0.368956
0.0732002
0.375071
0.0742509
0.381402
0.0750298
0.387915
0.0755345
0.394576
0.0757656
0.401347
0.075728
0.408185
0.0754303
0.415049
0.0748846
0.0741104
0.421897
0.312046
0.0050986
0.312605
0.00987209
0.313424
0.0143738
0.314495
0.018645
0.315817
0.0227165
0.317388
0.0266112
0.319209
0.030346
0.321284
0.0339328
0.323617
0.0373786
0.326214
0.0406865
0.329078
0.0438558
0.332217
0.0468831
0.335635
0.0497621
0.339336
0.0524849
0.343323
0.0550416
0.347595
0.0574213
0.352151
0.0596128
0.356987
0.0616044
0.362094
0.0633848
0.367461
0.0649439
0.373072
0.0662725
0.378909
0.0673636
0.384947
0.0682123
0.391161
0.0688161
0.39752
0.0691757
0.403991
0.0692948
0.410539
0.06918
0.417128
0.068841
0.423722
0.0682903
0.067546
0.430287
0.319615
0.00478314
0.320227
0.00926011
0.321122
0.0134785
0.322292
0.0174755
0.32373
0.0212784
0.325433
0.0249077
0.327401
0.0283784
0.329633
0.0317006
0.332131
0.0348804
0.334898
0.0379203
0.337934
0.0408194
0.341243
0.0435745
0.344825
0.0461803
0.34868
0.0486296
0.352807
0.0509143
0.357203
0.0530255
0.361862
0.0549541
0.366775
0.056691
0.371932
0.0582281
0.377318
0.0595579
0.382915
0.0606748
0.388704
0.0615746
0.394661
0.0622555
0.40076
0.0627177
0.406971
0.0629641
0.413266
0.063
0.419613
0.0628333
0.42598
0.0624739
0.432336
0.0619339
0.0612298
0.438652
0.327365
0.00444144
0.328027
0.00859761
0.328995
0.0125107
0.330257
0.0162137
0.331804
0.0197309
0.333632
0.0230803
0.335736
0.0262748
0.338113
0.0293233
0.340762
0.0322309
0.343683
0.0349996
0.346874
0.0376286
0.350333
0.0401151
0.354059
0.0424544
0.358048
0.0446407
0.362295
0.0466674
0.366793
0.0485273
0.371534
0.0502134
0.376506
0.051719
0.381695