/*--------------------------------*- C++ -*----------------------------------*\
  =========                 |
  \\      /  F ield         | OpenFOAM: The Open Source CFD Toolbox
   \\    /   O peration     | Website:  https://openfoam.org
    \\  /    A nd           | Version:  7
     \\/     M anipulation  |
\*---------------------------------------------------------------------------*/
FoamFile
{
    version     2.0;
    format      ascii;
    class       volVectorField;
    location    "4.8";
    object      U;
}
// * * * * * * * * * * * * * * * * * * * * * * * * * * * * * * * * * * * * * //

dimensions      [0 1 -1 0 0 0 0];

internalField   nonuniform List<vector> 
2790
(
(9.94399 0.0205232 0)
(9.87572 0.0295877 0)
(9.77521 0.0359896 0)
(9.64944 0.0425563 0)
(9.50409 0.0493856 0)
(9.34007 0.0564285 0)
(9.15654 0.063816 0)
(8.95262 0.0717118 0)
(8.72747 0.0802555 0)
(8.48008 0.0895738 0)
(8.20927 0.0997939 0)
(7.91365 0.111046 0)
(7.59169 0.123461 0)
(7.24178 0.137166 0)
(6.86233 0.152274 0)
(6.4518 0.168872 0)
(6.00888 0.187 0)
(5.53269 0.206622 0)
(5.02297 0.227594 0)
(4.48045 0.249615 0)
(3.90716 0.27218 0)
(3.30684 0.294529 0)
(2.6853 0.315624 0)
(2.05063 0.334292 0)
(1.41181 0.35061 0)
(0.79805 0.372887 0)
(0.110734 0.325071 0)
(-0.469565 -0.114857 0)
(-0.453776 -0.29716 0)
(-0.231164 -0.423862 0)
(9.9985 0.0407031 0)
(9.98145 0.062383 0)
(9.93574 0.0791404 0)
(9.86416 0.096625 0)
(9.77097 0.115124 0)
(9.65715 0.134488 0)
(9.52206 0.154975 0)
(9.36485 0.176943 0)
(9.18472 0.200708 0)
(8.98067 0.22655 0)
(8.75153 0.254745 0)
(8.49589 0.285561 0)
(8.21221 0.319251 0)
(7.89883 0.356025 0)
(7.55405 0.396023 0)
(7.1762 0.439266 0)
(6.7638 0.485597 0)
(6.31567 0.534592 0)
(5.83127 0.585467 0)
(5.3109 0.63696 0)
(4.75617 0.68721 0)
(4.17043 0.733652 0)
(3.55932 0.772959 0)
(2.93158 0.801099 0)
(2.29998 0.813755 0)
(1.69298 0.80726 0)
(1.10718 0.747262 0)
(0.658912 0.547942 0)
(0.186481 0.224633 0)
(-0.00820027 -0.453724 0)
(9.99559 0.0432071 0)
(9.97556 0.075272 0)
(9.9318 0.103346 0)
(9.8649 0.132371 0)
(9.77778 0.16306 0)
(9.67155 0.195399 0)
(9.54588 0.229743 0)
(9.40013 0.266603 0)
(9.23365 0.30647 0)
(9.04564 0.349807 0)
(8.83509 0.397072 0)
(8.60082 0.448722 0)
(8.34145 0.505192 0)
(8.05551 0.566864 0)
(7.74138 0.634012 0)
(7.39745 0.706732 0)
(7.02212 0.784838 0)
(6.61397 0.867725 0)
(6.17195 0.954196 0)
(5.69566 1.04226 0)
(5.18565 1.12889 0)
(4.64398 1.20979 0)
(4.07482 1.27916 0)
(3.4854 1.32934 0)
(2.88687 1.3501 0)
(2.29949 1.32644 0)
(1.73187 1.22079 0)
(1.21628 0.973024 0)
(0.70116 0.570169 0)
(0.358051 -0.156527 0)
(9.99403 0.0494995 0)
(9.97181 0.0932067 0)
(9.92788 0.133573 0)
(9.86224 0.17421 0)
(9.77693 0.216434 0)
(9.67298 0.260662 0)
(9.55031 0.30743 0)
(9.40849 0.357415 0)
(9.24702 0.411291 0)
(9.06533 0.469705 0)
(8.86269 0.533301 0)
(8.6382 0.602722 0)
(8.39085 0.678591 0)
(8.11952 0.761473 0)
(7.823 0.851819 0)
(7.50002 0.949873 0)
(7.14925 1.05555 0)
(6.76946 1.16824 0)
(6.35951 1.2866 0)
(5.91862 1.40826 0)
(5.44655 1.52947 0)
(4.94402 1.64468 0)
(4.41319 1.74614 0)
(3.85829 1.82322 0)
(3.28585 1.86137 0)
(2.70643 1.84034 0)
(2.12567 1.72602 0)
(1.55428 1.47789 0)
(0.957962 1.08373 0)
(0.509429 0.502357 0)
(9.99331 0.0572139 0)
(9.96994 0.110959 0)
(9.92593 0.162105 0)
(9.86146 0.213348 0)
(9.77799 0.266358 0)
(9.67635 0.321915 0)
(9.55654 0.380702 0)
(9.41821 0.443488 0)
(9.26097 0.511056 0)
(9.08433 0.584169 0)
(8.8877 0.663586 0)
(8.67038 0.750061 0)
(8.43159 0.844332 0)
(8.17046 0.94708 0)
(7.88608 1.05887 0)
(7.57748 1.18007 0)
(7.24367 1.31068 0)
(6.88362 1.45017 0)
(6.49629 1.59722 0)
(6.08074 1.74932 0)
(5.63617 1.90241 0)
(5.16214 2.05031 0)
(4.6588 2.18417 0)
(4.12724 2.29174 0)
(3.56943 2.35657 0)
(2.98891 2.35733 0)
(2.38686 2.26498 0)
(1.76641 2.04767 0)
(1.09 1.69144 0)
(0.536657 1.15419 0)
(9.99302 0.065539 0)
(9.96923 0.128702 0)
(9.92556 0.190115 0)
(9.86253 0.251845 0)
(9.78128 0.31558 0)
(9.68244 0.38232 0)
(9.56601 0.452875 0)
(9.43171 0.528102 0)
(9.2792 0.60888 0)
(9.10806 0.696083 0)
(8.91777 0.790577 0)
(8.70774 0.893221 0)
(8.47728 1.00485 0)
(8.22567 1.12625 0)
(7.95215 1.25808 0)
(7.65589 1.4008 0)
(7.33603 1.55453 0)
(6.99165 1.71885 0)
(6.6217 1.89254 0)
(6.22502 2.07321 0)
(5.8003 2.25684 0)
(5.34606 2.43719 0)
(4.86073 2.60519 0)
(4.34272 2.74822 0)
(3.79042 2.84955 0)
(3.2026 2.88821 0)
(2.57659 2.83825 0)
(1.91348 2.67165 0)
(1.17276 2.37404 0)
(0.549972 1.89445 0)
(9.99297 0.0740753 0)
(9.96926 0.146315 0)
(9.92637 0.217484 0)
(9.86508 0.289293 0)
(9.78642 0.363357 0)
(9.69084 0.440828 0)
(9.57834 0.522661 0)
(9.44871 0.609811 0)
(9.30165 0.703255 0)
(9.13678 0.803964 0)
(8.95364 0.912898 0)
(8.7517 1.03101 0)
(8.53033 1.15922 0)
(8.28887 1.29839 0)
(8.02659 1.44929 0)
(7.74269 1.61247 0)
(7.4363 1.78817 0)
(7.10641 1.97615 0)
(6.75181 2.17539 0)
(6.37102 2.3838 0)
(5.96212 2.59773 0)
(5.52266 2.81137 0)
(5.04955 3.01614 0)
(4.53903 3.19996 0)
(3.98669 3.34668 0)
(3.38793 3.43598 0)
(2.73727 3.44334 0)
(2.03626 3.34153 0)
(1.24176 3.11362 0)
(0.563519 2.6932 0)
(9.99306 0.0825886 0)
(9.96981 0.163607 0)
(9.92807 0.244051 0)
(9.86885 0.325481 0)
(9.79312 0.409448 0)
(9.70126 0.497208 0)
(9.59323 0.58984 0)
(9.46888 0.688396 0)
(9.32795 0.793939 0)
(9.17014 0.907528 0)
(8.99502 1.03021 0)
(8.8021 1.16303 0)
(8.59081 1.307 0)
(8.3605 1.46308 0)
(8.11044 1.63214 0)
(7.83981 1.81486 0)
(7.54761 2.01165 0)
(7.23267 2.2225 0)
(6.89351 2.44672 0)
(6.52818 2.68267 0)
(6.1341 2.92734 0)
(5.70787 3.17575 0)
(5.24499 3.42035 0)
(4.73981 3.65019 0)
(4.18551 3.85024 0)
(3.57478 4.0009 0)
(2.89954 4.07793 0)
(2.16213 4.05242 0)
(1.31613 3.90175 0)
(0.583223 3.54021 0)
(9.99326 0.0909289 0)
(9.97072 0.18041 0)
(9.93046 0.269669 0)
(9.87362 0.360243 0)
(9.80118 0.453649 0)
(9.71343 0.551211 0)
(9.61038 0.654113 0)
(9.49188 0.763497 0)
(9.35775 0.880505 0)
(9.20773 1.00628 0)
(9.04145 1.14195 0)
(8.85847 1.28866 0)
(8.65827 1.44751 0)
(8.44021 1.61958 0)
(8.20357 1.80585 0)
(7.94746 2.00719 0)
(7.67078 2.22423 0)
(7.37216 2.45726 0)
(7.0498 2.70603 0)
(6.70128 2.96955 0)
(6.32336 3.24564 0)
(5.91167 3.53051 0)
(5.46039 3.81805 0)
(4.96204 4.09898 0)
(4.40744 4.35987 0)
(3.78643 4.58211 0)
(3.08759 4.74111 0)
(2.31272 4.8045 0)
(1.41065 4.74114 0)
(0.614311 4.44199 0)
(9.99352 0.0989929 0)
(9.97191 0.19658 0)
(9.9334 0.294197 0)
(9.87924 0.393419 0)
(9.8104 0.495758 0)
(9.72716 0.60259 0)
(9.62953 0.715184 0)
(9.51741 0.834762 0)
(9.39068 0.962544 0)
(9.24912 1.09975 0)
(9.09245 1.24759 0)
(8.92027 1.40729 0)
(8.73212 1.58006 0)
(8.52741 1.76709 0)
(8.30543 1.96954 0)
(8.06525 2.18847 0)
(7.80572 2.42477 0)
(7.5253 2.67915 0)
(7.22191 2.9519 0)
(6.89277 3.2428 0)
(6.53404 3.55076 0)
(6.14049 3.87347 0)
(5.70507 4.20668 0)
(5.21851 4.54337 0)
(4.66902 4.87243 0)
(4.04289 5.17698 0)
(3.32371 5.43234 0)
(2.50978 5.60201 0)
(1.54187 5.64356 0)
(0.664057 5.41811 0)
(9.99384 0.106705 0)
(9.9733 0.212001 0)
(9.9368 0.317504 0)
(9.88558 0.424858 0)
(9.82063 0.535591 0)
(9.74225 0.651123 0)
(9.65044 0.772789 0)
(9.54517 0.901886 0)
(9.42637 1.0397 0)
(9.29389 1.18752 0)
(9.14752 1.34663 0)
(8.98693 1.51835 0)
(8.81174 1.70398 0)
(8.62142 1.90486 0)
(8.41531 2.1223 0)
(8.19252 2.35758 0)
(7.95187 2.61194 0)
(7.69178 2.88652 0)
(7.41005 3.18226 0)
(7.10364 3.49983 0)
(6.76835 3.83945 0)
(6.39835 4.20052 0)
(5.98557 4.58116 0)
(5.5191 4.97731 0)
(4.9844 5.38131 0)
(4.36328 5.77957 0)
(3.63191 6.14917 0)
(2.78012 6.45072 0)
(1.73345 6.62858 0)
(0.744829 6.50317 0)
(9.9942 0.114007 0)
(9.97487 0.226577 0)
(9.94055 0.339475 0)
(9.89252 0.454426 0)
(9.83173 0.572986 0)
(9.7585 0.696612 0)
(9.67288 0.826696 0)
(9.57487 0.964594 0)
(9.46448 1.11165 0)
(9.34161 1.26921 0)
(9.20615 1.43865 0)
(9.05786 1.62133 0)
(8.89643 1.81868 0)
(8.72146 2.03215 0)
(8.53236 2.26322 0)
(8.32835 2.51342 0)
(8.10834 2.78432 0)
(7.8708 3.07754 0)
(7.6136 3.3947 0)
(7.33373 3.73746 0)
(7.02692 4.10742 0)
(6.68715 4.506 0)
(6.30589 4.93408 0)
(5.87109 5.39143 0)
(5.36578 5.87535 0)
(4.7669 6.37825 0)
(4.04071 6.88325 0)
(3.16145 7.35355 0)
(2.02473 7.72328 0)
(0.880722 7.75718 0)
(9.99459 0.120854 0)
(9.97657 0.240226 0)
(9.94461 0.36001 0)
(9.89995 0.482003 0)
(9.84356 0.607799 0)
(9.77575 0.738885 0)
(9.69662 0.876699 0)
(9.60622 1.02265 0)
(9.50463 1.17812 0)
(9.39184 1.34451 0)
(9.26781 1.52325 0)
(9.13241 1.71578 0)
(8.98546 1.9236 0)
(8.82667 2.14828 0)
(8.65561 2.39147 0)
(8.47166 2.65491 0)
(8.27391 2.9405 0)
(8.06106 3.25032 0)
(7.83125 3.58665 0)
(7.58177 3.95214 0)
(7.30877 4.3498 0)
(7.00663 4.78312 0)
(6.66719 5.25607 0)
(6.27845 5.77293 0)
(5.82243 6.33768 0)
(5.27245 6.95242 0)
(4.58449 7.61366 0)
(3.70992 8.30098 0)
(2.48814 8.95831 0)
(1.12445 9.29333 0)
(9.99501 0.127212 0)
(9.97838 0.252887 0)
(9.94891 0.379024 0)
(9.90779 0.50749 0)
(9.85598 0.639911 0)
(9.79381 0.777805 0)
(9.72142 0.922641 0)
(9.63893 1.07586 0)
(9.54646 1.23889 0)
(9.44412 1.41317 0)
(9.33194 1.60015 0)
(9.20993 1.80135 0)
(9.07804 2.01833 0)
(8.93613 2.25274 0)
(8.78396 2.50637 0)
(8.62114 2.78116 0)
(8.44706 3.07927 0)
(8.26079 3.40316 0)
(8.06092 3.75574 0)
(7.84542 4.14047 0)
(7.61127 4.56165 0)
(7.35404 5.02468 0)
(7.06709 5.53651 0)
(6.74035 6.10613 0)
(6.35786 6.74524 0)
(5.894 7.46893 0)
(5.30071 8.29635 0)
(4.50878 9.24804 0)
(3.26874 10.3419 0)
(1.60496 11.3593 0)
(9.99545 0.133052 0)
(9.98026 0.264506 0)
(9.95339 0.396445 0)
(9.91596 0.530792 0)
(9.86888 0.669203 0)
(9.81252 0.813216 0)
(9.74707 0.964325 0)
(9.6727 1.124 0)
(9.58962 1.29368 0)
(9.49801 1.47484 0)
(9.39801 1.66895 0)
(9.28976 1.87756 0)
(9.17335 2.10228 0)
(9.04884 2.34483 0)
(8.91621 2.60708 0)
(8.77536 2.8911 0)
(8.62604 3.19925 0)
(8.4678 3.53428 0)
(8.29991 3.89951 0)
(8.12124 4.29903 0)
(7.93009 4.73806 0)
(7.72389 5.22343 0)
(7.49881 5.76439 0)
(7.24896 6.37373 0)
(6.96484 7.06992 0)
(6.63093 7.88077 0)
(6.21442 8.85173 0)
(5.66588 10.0658 0)
(4.69022 11.7311 0)
(2.68744 14.5925 0)
(0.116019 -0.116249 0)
(0.273685 -0.106621 0)
(0.435316 -0.0846274 0)
(0.571563 -0.0638629 0)
(0.678222 -0.0470151 0)
(0.760239 -0.0339707 0)
(0.823595 -0.0240823 0)
(0.873052 -0.016708 0)
(0.912117 -0.0113019 0)
(0.943457 -0.00741975 0)
(0.969182 -0.0047091 0)
(0.990978 -0.00289051 0)
(1.01017 -0.00173527 0)
(1.02774 -0.00104493 0)
(1.04439 -0.000636819 0)
(1.06045 -0.000336871 0)
(1.07591 1.71081e-05 0)
(1.09045 0.00055771 0)
(1.10343 0.00135779 0)
(1.11413 0.00240442 0)
(1.12192 0.00360311 0)
(1.12645 0.00481939 0)
(1.12772 0.00590885 0)
(1.12614 0.00668253 0)
(1.12147 0.00743097 0)
(1.1134 0.00821911 0)
(1.10165 0.00889672 0)
(1.08642 0.00919468 0)
(1.06913 0.00868697 0)
(1.05045 0.00635915 0)
(0.0994007 -0.271621 0)
(0.252864 -0.256348 0)
(0.402882 -0.20944 0)
(0.531623 -0.164139 0)
(0.636269 -0.127271 0)
(0.721316 -0.0987142 0)
(0.791734 -0.077046 0)
(0.851338 -0.0608149 0)
(0.902849 -0.0487977 0)
(0.94828 -0.040018 0)
(0.989189 -0.0337134 0)
(1.0268 -0.0292891 0)
(1.06206 -0.0262672 0)
(1.09571 -0.0242402 0)
(1.12827 -0.0228386 0)
(1.16012 -0.0217109 0)
(1.19143 -0.0205259 0)
(1.22216 -0.0190036 0)
(1.2521 -0.016976 0)
(1.28091 -0.0144462 0)
(1.30822 -0.0115927 0)
(1.33379 -0.008682 0)
(1.35753 -0.00592608 0)
(1.37911 -0.0033723 0)
(1.39854 -0.000690214 0)
(1.4155 0.0023345 0)
(1.42908 0.00549642 0)
(1.43849 0.00787241 0)
(1.44499 0.00853144 0)
(1.45173 0.00646817 0)
(0.0788768 -0.429098 0)
(0.21005 -0.403476 0)
(0.328247 -0.33133 0)
(0.428797 -0.262557 0)
(0.509759 -0.207035 0)
(0.575752 -0.164103 0)
(0.630797 -0.1315 0)
(0.677814 -0.106933 0)
(0.718786 -0.0885408 0)
(0.755155 -0.0748828 0)
(0.788042 -0.0648474 0)
(0.818337 -0.0575742 0)
(0.846738 -0.052378 0)
(0.87379 -0.0486855 0)
(0.899911 -0.0459873 0)
(0.925408 -0.0438058 0)
(0.950476 -0.0416872 0)
(0.975174 -0.0392354 0)
(0.999406 -0.0361928 0)
(1.02293 -0.0325337 0)
(1.04545 -0.0284935 0)
(1.06674 -0.024448 0)
(1.08686 -0.0206436 0)
(1.10618 -0.0169436 0)
(1.12514 -0.0130687 0)
(1.14388 -0.00866475 0)
(1.16269 -0.00385302 0)
(1.18112 0.00028483 0)
(1.1967 0.00238407 0)
(1.20958 0.00201324 0)
(0.0588869 -0.552899 0)
(0.161666 -0.510942 0)
(0.241224 -0.415533 0)
(0.308642 -0.328076 0)
(0.360509 -0.25898 0)
(0.402291 -0.20609 0)
(0.436715 -0.166202 0)
(0.465797 -0.136149 0)
(0.490695 -0.113557 0)
(0.512252 -0.0966666 0)
(0.53116 -0.0841415 0)
(0.547982 -0.0749534 0)
(0.563167 -0.0682863 0)
(0.577082 -0.0634649 0)
(0.590037 -0.0599007 0)
(0.602308 -0.0570483 0)
(0.614138 -0.0543807 0)
(0.62572 -0.0514126 0)
(0.63712 -0.0477918 0)
(0.648224 -0.0434273 0)
(0.658702 -0.0385671 0)
(0.668166 -0.0337048 0)
(0.676465 -0.0293021 0)
(0.683945 -0.0254813 0)
(0.691235 -0.0219872 0)
(0.69881 -0.018294 0)
(0.706873 -0.0140746 0)
(0.714739 -0.00961311 0)
(0.721019 -0.00582487 0)
(0.72193 -0.00251395 0)
(0.0380566 -0.644802 0)
(0.107072 -0.58124 0)
(0.14284 -0.465213 0)
(0.174964 -0.364354 0)
(0.194391 -0.286453 0)
(0.208689 -0.227413 0)
(0.218673 -0.183278 0)
(0.225694 -0.149884 0)
(0.230143 -0.124587 0)
(0.232438 -0.1055 0)
(0.232978 -0.0911913 0)
(0.232072 -0.0805612 0)
(0.229975 -0.0727389 0)
(0.226923 -0.0670136 0)
(0.223154 -0.0627815 0)
(0.218937 -0.0594891 0)
(0.214591 -0.0565823 0)
(0.210464 -0.0535028 0)
(0.206806 -0.0497686 0)
(0.203674 -0.045131 0)
(0.200659 -0.0397215 0)
(0.197067 -0.0340259 0)
(0.191812 -0.0286047 0)
(0.184525 -0.0237492 0)
(0.175418 -0.0193267 0)
(0.164621 -0.014907 0)
(0.155026 -0.0101184 0)
(0.145822 -0.00462566 0)
(0.13468 0.000714868 0)
(0.121436 0.00100714 0)
(0.015643 -0.699395 0)
(0.0457985 -0.61005 0)
(0.0348208 -0.476441 0)
(0.030318 -0.367035 0)
(0.0149118 -0.283884 0)
(-0.00151363 -0.221158 0)
(-0.0194377 -0.17533 0)
(-0.0381152 -0.140806 0)
(-0.0575779 -0.114762 0)
(-0.0774323 -0.0952342 0)
(-0.0973953 -0.080686 0)
(-0.117289 -0.0699646 0)
(-0.136947 -0.062172 0)
(-0.156208 -0.0565848 0)
(-0.174917 -0.0526072 0)
(-0.192888 -0.0497108 0)
(-0.209875 -0.0473566 0)
(-0.225608 -0.0449561 0)
(-0.239886 -0.0419502 0)
(-0.252681 -0.0379869 0)
(-0.26422 -0.0330897 0)
(-0.274999 -0.0276684 0)
(-0.285714 -0.0222997 0)
(-0.296935 -0.0173802 0)
(-0.308925 -0.012904 0)
(-0.321658 -0.00842007 0)
(-0.334753 -0.00347566 0)
(-0.348735 0.00134703 0)
(-0.357603 0.00426734 0)
(-0.366098 0.00367812 0)
(-0.0101228 -0.709874 0)
(-0.0239586 -0.591481 0)
(-0.0813913 -0.4464 0)
(-0.125322 -0.334437 0)
(-0.17621 -0.251384 0)
(-0.225053 -0.191222 0)
(-0.271813 -0.146841 0)
(-0.31598 -0.113837 0)
(-0.357325 -0.0894755 0)
(-0.395653 -0.0717348 0)
(-0.430913 -0.0589855 0)
(-0.463234 -0.0500101 0)
(-0.492833 -0.0438845 0)
(-0.519973 -0.0398838 0)
(-0.544915 -0.0374308 0)
(-0.56785 -0.0360291 0)
(-0.588862 -0.0351608 0)
(-0.607977 -0.0342087 0)
(-0.625272 -0.0325385 0)
(-0.64097 -0.0296903 0)
(-0.655468 -0.0255663 0)
(-0.669295 -0.0204762 0)
(-0.682978 -0.0150078 0)
(-0.696901 -0.00970563 0)
(-0.711216 -0.0048205 0)
(-0.726049 -0.00040098 0)
(-0.739116 0.00360735 0)
(-0.748586 0.00665909 0)
(-0.757111 0.0076841 0)
(-0.762482 0.00653113 0)
(-0.0423025 -0.668768 0)
(-0.10296 -0.527021 0)
(-0.205349 -0.380826 0)
(-0.289337 -0.270967 0)
(-0.374025 -0.19164 0)
(-0.452572 -0.136539 0)
(-0.523529 -0.0982125 0)
(-0.586393 -0.0710171 0)
(-0.641705 -0.0517958 0)
(-0.690412 -0.0386378 0)
(-0.733386 -0.0299423 0)
(-0.771494 -0.024511 0)
(-0.805504 -0.0214435 0)
(-0.836096 -0.0200453 0)
(-0.863853 -0.0198008 0)
(-0.889198 -0.0203215 0)
(-0.912346 -0.0212001 0)
(-0.933388 -0.0218538 0)
(-0.952472 -0.0215962 0)
(-0.969934 -0.0198711 0)
(-0.986288 -0.0165008 0)
(-1.00211 -0.0117961 0)
(-1.01785 -0.00649895 0)
(-1.03383 -0.00152163 0)
(-1.04878 0.00263196 0)
(-1.06115 0.00604017 0)
(-1.07203 0.0089712 0)
(-1.08193 0.0112584 0)
(-1.09022 0.0118543 0)
(-1.09472 0.0107616 0)
(-0.0825069 -0.570834 0)
(-0.193463 -0.413701 0)
(-0.34649 -0.275559 0)
(-0.470191 -0.177312 0)
(-0.583922 -0.108663 0)
(-0.685854 -0.0624901 0)
(-0.775957 -0.0330366 0)
(-0.85366 -0.0153264 0)
(-0.917208 -0.00547769 0)
(-0.969937 -9.43872e-05 0)
(-1.0143 0.00246928 0)
(-1.05235 0.00311786 0)
(-1.08563 0.00245083 0)
(-1.11535 0.000936489 0)
(-1.14246 -0.0011047 0)
(-1.16759 -0.00349435 0)
(-1.19103 -0.00602532 0)
(-1.21291 -0.00823527 0)
(-1.23279 -0.00936819 0)
(-1.25093 -0.0086695 0)
(-1.26803 -0.00593217 0)
(-1.28492 -0.00172232 0)
(-1.30128 0.00289569 0)
(-1.31593 0.00692181 0)
(-1.32916 0.00993707 0)
(-1.34126 0.0122322 0)
(-1.35207 0.0141889 0)
(-1.36179 0.015586 0)
(-1.36981 0.0156782 0)
(-1.37386 0.0146846 0)
(-0.138613 -0.411266 0)
(-0.312626 -0.249361 0)
(-0.532726 -0.127267 0)
(-0.711592 -0.0423508 0)
(-0.854206 0.00507321 0)
(-0.965088 0.0287916 0)
(-1.05139 0.038772 0)
(-1.11966 0.0409078 0)
(-1.17681 0.0395143 0)
(-1.22511 0.0366093 0)
(-1.26669 0.0330891 0)
(-1.30303 0.0292163 0)
(-1.33518 0.0251105 0)
(-1.364 0.0209667 0)
(-1.39025 0.0169153 0)
(-1.41443 0.0128885 0)
(-1.43665 0.00881824 0)
(-1.45663 0.00502164 0)
(-1.47473 0.00238269 0)
(-1.49131 0.00184641 0)
(-1.50684 0.00370733 0)
(-1.52163 0.00728163 0)
(-1.53624 0.0113296 0)
(-1.55085 0.0147696 0)
(-1.56464 0.0170748 0)
(-1.57693 0.0184424 0)
(-1.58765 0.0194039 0)
(-1.59718 0.0200008 0)
(-1.60495 0.0197465 0)
(-1.60868 0.018882 0)
(-0.223867 -0.20834 0)
(-0.472282 0.0013483 0)
(-0.718425 0.0845442 0)
(-0.898682 0.110883 0)
(-1.04123 0.116372 0)
(-1.15439 0.112055 0)
(-1.24469 0.103202 0)
(-1.31748 0.0926213 0)
(-1.37682 0.0817571 0)
(-1.42607 0.0716531 0)
(-1.46804 0.0627285 0)
(-1.50461 0.0546798 0)
(-1.53688 0.0471857 0)
(-1.56569 0.0403113 0)
(-1.5919 0.034156 0)
(-1.61612 0.0284302 0)
(-1.63832 0.0227143 0)
(-1.65798 0.0171831 0)
(-1.67479 0.0128702 0)
(-1.68934 0.0110584 0)
(-1.70298 0.0122688 0)
(-1.71702 0.0157591 0)
(-1.73197 0.0198897 0)
(-1.74726 0.0230359 0)
(-1.76168 0.0244798 0)
(-1.77419 0.0246322 0)
(-1.78476 0.0244167 0)
(-1.79399 0.0242323 0)
(-1.80147 0.0237622 0)
(-1.80495 0.0230799 0)
(-0.295491 0.21825 0)
(-0.569845 0.286954 0)
(-0.848553 0.28953 0)
(-1.05242 0.266991 0)
(-1.20867 0.236016 0)
(-1.32773 0.20367 0)
(-1.41961 0.173898 0)
(-1.49188 0.147836 0)
(-1.54966 0.125489 0)
(-1.59695 0.10719 0)
(-1.63719 0.0926659 0)
(-1.67258 0.0805465 0)
(-1.70398 0.0696589 0)
(-1.73196 0.0599436 0)
(-1.75752 0.0516556 0)
(-1.7815 0.0442747 0)
(-1.80377 0.0367944 0)
(-1.82323 0.0290817 0)
(-1.83915 0.0225746 0)
(-1.85225 0.0193253 0)
(-1.86452 0.020219 0)
(-1.87793 0.0241555 0)
(-1.89318 0.0287609 0)
(-1.90937 0.0317765 0)
(-1.92462 0.0322425 0)
(-1.93743 0.0308773 0)
(-1.9477 0.0292485 0)
(-1.95643 0.0282659 0)
(-1.96349 0.0276699 0)
(-1.96673 0.0271805 0)
(-0.346987 0.616163 0)
(-0.687993 0.622693 0)
(-1.01299 0.530731 0)
(-1.22989 0.438018 0)
(-1.38591 0.359907 0)
(-1.49968 0.293911 0)
(-1.58478 0.241263 0)
(-1.65078 0.199835 0)
(-1.70289 0.166255 0)
(-1.74497 0.14001 0)
(-1.78117 0.120606 0)
(-1.81411 0.105184 0)
(-1.84391 0.0911349 0)
(-1.87035 0.0785 0)
(-1.89456 0.0682454 0)
(-1.91799 0.0596961 0)
(-1.94039 0.0507853 0)
(-1.95973 0.0406857 0)
(-1.97437 0.0314174 0)
(-1.98517 0.0263849 0)
(-1.99522 0.0272185 0)
(-2.00757 0.0322748 0)
(-2.0232 0.0379914 0)
(-2.04066 0.0411493 0)
(-2.05713 0.0404689 0)
(-2.07031 0.0371494 0)
(-2.08006 0.0337666 0)
(-2.08795 0.0319753 0)
(-2.09439 0.0314026 0)
(-2.09737 0.0311405 0)
(-0.46112 1.12525 0)
(-0.892676 1.0246 0)
(-1.24921 0.79109 0)
(-1.44788 0.601376 0)
(-1.5811 0.472883 0)
(-1.67551 0.371048 0)
(-1.7432 0.297319 0)
(-1.79629 0.24483 0)
(-1.8388 0.201969 0)
(-1.87234 0.167803 0)
(-1.902 0.144549 0)
(-1.93146 0.127548 0)
(-1.95934 0.11116 0)
(-1.98349 0.0957205 0)
(-2.00529 0.0839743 0)
(-2.02762 0.0753243 0)
(-2.05042 0.0656834 0)
(-2.07001 0.0527986 0)
(-2.083 0.0396158 0)
(-2.09035 0.0320139 0)
(-2.09698 0.0330694 0)
(-2.10775 0.0401871 0)
(-2.12401 0.047874 0)
(-2.14343 0.0515137 0)
(-2.16172 0.0493981 0)
(-2.17539 0.0434371 0)
(-2.18421 0.0377489 0)
(-2.19071 0.0351359 0)
(-2.19628 0.0348635 0)
(-2.19899 0.0349042 0)
(-0.687406 2.10216 0)
(-1.22138 1.68025 0)
(-1.59836 1.08276 0)
(-1.72343 0.691426 0)
(-1.79569 0.54895 0)
(-1.85456 0.431589 0)
(-1.89088 0.34589 0)
(-1.92503 0.287278 0)
(-1.95728 0.232347 0)
(-1.97985 0.186132 0)
(-1.99938 0.162023 0)
(-2.02427 0.149138 0)
(-2.05069 0.132414 0)
(-2.07207 0.11295 0)
(-2.09006 0.0984822 0)
(-2.11074 0.090133 0)
(-2.13493 0.0800831 0)
(-2.15599 0.0634069 0)
(-2.16716 0.0444241 0)
(-2.1693 0.0332607 0)
(-2.17063 0.035577 0)
(-2.17907 0.0468337 0)
(-2.19644 0.058162 0)
(-2.21885 0.0630121 0)
(-2.23986 0.0591943 0)
(-2.25419 0.0496376 0)
(-2.26139 0.0407967 0)
(-2.26563 0.0373754 0)
(-2.26998 0.0379649 0)
(-2.27245 0.0384901 0)
(9.9959 0.138447 0)
(9.98225 0.275241 0)
(9.9581 0.412528 0)
(9.92453 0.552277 0)
(9.88242 0.696165 0)
(9.83215 0.845744 0)
(9.77398 1.00252 0)
(9.70814 1.16797 0)
(9.63491 1.34356 0)
(9.55456 1.53074 0)
(9.46738 1.73102 0)
(9.37361 1.94595 0)
(9.27353 2.17714 0)
(9.1674 2.42634 0)
(9.05545 2.69547 0)
(8.93793 2.98666 0)
(8.815 3.30236 0)
(8.68682 3.64546 0)
(8.55345 4.01949 0)
(8.4149 4.42881 0)
(8.27109 4.87906 0)
(8.1219 5.37772 0)
(7.96729 5.93494 0)
(7.80753 6.5651 0)
(7.64382 7.28925 0)
(7.48114 8.14 0)
(7.33276 9.17131 0)
(7.28877 10.4768 0)
(7.74725 12.2012 0)
(7.92963 14.92 0)
(9.99638 0.143407 0)
(9.98434 0.285096 0)
(9.96305 0.427257 0)
(9.93351 0.571888 0)
(9.89656 0.720681 0)
(9.85261 0.875193 0)
(9.80196 1.03693 0)
(9.74491 1.20738 0)
(9.68182 1.38798 0)
(9.61307 1.5802 0)
(9.53905 1.78551 0)
(9.46016 2.00545 0)
(9.37685 2.24163 0)
(9.2896 2.49576 0)
(9.19892 2.76975 0)
(9.10541 3.0657 0)
(9.0097 3.38603 0)
(8.91255 3.73361 0)
(8.81488 4.11187 0)
(8.71786 4.52509 0)
(8.6231 4.97867 0)
(8.53297 5.47965 0)
(8.45119 6.03735 0)
(8.384 6.66436 0)
(8.34261 7.37789 0)
(8.34907 8.20137 0)
(8.44225 9.16492 0)
(8.67806 10.3018 0)
(9.32532 11.5567 0)
(9.81585 12.645 0)
(9.99688 0.147844 0)
(9.98651 0.293908 0)
(9.96819 0.440408 0)
(9.94282 0.589359 0)
(9.9112 0.742455 0)
(9.87376 0.901248 0)
(9.83084 1.06724 0)
(9.78281 1.24187 0)
(9.73011 1.4266 0)
(9.6732 1.62284 0)
(9.6126 1.83203 0)
(9.54885 2.05566 0)
(9.48257 2.29529 0)
(9.41447 2.55256 0)
(9.34534 2.82929 0)
(9.27611 3.12748 0)
(9.20787 3.44938 0)
(9.14195 3.79765 0)
(9.08006 4.1754 0)
(9.02439 4.58638 0)
(8.97798 5.03521 0)
(8.9451 5.52755 0)
(8.93204 6.07038 0)
(8.94832 6.67211 0)
(9.00844 7.34216 0)
(9.13454 8.08918 0)
(9.35763 8.91502 0)
(9.6872 9.80858 0)
(10.2531 10.7184 0)
(10.9409 11.4345 0)
(9.9974 0.151706 0)
(9.98873 0.30157 0)
(9.97346 0.451815 0)
(9.95238 0.604459 0)
(9.92622 0.761187 0)
(9.89543 0.923535 0)
(9.8604 1.09297 0)
(9.82155 1.27093 0)
(9.77939 1.45881 0)
(9.73448 1.65797 0)
(9.68743 1.8698 0)
(9.63894 2.09571 0)
(9.58978 2.33717 0)
(9.54085 2.5957 0)
(9.49321 2.87298 0)
(9.44809 3.17078 0)
(9.40697 3.49113 0)
(9.37169 3.83629 0)
(9.34453 4.20882 0)
(9.32848 4.61171 0)
(9.32746 5.04836 0)
(9.34677 5.52261 0)
(9.39366 6.03858 0)
(9.47804 6.60023 0)
(9.61311 7.21034 0)
(9.81571 7.86857 0)
(10.1086 8.56782 0)
(10.5004 9.29341 0)
(11.0581 10.0352 0)
(11.8514 10.68 0)
(9.99792 0.154946 0)
(9.99101 0.30799 0)
(9.97884 0.461344 0)
(9.96211 0.617011 0)
(9.94149 0.776658 0)
(9.91744 0.941791 0)
(9.89038 1.11385 0)
(9.86079 1.2942 0)
(9.82924 1.4842 0)
(9.79637 1.68515 0)
(9.76287 1.89834 0)
(9.72957 2.12508 0)
(9.69739 2.3667 0)
(9.6674 2.62459 0)
(9.64086 2.90019 0)
(9.61925 3.19504 0)
(9.60434 3.51078 0)
(9.59833 3.8492 0)
(9.60389 4.21222 0)
(9.62443 4.60187 0)
(9.66425 5.02027 0)
(9.72888 5.46942 0)
(9.82541 5.95094 0)
(9.96279 6.46552 0)
(10.1521 7.01208 0)
(10.4063 7.58674 0)
(10.7429 8.18136 0)
(11.1733 8.78126 0)
(11.7207 9.37486 0)
(12.4739 9.88724 0)
(9.99845 0.15752 0)
(9.9933 0.313081 0)
(9.98427 0.468866 0)
(9.97193 0.62685 0)
(9.95688 0.788665 0)
(9.9396 0.955778 0)
(9.92052 1.12957 0)
(9.90019 1.31138 0)
(9.8792 1.50245 0)
(9.85828 1.70401 0)
(9.83819 1.91726 0)
(9.81985 2.14337 0)
(9.80429 2.38352 0)
(9.79273 2.63889 0)
(9.78656 2.91068 0)
(9.78743 3.20012 0)
(9.79732 3.50845 0)
(9.81859 3.83691 0)
(9.85411 4.18673 0)
(9.90736 4.55903 0)
(9.98263 4.95471 0)
(10.0852 5.37424 0)
(10.2212 5.81736 0)
(10.3985 6.2826 0)
(10.6256 6.76672 0)
(10.9124 7.26393 0)
(11.2701 7.76501 0)
(11.7065 8.25439 0)
(12.2226 8.71537 0)
(12.8985 9.10644 0)
(9.99898 0.15939 0)
(9.9956 0.316768 0)
(9.9897 0.47427 0)
(9.98175 0.633827 0)
(9.97227 0.797027 0)
(9.96171 0.965285 0)
(9.95056 1.13992 0)
(9.93938 1.3222 0)
(9.92882 1.51328 0)
(9.91962 1.71429 0)
(9.91264 1.9263 0)
(9.90884 2.15034 0)
(9.90934 2.38741 0)
(9.91543 2.63848 0)
(9.9286 2.90447 0)
(9.95059 3.18627 0)
(9.98344 3.48471 0)
(10.0295 3.8005 0)
(10.0917 4.13421 0)
(10.1734 4.48612 0)
(10.2784 4.85614 0)
(10.4115 5.24357 0)
(10.5778 5.64683 0)
(10.7834 6.06311 0)
(11.0346 6.48792 0)
(11.3379 6.91457 0)
(11.6993 7.33369 0)
(12.123 7.73189 0)
(12.603 8.09457 0)
(13.2084 8.40121 0)
(9.99951 0.160521 0)
(9.99788 0.318983 0)
(9.9951 0.477457 0)
(9.9915 0.637817 0)
(9.98751 0.801595 0)
(9.9836 0.970141 0)
(9.98024 1.14471 0)
(9.97802 1.32646 0)
(9.97763 1.51648 0)
(9.97982 1.71578 0)
(9.98549 1.92529 0)
(9.99564 2.14588 0)
(10.0114 2.37836 0)
(10.0342 2.62347 0)
(10.0654 2.88186 0)
(10.1068 3.15409 0)
(10.1605 3.44057 0)
(10.2287 3.74153 0)
(10.314 4.05697 0)
(10.4196 4.38649 0)
(10.5488 4.72924 0)
(10.7055 5.0837 0)
(10.8938 5.44748 0)
(11.118 5.81705 0)
(11.3824 6.18751 0)
(11.6908 6.5523 0)
(12.0461 6.90315 0)
(12.4496 7.22972 0)
(12.8939 7.52087 0)
(13.4369 7.76529 0)
(10 0.160887 0)
(10.0001 0.319671 0)
(10.0004 0.478349 0)
(10.0011 0.63872 0)
(10.0025 0.802248 0)
(10.005 0.970215 0)
(10.0093 1.14379 0)
(10.0158 1.32404 0)
(10.0252 1.51196 0)
(10.0383 1.70841 0)
(10.056 1.9142 0)
(10.0794 2.13004 0)
(10.1095 2.35653 0)
(10.1477 2.5942 0)
(10.1955 2.84342 0)
(10.2545 3.10445 0)
(10.3266 3.37733 0)
(10.414 3.66189 0)
(10.5189 3.95763 0)
(10.6441 4.26368 0)
(10.7923 4.57865 0)
(10.9664 4.90052 0)
(11.1696 5.2265 0)
(11.4048 5.55288 0)
(11.6745 5.8749 0)
(11.9806 6.18671 0)
(12.324 6.48144 0)
(12.7044 6.75126 0)
(13.1141 6.98781 0)
(13.6018 7.18425 0)
(10.0005 0.160464 0)
(10.0023 0.318792 0)
(10.0056 0.476884 0)
(10.0104 0.63646 0)
(10.017 0.798906 0)
(10.0259 0.965422 0)
(10.0374 1.13709 0)
(10.0522 1.31488 0)
(10.071 1.49966 0)
(10.0945 1.6922 0)
(10.1236 1.89313 0)
(10.1593 2.10302 0)
(10.2026 2.32227 0)
(10.255 2.5512 0)
(10.3177 2.78995 0)
(10.3922 3.03848 0)
(10.4804 3.29655 0)
(10.584 3.56365 0)
(10.7051 3.83894 0)
(10.8457 4.1212 0)
(11.0082 4.40872 0)
(11.1946 4.69927 0)
(11.407 4.98995 0)
(11.6472 5.27719 0)
(11.9166 5.5567 0)
(12.2156 5.82349 0)
(12.544 6.07202 0)
(12.9003 6.29642 0)
(13.2775 6.49062 0)
(13.7173 6.65048 0)
(10.001 0.159239 0)
(10.0044 0.316315 0)
(10.0106 0.473024 0)
(10.0194 0.630993 0)
(10.0311 0.791522 0)
(10.0459 0.955724 0)
(10.0644 1.12459 0)
(10.0871 1.29898 0)
(10.1147 1.47966 0)
(10.1479 1.66726 0)
(10.1876 1.86229 0)
(10.2346 2.06514 0)
(10.29 2.27607 0)
(10.3551 2.49517 0)
(10.4309 2.7224 0)
(10.519 2.95748 0)
(10.6208 3.19993 0)
(10.7378 3.44899 0)
(10.8718 3.70361 0)
(11.0242 3.96236 0)
(11.1968 4.2234 0)
(11.391 4.48444 0)
(11.6081 4.74273 0)
(11.849 4.99499 0)
(12.1141 5.23751 0)
(12.4032 5.4662 0)
(12.715 5.67672 0)
(13.0478 5.86472 0)
(13.3953 6.02596 0)
(13.7941 6.15792 0)
(10.0015 0.157203 0)
(10.0065 0.312226 0)
(10.0154 0.466751 0)
(10.028 0.622301 0)
(10.0444 0.780087 0)
(10.065 0.941131 0)
(10.0901 1.10632 0)
(10.1202 1.27643 0)
(10.156 1.45209 0)
(10.1982 1.63382 0)
(10.2475 1.822 0)
(10.3048 2.01688 0)
(10.3711 2.21855 0)
(10.4473 2.42696 0)
(10.5346 2.64186 0)
(10.6342 2.86284 0)
(10.7472 3.08922 0)
(10.875 3.32009 0)
(11.0188 3.55426 0)
(11.1798 3.79022 0)
(11.3591 4.02613 0)
(11.5575 4.25981 0)
(11.7758 4.48871 0)
(12.0142 4.71 0)
(12.2725 4.92055 0)
(12.5499 5.11708 0)
(12.8448 5.29628 0)
(13.1554 5.45499 0)
(13.4762 5.59028 0)
(13.8396 5.70066 0)
(10.0019 0.154356 0)
(10.0084 0.306524 0)
(10.0199 0.458067 0)
(10.0361 0.610398 0)
(10.0571 0.764631 0)
(10.083 0.921696 0)
(10.1142 1.08238 0)
(10.1512 1.24736 0)
(10.1946 1.41716 0)
(10.245 1.59218 0)
(10.303 1.77267 0)
(10.3695 1.95877 0)
(10.4452 2.15044 0)
(10.5311 2.34748 0)
(10.6282 2.54953 0)
(10.7372 2.75602 0)
(10.8594 2.96619 0)
(10.9955 3.17903 0)
(11.1465 3.3933 0)
(11.3132 3.60751 0)
(11.4963 3.81989 0)
(11.6962 4.02845 0)
(11.9131 4.23095 0)
(12.1468 4.42496 0)
(12.3966 4.60795 0)
(12.6615 4.77734 0)
(12.9399 4.93063 0)
(13.2299 5.06556 0)
(13.5268 5.18015 0)
(13.8598 5.27354 0)
(10.0024 0.150704 0)
(10.0102 0.299224 0)
(10.0241 0.446997 0)
(10.0438 0.595322 0)
(10.0689 0.745218 0)
(10.0997 0.897518 0)
(10.1366 1.05292 0)
(10.1799 1.21198 0)
(10.2302 1.37514 0)
(10.2879 1.5427 0)
(10.3537 1.7148 0)
(10.4282 1.89146 0)
(10.5122 2.07253 0)
(10.6064 2.25773 0)
(10.7114 2.44659 0)
(10.8282 2.63847 0)
(10.9574 2.83253 0)
(11.0996 3.02776 0)
(11.2556 3.22292 0)
(11.4257 3.4166 0)
(11.6103 3.60717 0)
(11.8095 3.79287 0)
(12.023 3.97176 0)
(12.2504 4.14184 0)
(12.4909 4.30107 0)
(12.7432 4.44748 0)
(13.0058 4.5792 0)
(13.2768 4.69465 0)
(13.5525 4.79249 0)
(13.8591 4.87229 0)
(10.0027 0.146258 0)
(10.0119 0.290349 0)
(10.0281 0.433583 0)
(10.0508 0.577142 0)
(10.0798 0.721946 0)
(10.1152 0.868734 0)
(10.1572 1.01811 0)
(10.2062 1.17055 0)
(10.2626 1.32638 0)
(10.3269 1.48582 0)
(10.3995 1.64892 0)
(10.481 1.81561 0)
(10.5719 1.98567 0)
(10.6729 2.15873 0)
(10.7845 2.33426 0)
(10.9072 2.51158 0)
(11.0417 2.68986 0)
(11.1882 2.86807 0)
(11.3471 3.04507 0)
(11.5187 3.21954 0)
(11.703 3.39003 0)
(11.8997 3.55502 0)
(12.1085 3.71287 0)
(12.3288 3.86197 0)
(12.5594 4.0007 0)
(12.7994 4.12757 0)
(13.0471 4.24121 0)
(13.3008 4.34052 0)
(13.5575 4.42463 0)
(13.8412 4.49338 0)
(10.0031 0.141037 0)
(10.0134 0.27994 0)
(10.0317 0.417887 0)
(10.0573 0.555946 0)
(10.0898 0.69494 0)
(10.1293 0.835517 0)
(10.1759 0.978192 0)
(10.23 1.12335 0)
(10.2919 1.27125 0)
(10.3618 1.42202 0)
(10.4403 1.57563 0)
(10.5276 1.73196 0)
(10.6244 1.89071 0)
(10.7309 2.05147 0)
(10.8475 2.2137 0)
(10.9748 2.37669 0)
(11.1129 2.53963 0)
(11.262 2.70157 0)
(11.4223 2.86142 0)
(11.5939 3.01803 0)
(11.7763 3.17013 0)
(11.9695 3.31642 0)
(12.1727 3.45555 0)
(12.3852 3.58624 0)
(12.606 3.70723 0)
(12.834 3.81739 0)
(13.0678 3.91575 0)
(13.3059 4.00155 0)
(13.5456 4.07425 0)
(13.8092 4.13383 0)
(10.0034 0.135066 0)
(10.0148 0.268044 0)
(10.035 0.399986 0)