/*--------------------------------*- C++ -*----------------------------------*\
  =========                 |
  \\      /  F ield         | OpenFOAM: The Open Source CFD Toolbox
   \\    /   O peration     | Website:  https://openfoam.org
    \\  /    A nd           | Version:  7
     \\/     M anipulation  |
\*---------------------------------------------------------------------------*/
FoamFile
{
    version     2.0;
    format      ascii;
    class       surfaceScalarField;
    location    "4.09";
    object      phi;
}
// * * * * * * * * * * * * * * * * * * * * * * * * * * * * * * * * * * * * * //

dimensions      [1 0 -1 0 0 0 0];

internalField   nonuniform List<scalar> 
23692
(
1.18107e-05
-1.75775e-07
1.21361e-05
-3.25073e-07
1.25964e-05
-4.59831e-07
1.31756e-05
-5.78403e-07
1.38595e-05
-6.83037e-07
1.46356e-05
-7.74929e-07
1.54917e-05
-8.54809e-07
1.64165e-05
-9.23349e-07
1.73992e-05
-9.81184e-07
1.84299e-05
-1.02895e-06
1.9499e-05
-1.06728e-06
2.05978e-05
-1.09685e-06
2.17181e-05
-1.11834e-06
2.28526e-05
-1.13244e-06
2.39946e-05
-1.13984e-06
2.5138e-05
-1.14123e-06
2.62775e-05
-1.13725e-06
2.74082e-05
-1.12856e-06
2.85262e-05
-1.11576e-06
2.96278e-05
-1.09943e-06
3.07101e-05
-1.08011e-06
3.17705e-05
-1.05829e-06
3.28071e-05
-1.03443e-06
3.38181e-05
-1.00894e-06
3.48023e-05
-9.8221e-07
3.57588e-05
-9.54567e-07
3.6687e-05
-9.26311e-07
3.75865e-05
-8.97705e-07
3.84572e-05
-8.68982e-07
3.92992e-05
-8.40338e-07
4.01127e-05
-8.11945e-07
4.08981e-05
-7.83949e-07
4.1656e-05
-7.5647e-07
4.23868e-05
-7.29607e-07
4.30915e-05
-7.03438e-07
4.37706e-05
-6.78025e-07
4.4425e-05
-6.53413e-07
4.50555e-05
-6.29633e-07
4.5663e-05
-6.06702e-07
4.62483e-05
-5.84625e-07
4.68123e-05
-5.63394e-07
4.73558e-05
-5.42996e-07
4.78796e-05
-5.23406e-07
4.83845e-05
-5.0459e-07
4.88712e-05
-4.86507e-07
4.93405e-05
-4.69108e-07
4.97928e-05
-4.52337e-07
5.02289e-05
-4.36132e-07
5.06492e-05
-4.20424e-07
5.10542e-05
-4.05136e-07
5.14441e-05
-3.90183e-07
5.18192e-05
-3.75474e-07
5.21797e-05
-3.60912e-07
5.25256e-05
-3.46388e-07
5.28569e-05
-3.31784e-07
5.31733e-05
-3.16974e-07
5.34745e-05
-3.01817e-07
5.376e-05
-2.86158e-07
5.40291e-05
-2.69827e-07
5.4281e-05
-2.52632e-07
5.45146e-05
-2.34356e-07
5.47286e-05
-2.14754e-07
5.49213e-05
-1.93538e-07
5.50908e-05
-1.70374e-07
5.52349e-05
-1.44862e-07
5.53505e-05
-1.16514e-07
5.54344e-05
-8.47304e-08
5.54823e-05
-4.87538e-08
5.54891e-05
-7.6119e-09
5.54482e-05
4.0049e-08
5.53513e-05
9.61286e-08
5.51872e-05
1.63305e-07
5.49409e-05
2.45539e-07
5.45912e-05
3.4894e-07
5.41071e-05
4.83355e-07
5.3441e-05
6.6539e-07
5.25159e-05
9.24428e-07
5.11998e-05
1.31549e-06
4.92466e-05
1.95252e-06
4.61275e-05
3.11848e-06
6.00422e-06
4.01228e-05
1.26336e-05
-3.5983e-07
1.29804e-05
-6.71588e-07
1.34723e-05
-9.51101e-07
1.40913e-05
-1.1966e-06
1.48226e-05
-1.41332e-06
1.56525e-05
-1.60365e-06
1.65681e-05
-1.76908e-06
1.75573e-05
-1.91102e-06
1.86086e-05
-2.03079e-06
1.97112e-05
-2.1297e-06
2.0855e-05
-2.20908e-06
2.20305e-05
-2.27032e-06
2.32292e-05
-2.31483e-06
2.4443e-05
-2.34403e-06
2.56648e-05
-2.35936e-06
2.68881e-05
-2.36222e-06
2.81072e-05
-2.35398e-06
2.93169e-05
-2.33598e-06
3.0513e-05
-2.30947e-06
3.16916e-05
-2.27565e-06
3.28494e-05
-2.23562e-06
3.39839e-05
-2.19043e-06
3.50927e-05
-2.141e-06
3.61742e-05
-2.08822e-06
3.7227e-05
-2.03284e-06
3.82501e-05
-1.97558e-06
3.92428e-05
-1.91704e-06
4.02048e-05
-1.85777e-06
4.1136e-05
-1.79826e-06
4.20363e-05
-1.73891e-06
4.29061e-05
-1.68007e-06
4.37458e-05
-1.62205e-06
4.45559e-05
-1.5651e-06
4.5337e-05
-1.50941e-06
4.609e-05
-1.45516e-06
4.68156e-05
-1.40246e-06
4.75147e-05
-1.35142e-06
4.81881e-05
-1.30209e-06
4.88367e-05
-1.25451e-06
4.94615e-05
-1.20868e-06
5.00634e-05
-1.16461e-06
5.06432e-05
-1.12225e-06
5.12018e-05
-1.08154e-06
5.17399e-05
-1.04244e-06
5.22585e-05
-1.00483e-06
5.27582e-05
-9.68638e-07
5.32396e-05
-9.33731e-07
5.37034e-05
-8.99984e-07
5.41501e-05
-8.67253e-07
5.45801e-05
-8.3538e-07
5.49939e-05
-8.0419e-07
5.53915e-05
-7.73496e-07
5.57733e-05
-7.43095e-07
5.61391e-05
-7.12764e-07
5.64891e-05
-6.82262e-07
5.68228e-05
-6.51328e-07
5.714e-05
-6.19674e-07
5.74401e-05
-5.86985e-07
5.77224e-05
-5.52912e-07
5.79861e-05
-5.17066e-07
5.82299e-05
-4.79008e-07
5.84526e-05
-4.3824e-07
5.86523e-05
-3.94187e-07
5.88273e-05
-3.46176e-07
5.89749e-05
-2.93409e-07
5.90924e-05
-2.34923e-07
5.91763e-05
-1.69534e-07
5.92224e-05
-9.57578e-08
5.92256e-05
-1.1691e-08
5.91795e-05
8.52392e-08
5.90763e-05
1.98537e-07
5.89056e-05
3.33063e-07
5.86546e-05
4.95795e-07
5.83056e-05
6.97062e-07
5.78356e-05
9.52625e-07
5.7213e-05
1.28724e-06
5.63959e-05
1.74077e-06
5.5332e-05
2.37871e-06
5.39706e-05
3.31318e-06
5.23496e-05
4.73886e-06
6.90357e-06
5.14497e-05
1.35129e-05
-5.5166e-07
1.38817e-05
-1.04004e-06
1.44058e-05
-1.47454e-06
1.50664e-05
-1.85638e-06
1.58475e-05
-2.19335e-06
1.67344e-05
-2.48921e-06
1.77131e-05
-2.74636e-06
1.87708e-05
-2.96699e-06
1.98949e-05
-3.15315e-06
2.10741e-05
-3.30688e-06
2.22974e-05
-3.43026e-06
2.35547e-05
-3.52545e-06
2.48368e-05
-3.59462e-06
2.61352e-05
-3.64001e-06
2.74421e-05
-3.66384e-06
2.87507e-05
-3.66828e-06
3.00547e-05
-3.65548e-06
3.13487e-05
-3.6275e-06
3.26281e-05
-3.58629e-06
3.38887e-05
-3.53371e-06
3.5127e-05
-3.47149e-06
3.63403e-05
-3.40122e-06
3.75261e-05
-3.32439e-06
3.86826e-05
-3.24232e-06
3.98083e-05
-3.15622e-06
4.09021e-05
-3.06718e-06
4.19634e-05
-2.97615e-06
4.29916e-05
-2.88398e-06
4.39868e-05
-2.79142e-06
4.49489e-05
-2.6991e-06
4.58781e-05
-2.60757e-06
4.67751e-05
-2.51729e-06
4.76402e-05
-2.42866e-06
4.84743e-05
-2.34199e-06
4.9278e-05
-2.25752e-06
5.00522e-05
-2.17547e-06
5.07979e-05
-2.09596e-06
5.15159e-05
-2.0191e-06
5.22073e-05
-1.94494e-06
5.28729e-05
-1.87349e-06
5.35137e-05
-1.80473e-06
5.41306e-05
-1.73861e-06
5.47246e-05
-1.67505e-06
5.52965e-05
-1.61394e-06
5.5847e-05
-1.55515e-06
5.63771e-05
-1.49852e-06
5.68872e-05
-1.44386e-06
5.73782e-05
-1.39099e-06
5.78505e-05
-1.33966e-06
5.83045e-05
-1.28965e-06
5.87407e-05
-1.24067e-06
5.91592e-05
-1.19245e-06
5.95603e-05
-1.14466e-06
5.9944e-05
-1.09696e-06
6.03101e-05
-1.04899e-06
6.06585e-05
-1.00034e-06
6.09887e-05
-9.50586e-07
6.13002e-05
-8.99235e-07
6.15922e-05
-8.45765e-07
6.18639e-05
-7.89588e-07
6.21141e-05
-7.30047e-07
6.23413e-05
-6.664e-07
6.2544e-05
-5.97794e-07
6.27201e-05
-5.23243e-07
6.28673e-05
-4.41584e-07
6.29829e-05
-3.51426e-07
6.30635e-05
-2.5108e-07
6.31052e-05
-1.38453e-07
6.31034e-05
-1.09051e-08
6.30527e-05
1.35021e-07
6.29465e-05
3.03846e-07
6.2777e-05
5.01656e-07
6.25351e-05
7.36774e-07
6.22105e-05
1.02078e-06
6.17923e-05
1.36998e-06
6.12713e-05
1.80744e-06
6.06457e-05
2.36559e-06
5.99349e-05
3.08875e-06
5.92136e-05
4.03381e-06
5.86954e-05
5.25635e-06
6.73215e-06
5.88662e-05
1.44534e-05
-7.51483e-07
1.48444e-05
-1.43059e-06
1.54017e-05
-2.03121e-06
1.61058e-05
-2.55959e-06
1.69394e-05
-3.0257e-06
1.78864e-05
-3.43486e-06
1.8932e-05
-3.79044e-06
2.00623e-05
-4.0955e-06
2.1264e-05
-4.3529e-06
2.25247e-05
-4.56545e-06
2.38328e-05
-4.73605e-06
2.51774e-05
-4.86765e-06
2.65485e-05
-4.9633e-06
2.79371e-05
-5.02607e-06
2.93349e-05
-5.05901e-06
3.07345e-05
-5.06515e-06
3.21291e-05
-5.04746e-06
3.35131e-05
-5.00876e-06
3.48814e-05
-4.95178e-06
3.62294e-05
-4.87907e-06
3.75537e-05
-4.79303e-06
3.88509e-05
-4.69585e-06
4.01187e-05
-4.58959e-06
4.1355e-05
-4.47607e-06
4.25583e-05
-4.35698e-06
4.37273e-05
-4.23381e-06
4.48614e-05
-4.10788e-06
4.596e-05
-3.98036e-06
4.7023e-05
-3.85228e-06
4.80504e-05
-3.72451e-06
4.90426e-05
-3.59782e-06
5e-05
-3.47285e-06
5.09231e-05
-3.35012e-06
5.18128e-05
-3.23007e-06
5.26698e-05
-3.11306e-06
5.3495e-05
-2.99935e-06
5.42894e-05
-2.88912e-06
5.50539e-05
-2.78253e-06
5.57896e-05
-2.67963e-06
5.64974e-05
-2.58045e-06
5.71784e-05
-2.48495e-06
5.78335e-05
-2.39307e-06
5.84636e-05
-2.30468e-06
5.90697e-05
-2.21964e-06
5.96526e-05
-2.13776e-06
6.0213e-05
-2.05883e-06
6.07518e-05
-1.98259e-06
6.12695e-05
-1.90876e-06
6.17668e-05
-1.83705e-06
6.2244e-05
-1.7671e-06
6.27015e-05
-1.69856e-06
6.31397e-05
-1.63103e-06
6.35587e-05
-1.56408e-06
6.39584e-05
-1.49725e-06
6.43388e-05
-1.43003e-06
6.46996e-05
-1.36189e-06
6.50405e-05
-1.29224e-06
6.53609e-05
-1.22044e-06
6.566e-05
-1.14579e-06
6.59371e-05
-1.06751e-06
6.61908e-05
-9.84751e-07
6.642e-05
-8.96541e-07
6.6623e-05
-8.01786e-07
6.6798e-05
-6.99233e-07
6.69428e-05
-5.8742e-07
6.7055e-05
-4.64631e-07
6.71317e-05
-3.28813e-07
6.71697e-05
-1.77477e-07
6.71653e-05
-7.57169e-09
6.71146e-05
1.84756e-07
6.70131e-05
4.04272e-07
6.68567e-05
6.57132e-07
6.66413e-05
9.51223e-07
6.63645e-05
1.29665e-06
6.60273e-05
1.70625e-06
6.5638e-05
2.19585e-06
6.52188e-05
2.78394e-06
6.48171e-05
3.48964e-06
6.45231e-05
4.32701e-06
6.44878e-05
5.29094e-06
6.32245e-06
6.48968e-05
1.54597e-05
-9.59781e-07
1.58732e-05
-1.84376e-06
1.64651e-05
-2.62239e-06
1.72148e-05
-3.30827e-06
1.81035e-05
-3.91321e-06
1.91143e-05
-4.44409e-06
2.02309e-05
-4.90542e-06
2.14385e-05
-5.30118e-06
2.27228e-05
-5.6351e-06
2.40705e-05
-5.91083e-06
2.5469e-05
-6.13214e-06
2.69068e-05
-6.30287e-06
2.83731e-05
-6.42696e-06
2.98582e-05
-6.50839e-06
3.13531e-05
-6.55113e-06
3.285e-05
-6.55911e-06
3.43416e-05
-6.53615e-06
3.58217e-05
-6.48595e-06
3.72849e-05
-6.41202e-06
3.87264e-05
-6.31768e-06
4.01423e-05
-6.20603e-06
4.15292e-05
-6.07994e-06
4.28845e-05
-5.94204e-06
4.42059e-05
-5.79472e-06
4.54917e-05
-5.64016e-06
4.67407e-05
-5.48028e-06
4.79522e-05
-5.31681e-06
4.91255e-05
-5.15126e-06
5.02604e-05
-4.98495e-06
5.13571e-05
-4.81903e-06
5.24159e-05
-4.65447e-06
5.34371e-05
-4.49211e-06
5.44214e-05
-4.33263e-06
5.53696e-05
-4.17659e-06
5.62826e-05
-4.02445e-06
5.71612e-05
-3.87654e-06
5.80065e-05
-3.73312e-06
5.88195e-05
-3.59435e-06
5.96013e-05
-3.46034e-06
6.03529e-05
-3.33109e-06
6.10753e-05
-3.20657e-06
6.17696e-05
-3.08667e-06
6.24367e-05
-2.97126e-06
6.30776e-05
-2.86013e-06
6.36932e-05
-2.75305e-06
6.42842e-05
-2.64972e-06
6.48516e-05
-2.54984e-06
6.53958e-05
-2.45303e-06
6.59175e-05
-2.35892e-06
6.64172e-05
-2.26705e-06
6.68952e-05
-2.17697e-06
6.73519e-05
-2.08816e-06
6.77874e-05
-2.00009e-06
6.82017e-05
-1.91218e-06
6.85948e-05
-1.82378e-06
6.89664e-05
-1.73423e-06
6.93162e-05
-1.6428e-06
6.96435e-05
-1.54869e-06
6.99479e-05
-1.45105e-06
7.02284e-05
-1.34894e-06
7.04839e-05
-1.24132e-06
7.07134e-05
-1.12704e-06
7.09153e-05
-1.00482e-06
7.10883e-05
-8.7322e-07
7.12303e-05
-7.30579e-07
7.13396e-05
-5.74994e-07
7.14139e-05
-4.04246e-07
7.1451e-05
-2.15721e-07
7.14487e-05
-6.34788e-09
7.14048e-05
2.2758e-07
7.13177e-05
4.90332e-07
7.11866e-05
7.87133e-07
7.10127e-05
1.12412e-06
7.08e-05
1.50835e-06
7.05577e-05
1.94758e-06
7.0303e-05
2.44959e-06
7.00653e-05
3.02078e-06
6.98906e-05
3.66344e-06
6.98456e-05
4.3712e-06
7.0014e-05
5.12168e-06
5.86455e-06
7.04712e-05
1.65363e-05
-1.17729e-06
1.69735e-05
-2.28044e-06
1.76016e-05
-3.24972e-06
1.83992e-05
-4.10479e-06
1.93463e-05
-4.85901e-06
2.04246e-05
-5.52079e-06
2.16168e-05
-6.09584e-06
2.29069e-05
-6.58914e-06
2.42794e-05
-7.00533e-06
2.572e-05
-7.34901e-06
2.72153e-05
-7.62486e-06
2.87529e-05
-7.83767e-06
3.03211e-05
-7.99234e-06
3.19095e-05
-8.09384e-06
3.35086e-05
-8.14711e-06
3.51096e-05
-8.15706e-06
3.67051e-05
-8.12844e-06
3.82881e-05
-8.06585e-06
3.98529e-05
-7.97368e-06
4.13945e-05
-7.85606e-06
4.29084e-05
-7.71685e-06
4.43912e-05
-7.55963e-06
4.58398e-05
-7.38767e-06
4.7252e-05
-7.20397e-06
4.86259e-05
-7.01121e-06
4.99602e-05
-6.8118e-06
5.1254e-05
-6.60789e-06
5.25067e-05
-6.40136e-06
5.37181e-05
-6.19386e-06
5.48882e-05
-5.9868e-06
5.60174e-05
-5.78141e-06
5.71061e-05
-5.5787e-06
5.8155e-05
-5.37955e-06
5.91648e-05
-5.18463e-06
6.01366e-05
-4.99452e-06
6.10713e-05
-4.80962e-06
6.19698e-05
-4.63027e-06
6.28334e-05
-4.45665e-06
6.36631e-05
-4.28887e-06
6.446e-05
-4.12698e-06
6.52252e-05
-3.9709e-06
6.59597e-05
-3.82052e-06
6.66647e-05
-3.67565e-06
6.73411e-05
-3.53604e-06
6.79897e-05
-3.4014e-06
6.86116e-05
-3.27138e-06
6.92074e-05
-3.14558e-06
6.97779e-05
-3.02355e-06
7.03236e-05
-2.90481e-06
7.08451e-05
-2.78883e-06
7.13429e-05
-2.67505e-06
7.18171e-05
-2.56284e-06
7.2268e-05
-2.45155e-06
7.26956e-05
-2.34047e-06
7.31e-05
-2.22887e-06
7.34809e-05
-2.11592e-06
7.3838e-05
-2.00077e-06
7.41708e-05
-1.88251e-06
7.44789e-05
-1.76013e-06
7.47615e-05
-1.63256e-06
7.50178e-05
-1.49864e-06
7.52467e-05
-1.35709e-06
7.54473e-05
-1.20651e-06
7.56182e-05
-1.04536e-06
7.57584e-05
-8.71929e-07
7.58665e-05
-6.84278e-07
7.59413e-05
-4.80245e-07
7.59818e-05
-2.57379e-07
7.59872e-05
-1.29408e-08
7.59575e-05
2.56135e-07
7.58936e-05
5.53115e-07
7.57979e-05
8.81665e-07
7.56753e-05
1.24559e-06
7.55341e-05
1.64854e-06
7.53871e-05
2.09354e-06
7.52535e-05
2.58208e-06
7.51605e-05
3.11286e-06
7.5143e-05
3.67992e-06
7.52431e-05
4.27027e-06
7.55027e-05
4.86121e-06
5.41815e-06
7.59482e-05
1.76886e-05
-1.405e-06
1.81506e-05
-2.74191e-06
1.8817e-05
-3.91526e-06
1.96653e-05
-4.95197e-06
2.06744e-05
-5.86674e-06
2.18247e-05
-6.66936e-06
2.30977e-05
-7.3668e-06
2.44759e-05
-7.96509e-06
2.59429e-05
-8.46987e-06
2.74832e-05
-8.8867e-06
2.90824e-05
-9.22126e-06
3.07271e-05
-9.47936e-06
3.24048e-05
-9.66696e-06
3.41042e-05
-9.79006e-06
3.58151e-05
-9.85467e-06
3.75281e-05
-9.86671e-06
3.9235e-05
-9.83196e-06
4.09286e-05
-9.75601e-06
4.26025e-05
-9.64416e-06
4.42513e-05
-9.50142e-06
4.58703e-05
-9.33249e-06
4.74557e-05
-9.1417e-06
4.90043e-05
-8.93301e-06
5.05136e-05
-8.71006e-06
5.19816e-05
-8.4761e-06
5.34068e-05
-8.23405e-06
5.47883e-05
-7.98651e-06
5.61255e-05
-7.73576e-06
5.74181e-05
-7.48378e-06
5.86662e-05
-7.2323e-06
5.987e-05
-6.9828e-06
6.10301e-05
-6.7365e-06
6.21471e-05
-6.49445e-06
6.32219e-05
-6.25748e-06
6.42555e-05
-6.02626e-06
6.52489e-05
-5.8013e-06
6.62031e-05
-5.58298e-06
6.71194e-05
-5.37154e-06
6.79989e-05
-5.16711e-06
6.88427e-05
-4.96971e-06
6.9652e-05
-4.77929e-06
7.0428e-05
-4.59568e-06
7.11717e-05
-4.41867e-06
7.18841e-05
-4.24796e-06
7.25662e-05
-4.08319e-06
7.3219e-05
-3.92393e-06
7.38432e-05
-3.76971e-06
7.44396e-05
-3.62e-06
7.50089e-05
-3.47424e-06
7.55516e-05
-3.33178e-06
7.60681e-05
-3.19197e-06
7.65588e-05
-3.05407e-06
7.7024e-05
-2.91733e-06
7.74638e-05
-2.78093e-06
7.78782e-05
-2.64401e-06
7.82671e-05
-2.50565e-06
7.86302e-05
-2.36488e-06
7.89674e-05
-2.22068e-06
7.92782e-05
-2.07194e-06
7.9562e-05
-1.91751e-06
7.98184e-05
-1.75614e-06
8.00466e-05
-1.58649e-06
8.0246e-05
-1.40715e-06
8.0416e-05
-1.21658e-06
8.0556e-05
-1.01312e-06
8.06654e-05
-7.95004e-07
8.07442e-05
-5.60309e-07
8.07926e-05
-3.06994e-07
8.08113e-05
-3.29245e-08
8.08021e-05
2.64033e-07
8.07681e-05
5.85899e-07
8.0714e-05
9.34607e-07
8.06467e-05
1.31169e-06
8.05761e-05
1.71791e-06
8.05157e-05
2.15282e-06
8.04826e-05
2.61406e-06
8.04979e-05
3.09658e-06
8.0585e-05
3.59179e-06
8.07675e-05
4.08671e-06
8.10641e-05
4.56366e-06
5.00114e-06
8.14802e-05
1.89219e-05
-1.64408e-06
1.94104e-05
-3.22987e-06
2.01176e-05
-4.62159e-06
2.10201e-05
-5.8532e-06
2.20955e-05
-6.94063e-06
2.33229e-05
-7.89489e-06
2.46824e-05
-8.72415e-06
2.61553e-05
-9.43555e-06
2.77239e-05
-1.00358e-05
2.93715e-05
-1.05315e-05
3.10826e-05
-1.09293e-05
3.28427e-05
-1.12362e-05
3.46384e-05
-1.14593e-05
3.64575e-05
-1.16057e-05
3.82888e-05
-1.16824e-05
4.01224e-05
-1.16967e-05
4.19494e-05
-1.16553e-05
4.37619e-05
-1.15648e-05
4.55532e-05
-1.14317e-05
4.73173e-05
-1.12618e-05
4.90491e-05
-1.10607e-05
5.07447e-05
-1.08336e-05
5.24005e-05
-1.05853e-05
5.40137e-05
-1.03199e-05
5.55824e-05
-1.00414e-05
5.71048e-05
-9.75323e-06
5.858e-05
-9.45852e-06
6.00072e-05
-9.15995e-06
6.13862e-05
-8.85988e-06
6.27171e-05
-8.56036e-06
6.4e-05
-8.26312e-06
6.52356e-05
-7.96963e-06
6.64246e-05
-7.68112e-06
6.75678e-05
-7.39858e-06
6.86664e-05
-7.1228e-06
6.97213e-05
-6.85438e-06
7.07337e-05
-6.59376e-06
7.17049e-05
-6.34122e-06
7.26361e-05
-6.09693e-06
7.35285e-05
-5.8609e-06
7.43833e-05
-5.63305e-06
7.52017e-05
-5.41321e-06
7.59848e-05
-5.20111e-06
7.67338e-05
-4.9964e-06
7.74497e-05
-4.79866e-06
7.81334e-05
-4.60739e-06
7.87858e-05
-4.42204e-06
7.94078e-05
-4.24201e-06
8e-05
-4.06661e-06
8.05631e-05
-3.89514e-06
8.10975e-05
-3.72682e-06
8.16038e-05
-3.56083e-06
8.20821e-05
-3.39632e-06
8.25328e-05
-3.23236e-06
8.2956e-05
-3.068e-06
8.33517e-05
-2.90223e-06
8.37198e-05
-2.734e-06
8.40603e-05
-2.56221e-06
8.43729e-05
-2.38569e-06
8.46575e-05
-2.20325e-06
8.49137e-05
-2.01362e-06
8.51415e-05
-1.81549e-06
8.53405e-05
-1.60749e-06
8.55108e-05
-1.38821e-06
8.56525e-05
-1.15617e-06
8.57661e-05
-9.09897e-07
8.58523e-05
-6.47873e-07
8.59125e-05
-3.68621e-07
8.5949e-05
-7.07535e-08
8.59648e-05
2.46869e-07
8.59644e-05
5.85022e-07
8.59536e-05
9.441e-07
8.59401e-05
1.32383e-06
8.59338e-05
1.72298e-06
8.59464e-05
2.13905e-06
8.59913e-05
2.5679e-06
8.60834e-05
3.0034e-06
8.62368e-05
3.43724e-06
8.64635e-05
3.85889e-06
8.67702e-05
4.25601e-06
4.6159e-06
8.71544e-05
2.02419e-05
-1.89591e-06
2.07591e-05
-3.74646e-06
2.15103e-05
-5.37187e-06
2.2471e-05
-6.81254e-06
2.36177e-05
-8.08569e-06
2.49281e-05
-9.20324e-06
2.63809e-05
-1.01746e-05
2.79559e-05
-1.1008e-05
2.96342e-05
-1.17112e-05
3.13978e-05
-1.22919e-05
3.32299e-05
-1.2758e-05
3.51148e-05
-1.31176e-05
3.70381e-05
-1.3379e-05
3.89866e-05
-1.35504e-05
4.09482e-05
-1.36402e-05
4.29122e-05
-1.36567e-05
4.48689e-05
-1.3608e-05
4.68099e-05
-1.35018e-05
4.87277e-05
-1.33455e-05
5.0616e-05
-1.31461e-05
5.24695e-05
-1.29102e-05
5.42835e-05
-1.26438e-05
5.60544e-05
-1.23523e-05
5.77793e-05
-1.2041e-05
5.94558e-05
-1.17142e-05
6.10822e-05
-1.13761e-05
6.26575e-05
-1.10303e-05
6.41807e-05
-1.06799e-05
6.56517e-05
-1.03277e-05
6.70705e-05
-9.97612e-06
6.84374e-05
-9.62713e-06
6.97529e-05
-9.28247e-06
7.10179e-05
-8.94356e-06
7.22332e-05
-8.61156e-06
7.34e-05
-8.28739e-06
7.45193e-05
-7.97175e-06
7.55925e-05
-7.66514e-06
7.66209e-05
-7.3679e-06
7.76056e-05
-7.0802e-06
7.85481e-05
-6.80207e-06
7.94496e-05
-6.53342e-06
8.03113e-05
-6.27404e-06
8.11346e-05
-6.02361e-06
8.19206e-05
-5.78174e-06
8.26703e-05
-5.54795e-06
8.33849e-05
-5.32166e-06
8.40652e-05
-5.10224e-06
8.47122e-05
-4.88901e-06
8.53266e-05
-4.6812e-06
8.59092e-05
-4.478e-06
8.64605e-05
-4.27857e-06
8.69811e-05
-4.08199e-06
8.74715e-05
-3.8873e-06
8.79319e-05
-3.69353e-06
8.83626e-05
-3.49962e-06
8.87639e-05
-3.30451e-06
8.9136e-05
-3.10709e-06
8.94789e-05
-2.90623e-06
8.97927e-05
-2.70074e-06
9.00777e-05
-2.48944e-06
9.03338e-05
-2.27111e-06
9.05615e-05
-2.04452e-06
9.07611e-05
-1.80845e-06
9.09331e-05
-1.56167e-06
9.10785e-05
-1.30301e-06
9.11985e-05
-1.03136e-06
9.12949e-05
-7.45687e-07
9.137e-05
-4.45138e-07
9.14268e-05
-1.2908e-07
9.14695e-05
2.02751e-07
9.1503e-05
5.50082e-07
9.15335e-05
9.1216e-07
9.15685e-05
1.28752e-06
9.16163e-05
1.67382e-06
9.16863e-05
2.06768e-06
9.17884e-05
2.46457e-06
9.19318e-05
2.85873e-06
9.21245e-05
3.2433e-06
9.23717e-05
3.6105e-06
9.26744e-05
3.95226e-06
4.26128e-06
9.30279e-05
2.16548e-05
-2.16209e-06
2.22032e-05
-4.29429e-06
2.30023e-05
-6.16986e-06
2.4026e-05
-7.83483e-06
2.525e-05
-9.30778e-06
2.66503e-05
-1.06013e-05
2.82041e-05
-1.17259e-05
2.989e-05
-1.2691e-05
3.16873e-05
-1.35054e-05
3.35768e-05
-1.4178e-05
3.55402e-05
-1.47178e-05
3.75606e-05
-1.51343e-05
3.96225e-05
-1.54368e-05
4.17114e-05
-1.56352e-05
4.38144e-05
-1.5739e-05
4.59198e-05
-1.57578e-05
4.80171e-05
-1.57009e-05
5.00971e-05
-1.55774e-05
5.21519e-05
-1.53959e-05
5.41745e-05
-1.51644e-05
5.61591e-05
-1.48905e-05
5.81009e-05
-1.45812e-05
5.99957e-05
-1.4243e-05
6.18405e-05
-1.38817e-05
6.36328e-05
-1.35025e-05
6.53706e-05
-1.31101e-05
6.70528e-05
-1.27088e-05
6.86786e-05
-1.23021e-05
7.02476e-05
-1.18933e-05
7.17599e-05
-1.14851e-05
7.32158e-05
-1.10799e-05
7.46159e-05
-1.06796e-05
7.5961e-05
-1.02859e-05
7.72522e-05
-9.90016e-06
7.84905e-05
-9.52335e-06
7.96773e-05
-9.15633e-06
8.08138e-05
-8.79965e-06
8.19014e-05
-8.45372e-06
8.29416e-05
-8.11871e-06
8.39356e-05
-7.79467e-06
8.48849e-05
-7.48149e-06
8.57908e-05
-7.17894e-06
8.66548e-05
-6.88665e-06
8.74779e-05
-6.60418e-06
8.82614e-05
-6.33097e-06
8.90065e-05
-6.0664e-06
8.97142e-05
-5.80975e-06
9.03854e-05
-5.56025e-06
9.10212e-05
-5.31707e-06
9.16222e-05
-5.07931e-06
9.21892e-05
-4.84604e-06
9.27229e-05
-4.61627e-06
9.32239e-05
-4.38899e-06
9.36927e-05
-4.16313e-06
9.41298e-05
-3.93761e-06
9.45356e-05
-3.71132e-06
9.49105e-05
-3.48313e-06
9.5255e-05
-3.25191e-06
9.55695e-05
-3.01651e-06
9.58545e-05
-2.7758e-06
9.61107e-05
-2.52866e-06
9.63387e-05
-2.27401e-06
9.65396e-05
-2.01082e-06
9.67146e-05
-1.73813e-06
9.68651e-05
-1.4551e-06
9.69932e-05
-1.16101e-06
9.71013e-05
-8.55337e-07
9.71924e-05
-5.37808e-07
9.72702e-05
-2.08438e-07
9.7339e-05
1.32376e-07
9.74039e-05
4.83635e-07
9.74707e-05
8.43853e-07
9.75458e-05
1.21094e-06
9.7636e-05
1.58217e-06
9.77482e-05
1.95405e-06
9.7889e-05
2.32244e-06
9.80638e-05
2.68256e-06
9.82766e-05
3.02918e-06
9.85289e-05
3.3569e-06
9.88193e-05
3.6606e-06
3.93626e-06
9.91431e-05
2.31671e-05
-2.4444e-06
2.375e-05
-4.87648e-06
2.46013e-05
-7.02004e-06
2.56939e-05
-8.92583e-06
2.7002e-05
-1.06138e-05
2.85002e-05
-1.20971e-05
3.01642e-05
-1.33872e-05
3.19709e-05
-1.44945e-05
3.3898e-05
-1.54291e-05
3.59248e-05
-1.6201e-05
3.80315e-05
-1.68206e-05
4.01998e-05
-1.72984e-05
4.24127e-05
-1.76454e-05
4.46547e-05
-1.78727e-05
4.69116e-05
-1.79913e-05
4.91708e-05
-1.80122e-05
5.14209e-05
-1.79462e-05
5.3652e-05
-1.78036e-05
5.58552e-05
-1.75943e-05
5.80233e-05
-1.73276e-05
6.01498e-05
-1.70122e-05
6.22295e-05
-1.66562e-05
6.42579e-05
-1.62669e-05
6.62318e-05
-1.5851e-05
6.81484e-05
-1.54147e-05
7.00057e-05
-1.49632e-05
7.18024e-05
-1.45013e-05
7.35376e-05
-1.40334e-05
7.5211e-05
-1.35629e-05
7.68226e-05
-1.30931e-05
7.83728e-05
-1.26267e-05
7.98622e-05
-1.21658e-05
8.12918e-05
-1.17125e-05
8.26627e-05
-1.12682e-05
8.39759e-05
-1.0834e-05
8.5233e-05
-1.0411e-05
8.64353e-05
-9.99974e-06
8.75843e-05
-9.6007e-06
8.86814e-05
-9.21409e-06
8.97283e-05
-8.83995e-06
9.07263e-05
-8.47816e-06
9.1677e-05
-8.12847e-06
9.25818e-05
-7.79046e-06
9.34421e-05
-7.46364e-06
9.42591e-05
-7.14739e-06
9.50341e-05
-6.84102e-06
9.57683e-05
-6.54375e-06
9.64628e-05
-6.25473e-06
9.71187e-05
-5.97305e-06
9.77369e-05
-5.69775e-06
9.83182e-05
-5.42783e-06
9.88636e-05
-5.16224e-06
9.93738e-05
-4.89991e-06
9.98496e-05
-4.63974e-06
0.000100292
-4.38061e-06
0.000100701
-4.12142e-06
0.000101077
-3.86105e-06
0.000101423
-3.59839e-06
0.000101737
-3.33238e-06
0.000102022
-3.06197e-06
0.000102278
-2.78619e-06
0.000102506
-2.50415e-06
0.000102709
-2.21503e-06
0.000102888
-1.91816e-06
0.000103044
-1.61304e-06
0.000103181
-1.29932e-06
0.0001033
-9.76931e-07
0.000103407
-6.46057e-07
0.000103504
-3.0721e-07
0.000103596
3.87844e-08
0.000103687
3.90644e-07
0.000103783
7.46361e-07
0.000103889
1.10375e-06
0.000104009
1.46014e-06
0.000104149
1.81241e-06
0.000104313
2.1571e-06
0.000104504
2.49052e-06
0.000104723
2.80891e-06
0.000104969
3.10866e-06
0.000105242
3.3866e-06
3.64064e-06
0.000105536
2.47859e-05
-2.74488e-06
2.54069e-05
-5.49674e-06
2.63158e-05
-7.9277e-06
2.74841e-05
-1.00923e-05
2.88844e-05
-1.2012e-05
3.049e-05
-1.37001e-05
3.22748e-05
-1.51689e-05
3.42139e-05
-1.64301e-05
3.62833e-05
-1.74948e-05
3.84605e-05
-1.83741e-05
4.07242e-05
-1.90799e-05
4.30544e-05
-1.9624e-05
4.54327e-05
-2.00189e-05
4.78422e-05
-2.02772e-05
5.02674e-05
-2.04114e-05
5.26945e-05
-2.04342e-05
5.51113e-05
-2.03577e-05
5.75067e-05
-2.01938e-05
5.98714e-05
-1.99538e-05
6.21973e-05
-1.96483e-05
6.44775e-05
-1.92872e-05
6.67063e-05
-1.88798e-05
6.8879e-05
-1.84345e-05
7.09919e-05
-1.7959e-05
7.30421e-05
-1.746e-05
7.50275e-05
-1.69439e-05
7.69466e-05
-1.64159e-05
7.87985e-05
-1.5881e-05
8.0583e-05
-1.53432e-05
8.23e-05
-1.48062e-05
8.395e-05
-1.42729e-05
8.55337e-05
-1.3746e-05
8.70521e-05
-1.32276e-05
8.85064e-05
-1.27193e-05
8.98978e-05
-1.22226e-05
9.1228e-05
-1.17385e-05
9.24983e-05
-1.12676e-05
9.37105e-05
-1.08106e-05
9.48661e-05
-1.03677e-05
9.59667e-05
-9.93886e-06
9.70141e-05
-9.524e-06
9.80098e-05
-9.12284e-06
9.89553e-05
-8.73492e-06
9.98523e-05
-8.3597e-06
0.000100702
-7.99651e-06
0.000101506
-7.64459e-06
0.000102266
-7.3031e-06
0.000102982
-6.97111e-06
0.000103657
-6.64767e-06
0.00010429
-6.33175e-06
0.000104885
-6.02229e-06
0.00010544
-5.71821e-06
0.000105958
-5.41839e-06
0.000106439
-5.12172e-06
0.000106884
-4.8271e-06
0.000107295
-4.53341e-06
0.000107672
-4.2396e-06
0.000108017
-3.94461e-06
0.000108331
-3.64748e-06
0.000108615
-3.3473e-06
0.00010887
-3.04324e-06
0.000109099
-2.73461e-06
0.000109303
-2.42082e-06
0.000109485
-2.10148e-06
0.000109646
-1.77636e-06
0.000109791
-1.44544e-06
0.000109921
-1.10898e-06
0.000110041
-7.67478e-07
0.000110153
-4.21751e-07
0.000110263
-7.28965e-08
0.000110374
2.77682e-07
0.000110491
6.28044e-07
0.000110617
9.7608e-07
0.000110756
1.31942e-06
0.000110911
1.65549e-06
0.000111085
1.98159e-06
0.000111279
2.29501e-06
0.000111493
2.59315e-06
0.000111727
2.87365e-06
0.000111977
3.13463e-06
3.37512e-06
0.000112241
2.65186e-05
-3.06584e-06
2.71822e-05
-6.15946e-06
2.81549e-05
-8.89907e-06
2.94068e-05
-1.13422e-05
3.0909e-05
-1.35117e-05
3.26331e-05
-1.54212e-05
3.45511e-05
-1.70835e-05
3.66361e-05
-1.85113e-05
3.88623e-05
-1.97168e-05
4.12053e-05
-2.07126e-05
4.36419e-05
-2.15116e-05
4.61503e-05
-2.21273e-05
4.87104e-05
-2.25737e-05
5.13037e-05
-2.2865e-05
5.39135e-05
-2.30155e-05
5.65245e-05
-2.30395e-05
5.91234e-05
-2.29507e-05
6.16983e-05
-2.27628e-05
6.42389e-05
-2.24885e-05
6.67364e-05
-2.21399e-05
6.91833e-05
-2.17284e-05
7.15735e-05
-2.12643e-05
7.39019e-05
-2.07573e-05
7.61645e-05
-2.02161e-05
7.83582e-05
-1.96484e-05
8.04808e-05
-1.90613e-05
8.25307e-05
-1.84608e-05
8.45071e-05
-1.78525e-05
8.64095e-05
-1.7241e-05
8.82381e-05
-1.66304e-05
8.99934e-05
-1.6024e-05
9.16762e-05
-1.54249e-05
9.32876e-05
-1.48353e-05
9.48289e-05
-1.42571e-05
9.63016e-05
-1.36921e-05
9.77073e-05
-1.31412e-05
9.90476e-05
-1.26053e-05
0.000100324
-1.2085e-05
0.000101539
-1.15805e-05
0.000102694
-1.10919e-05
0.000103791
-1.06191e-05
0.000104832
-1.01618e-05
0.000105818
-9.71946e-06
0.00010675
-9.29149e-06
0.000107632
-8.87718e-06
0.000108464
-8.47572e-06
0.000109247
-8.0862e-06
0.000109984
-7.70766e-06
0.000110675
-7.33906e-06
0.000111322
-6.97935e-06
0.000111927
-6.62742e-06
0.00011249
-6.28216e-06
0.000113014
-5.94246e-06
0.000113498
-5.60719e-06
0.000113945
-5.27526e-06
0.000114357
-4.94562e-06
0.000114733
-4.61724e-06
0.000115076
-4.28919e-06
0.000115388
-3.96058e-06
0.000115669
-3.63066e-06
0.000115923
-3.29875e-06
0.000116151
-2.96435e-06
0.000116356
-2.62707e-06
0.000116539
-2.28673e-06
0.000116704
-1.94334e-06
0.000116854
-1.5971e-06
0.000116992
-1.24848e-06
0.00011712
-8.98165e-07
0.000117244
-5.47089e-07
0.000117365
-1.96432e-07
0.000117489
1.52499e-07
0.000117617
4.97967e-07
0.000117753
8.38129e-07
0.0001179
1.17103e-06
0.000118059
1.49465e-06
0.000118231
1.80701e-06
0.000118419
2.10619e-06
0.00011862
2.39044e-06
0.000118833
2.65828e-06
0.000119058
2.90863e-06
3.14118e-06
0.00011929
2.83734e-05
-3.40994e-06
2.90847e-05
-6.86982e-06
3.01287e-05
-9.94152e-06
3.14736e-05
-1.26851e-05
3.30891e-05
-1.51245e-05
3.49446e-05
-1.72734e-05
3.70103e-05
-1.91454e-05
3.92571e-05
-2.07539e-05
4.16572e-05
-2.21123e-05
4.41837e-05
-2.32342e-05
4.68116e-05
-2.41341e-05
4.95169e-05
-2.4827e-05
5.22778e-05
-2.53286e-05
5.50738e-05
-2.56549e-05
5.78866e-05
-2.58221e-05
6.06997e-05
-2.58461e-05
6.34982e-05
-2.57428e-05
6.62693e-05
-2.55274e-05
6.90017e-05
-2.52144e-05
7.16859e-05
-2.48176e-05
7.43138e-05
-2.43498e-05
7.68787e-05
-2.38228e-05
7.93751e-05
-2.32475e-05
8.17989e-05
-2.26337e-05
8.41466e-05
-2.19902e-05
8.64159e-05
-2.13248e-05
8.86053e-05
-2.06447e-05
9.07139e-05
-1.99557e-05
9.27412e-05
-1.92632e-05
9.46876e-05
-1.85718e-05
9.65535e-05
-1.78853e-05
9.834e-05
-1.7207e-05
0.000100048
-1.65394e-05
0.00010168
-1.58849e-05
0.000103236
-1.5245e-05
0.00010472
-1.46211e-05
0.000106132
-1.4014e-05
0.000107474
-1.34245e-05
0.000108749
-1.28529e-05
0.000109958
-1.22991e-05
0.000111104
-1.17631e-05
0.000112189
-1.12446e-05
0.000113213
-1.07429e-05
0.000114181
-1.02575e-05
0.000115092
-9.78769e-06
0.00011595
-9.33247e-06
0.000116755
-8.89094e-06
0.000117509
-8.4621e-06
0.000118215
-8.04486e-06
0.000118874
-7.63813e-06
0.000119487
-7.24078e-06
0.000120056
-6.85169e-06
0.000120582
-6.46973e-06
0.000121068
-6.09382e-06
0.000121515
-5.72288e-06
0.000121924
-5.35592e-06
0.000122297
-4.99198e-06
0.000122637
-4.63021e-06
0.000122944
-4.26985e-06
0.000123222
-3.91025e-06
0.000123473
-3.55089e-06
0.000123698
-3.1914e-06
0.0001239
-2.83158e-06
0.000124083
-2.47138e-06
0.000124249
-2.11096e-06
0.0001244
-1.75066e-06
0.000124541
-1.39102e-06
0.000124673
-1.03279e-06
0.000124801
-6.76908e-07
0.000124927
-3.24466e-07
0.000125054
2.3418e-08
0.000125185
3.65335e-07
0.000125321
6.99718e-07
0.000125465
1.02507e-06
0.000125618
1.33992e-06
0.00012578
1.64285e-06
0.000125952
1.93255e-06
0.000126133
2.20791e-06
0.000126321
2.46803e-06
0.000126516
2.71233e-06
2.9409e-06
0.000126714
3.03588e-05
-3.78027e-06
3.1124e-05
-7.63392e-06
3.22479e-05
-1.10638e-05
3.36972e-05
-1.41319e-05
3.54393e-05
-1.68635e-05
3.74417e-05
-1.92722e-05
3.96722e-05
-2.13718e-05
4.20996e-05
-2.31766e-05
4.46933e-05
-2.47008e-05
4.74243e-05
-2.59596e-05
5.02649e-05
-2.69686e-05
5.31889e-05
-2.77447e-05
5.61722e-05
-2.83053e-05
5.91925e-05
-2.86683e-05
6.22294e-05
-2.8852e-05
6.52648e-05
-2.88744e-05
6.82825e-05
-2.87533e-05
7.12685e-05
-2.8506e-05
7.42104e-05
-2.8149e-05
7.70978e-05
-2.76978e-05
7.9922e-05
-2.71668e-05
8.26758e-05
-2.65695e-05
8.53534e-05
-2.59181e-05
8.79502e-05
-2.52237e-05
9.04628e-05
-2.44961e-05
9.28887e-05
-2.37443e-05
9.52263e-05
-2.2976e-05
9.74747e-05
-2.21981e-05
9.96338e-05
-2.14165e-05
0.000101704
-2.06363e-05
0.000103685
-1.98617e-05
0.00010558
-1.90965e-05
0.000107388
-1.83434e-05
0.000109113
-1.76051e-05
0.000110755
-1.68833e-05
0.000112317
-1.61795e-05
0.000113801
-1.54947e-05
0.00011521
-1.48296e-05
0.000116544
-1.41845e-05
0.000117807
-1.35596e-05
0.000119001
-1.29547e-05
0.000120128
-1.23695e-05
0.00012119
-1.18034e-05
0.000122189
-1.12557e-05
0.000123128
-1.07256e-05
0.000124009
-1.02122e-05
0.000124833
-9.71454e-06
0.000125603
-9.23153e-06
0.00012632
-8.76209e-06
0.000126987
-8.30507e-06
0.000127605
-7.85935e-06
0.000128177
-7.42379e-06
0.000128704
-6.99728e-06
0.000129188
-6.57875e-06
0.000129631
-6.16718e-06
0.000130035
-5.76161e-06
0.000130403