/*--------------------------------*- C++ -*----------------------------------*\
  =========                 |
  \\      /  F ield         | OpenFOAM: The Open Source CFD Toolbox
   \\    /   O peration     | Website:  https://openfoam.org
    \\  /    A nd           | Version:  7
     \\/     M anipulation  |
\*---------------------------------------------------------------------------*/
FoamFile
{
    version     2.0;
    format      ascii;
    class       volScalarField;
    location    "4.5";
    object      p;
}
// * * * * * * * * * * * * * * * * * * * * * * * * * * * * * * * * * * * * * //

dimensions      [0 2 -2 0 0 0 0];

internalField   nonuniform List<scalar> 
2790
(
147.125
147.032
147.299
147.87
148.65
149.608
150.74
152.046
153.523
155.164
156.963
158.914
161.008
163.233
165.573
168.009
170.513
173.052
175.584
178.058
180.417
182.594
184.525
186.145
187.405
188.279
188.715
188.771
188.822
189.034
146.922
146.939
147.232
147.8
148.576
149.53
150.658
151.959
153.428
155.06
156.851
158.791
160.874
163.088
165.417
167.843
170.339
172.872
175.402
177.88
180.249
182.444
184.398
186.047
187.331
188.206
188.603
188.657
188.79
189.075
146.723
146.811
147.122
147.68
148.443
149.384
150.497
151.78
153.228
154.835
156.598
158.507
160.555
162.73
165.019
167.401
169.853
172.343
174.835
177.283
179.633
181.825
183.798
185.487
186.838
187.814
188.407
188.763
189.078
189.377
146.498
146.617
146.94
147.49
148.238
149.163
150.256
151.515
152.934
154.508
156.232
158.097
160.096
162.216
164.445
166.762
169.147
171.57
173.997
176.388
178.695
180.866
182.848
184.588
186.043
187.195
188.063
188.734
189.286
189.805
146.237
146.37
146.702
147.244
147.976
148.88
149.947
151.174
152.556
154.088
155.762
157.571
159.507
161.557
163.709
165.945
168.243
170.578
172.919
175.232
177.478
179.613
181.595
183.385
184.956
186.298
187.429
188.391
189.202
189.949
145.936
146.075
146.409
146.941
147.653
148.531
149.567
150.756
152.094
153.573
155.188
156.931
158.792
160.759
162.821
164.959
167.154
169.383
171.62
173.835
175.998
178.075
180.037
181.858
183.521
185.023
186.369
187.575
188.595
189.513
145.594
145.733
146.065
146.583
147.273
148.12
149.12
150.265
151.551
152.971
154.518
156.183
157.958
159.831
161.788
163.814
165.89
167.996
170.108
172.204
174.259
176.251
178.158
179.968
181.674
183.275
184.769
186.148
187.313
188.359
145.209
145.346
145.671
146.173
146.836
147.65
148.608
149.703
150.931
152.284
153.754
155.334
157.012
158.778
160.618
162.517
164.458
166.423
168.39
170.342
172.259
174.127
175.934
177.676
179.355
180.974
182.529
184.001
185.251
186.401
144.783
144.916
145.23
145.713
146.347
147.123
148.035
149.075
150.239
151.517
152.904
154.388
155.96
157.609
159.319
161.078
162.867
164.671
166.47
168.249
169.992
171.69
173.338
174.938
176.5
178.035
179.543
181.014
182.285
183.523
144.317
144.445
144.745
145.206
145.808
146.543
147.404
148.385
149.478
150.677
151.972
153.353
154.81
156.33
157.9
159.504
161.125
162.747
164.353
165.927
167.455
168.929
170.347
171.715
173.048
174.367
175.687
177.025
178.225
179.53
143.811
143.933
144.218
144.654
145.222
145.912
146.719
147.636
148.655
149.768
150.965
152.236
153.57
154.952
156.37
157.806
159.243
160.664
162.051
163.385
164.653
165.843
166.95
167.978
168.942
169.871
170.801
171.8
172.762
174.08
143.269
143.384
143.652
144.06
144.591
145.235
145.985
146.834
147.774
148.796
149.89
151.045
152.248
153.485
154.74
155.996
157.235
158.436
159.578
160.64
161.601
162.444
163.152
163.717
164.144
164.453
164.696
165.004
165.386
166.559
142.692
142.799
143.049
143.428
143.92
144.514
145.204
145.982
146.84
147.768
148.754
149.788
150.854
151.938
153.024
154.09
155.117
156.081
156.956
157.715
158.328
158.762
158.984
158.959
158.656
158.058
157.183
156.191
155.243
155.748
142.083
142.181
142.412
142.761
143.212
143.755
144.383
145.087
145.86
146.69
147.565
148.473
149.399
150.325
151.234
152.103
152.908
153.622
154.213
154.645
154.875
154.852
154.514
153.781
152.558
150.729
148.166
144.864
140.916
138.881
141.444
141.534
141.743
142.061
142.47
142.96
143.524
144.154
144.839
145.569
146.331
147.11
147.892
148.657
149.385
150.052
150.63
151.086
151.382
151.473
151.299
150.789
149.844
148.329
146.05
142.717
137.874
130.858
120.397
108.176
1.37268
1.35406
1.28743
1.19439
1.09632
1.00336
0.918595
0.842219
0.773511
0.711387
0.654599
0.601909
0.552207
0.504575
0.458331
0.413055
0.368618
0.325192
0.283203
0.243205
0.205695
0.170936
0.138976
0.109937
0.0841925
0.0620166
0.0435411
0.0285392
0.016066
0.00440266
1.32463
1.30287
1.24004
1.15441
1.06425
0.978232
0.899109
0.827218
0.762026
0.702621
0.647914
0.596797
0.548257
0.501446
0.455729
0.410728
0.366364
0.322875
0.280777
0.240715
0.20324
0.168633
0.136954
0.108207
0.0825506
0.0605283
0.0423407
0.0278288
0.0160042
0.00613525
1.27301
1.24654
1.18593
1.10719
1.02542
0.947133
0.874498
0.807874
0.746887
0.690789
0.638649
0.5895
0.54244
0.496702
0.451712
0.407139
0.362957
0.319481
0.27734
0.237308
0.200014
0.1657
0.134271
0.105633
0.0800079
0.0578967
0.0400691
0.0265212
0.0159069
0.00619462
1.22512
1.19403
1.13486
1.06195
0.987764
0.916619
0.85006
0.78842
0.731457
0.678566
0.628951
0.581769
0.536221
0.491622
0.447457
0.403444
0.359591
0.316265
0.274175
0.234211
0.197103
0.163093
0.13194
0.10342
0.0777604
0.0556475
0.0378851
0.0247068
0.0150651
0.0056419
1.19481
1.15928
1.10167
1.03299
0.964214
0.897813
0.835197
0.776713
0.722258
0.671337
0.623253
0.577251
0.532607
0.488701
0.445078
0.401492
0.357971
0.31489
0.272973
0.23314
0.196189
0.162442
0.131749
0.103824
0.0786907
0.0567224
0.0387953
0.0251347
0.0148677
0.00503417
1.19371
1.15276
1.09604
1.02856
0.961561
0.896109
0.834057
0.775892
0.72162
0.670795
0.62275
0.576758
0.532126
0.488271
0.444768
0.401396
0.358184
0.315476
0.273924
0.234363
0.197539
0.163823
0.133143
0.105318
0.0803868
0.0586412
0.0406612
0.0265549
0.0153582
0.00483266
1.23081
1.18242
1.12224
1.05082
0.979647
0.910624
0.845404
0.784604
0.728158
0.67555
0.626062
0.57894
0.53348
0.489093
0.445355
0.402042
0.35917
0.317028
0.276149
0.237183
0.200719
0.16709
0.136316
0.108337
0.0832188
0.0610492
0.0421796
0.0269098
0.0143997
0.0042719
1.30987
1.24966
1.17729
1.09411
1.01243
0.935094
0.863391
0.797503
0.737131
0.681554
0.629842
0.581094
0.534515
0.489441
0.4454
0.402156
0.359708
0.318329
0.278422
0.240397
0.204603
0.171277
0.140425
0.112126
0.086446
0.0637236
0.0440936
0.0271794
0.0131244
0.00368839
1.42635
1.34285
1.24818
1.14496
1.04762
0.95936
0.880132
0.808613
0.743813
0.685036
0.631083
0.58084
0.533361
0.487845
0.443704
0.400688
0.35884
0.318538
0.280094
0.243567
0.208866
0.175959
0.144683
0.11557
0.0893115
0.0661325
0.0456279
0.0271252
0.0117904
0.0031554
1.55617
1.43727
1.316
1.19308
1.07766
0.975191
0.886315
0.809692
0.742671
0.682642
0.627847
0.577052
0.529321
0.483768
0.439652
0.396779
0.355664
0.316884
0.280602
0.24632
0.21318
0.180588
0.149001
0.119152
0.0920756
0.0681906
0.0467193
0.0267326
0.0104027
0.00266568
1.65451
1.50846
1.35691
1.2117
1.084
0.974344
0.881049
0.801793
0.733798
0.673836
0.61935
0.56893
0.521789
0.476978
0.433464
0.390993
0.350512
0.313277
0.279574
0.248211
0.217332
0.185692
0.153585
0.122499
0.0942493
0.0695654
0.047291
0.0261616
0.00915283
0.00223914
1.71839
1.52958
1.35175
1.18876
1.05285
0.942157
0.851141
0.775343
0.711337
0.655122
0.603292
0.554638
0.50919
0.466174
0.42397
0.382057
0.342179
0.306889
0.27685
0.249764
0.222085
0.191541
0.158473
0.125398
0.0954145
0.0698743
0.0471848
0.0254543
0.00810767
0.00189638
1.67822
1.4263
1.23767
1.085
0.964356
0.869883
0.792808
0.728144
0.67424
0.626603
0.580162
0.534341
0.491458
0.45147
0.411417
0.369846
0.329841
0.296512
0.271556
0.250858
0.227888
0.198693
0.163886
0.127643
0.0950949
0.0687027
0.0462806
0.0246942
0.00733164
0.00165383
1.3719
1.07424
0.954573
0.875689
0.804178
0.751178
0.704891
0.659817
0.622285
0.589159
0.550971
0.507941
0.467974
0.432947
0.396715
0.35509
0.313229
0.28122
0.263187
0.252022
0.235897
0.20818
0.17027
0.128997
0.0926278
0.0654704
0.0444499
0.0240387
0.00690327
0.00152468
0.627992
0.288913
0.412894
0.554203
0.570983
0.595125
0.600618
0.57519
0.554602
0.544817
0.519959
0.477776
0.439361
0.411734
0.381973
0.338893
0.291053
0.258155
0.249654
0.253363
0.247468
0.221254
0.178099
0.129045
0.0870069
0.059294
0.0415403
0.0238048
0.00692997
0.00151494
140.764
140.845
141.034
141.318
141.683
142.118
142.616
143.168
143.763
144.39
145.035
145.683
146.317
146.916
147.459
147.918
148.262
148.453
148.447
148.187
147.601
146.592
145.027
142.714
139.351
134.445
127.073
115.322
93.1602
33.363
140.037
140.109
140.275
140.524
140.843
141.221
141.65
142.121
142.623
143.143
143.668
144.18
144.662
145.092
145.445
145.692
145.798
145.721
145.411
144.801
143.808
142.318
140.172
137.139
132.862
126.755
117.785
104.221
84.6957
56.2415
139.268
139.329
139.472
139.686
139.957
140.276
140.635
141.023
141.429
141.841
142.242
142.617
142.945
143.204
143.366
143.402
143.272
142.933
142.327
141.385
140.014
138.095
135.462
131.886
127.041
120.473
111.59
99.756
85.5212
68.9021
138.457
138.508
138.627
138.804
139.027
139.286
139.573
139.877
140.186
140.488
140.766
141.003
141.178
141.267
141.242
141.07
140.713
140.122
139.24
137.995
136.294
134.021
131.023
127.105
122.018
115.471
107.168
96.7746
84.2303
69.0963
137.607
137.648
137.743
137.882
138.056
138.254
138.468
138.688
138.9
139.092
139.248
139.348
139.372
139.295
139.089
138.719
138.147
137.323
136.192
134.682
132.708
130.163
126.918
122.818
117.681
111.309
103.5
94.0132
82.6805
69.709
136.721
136.751
136.821
136.923
137.047
137.184
137.325
137.461
137.577
137.661
137.695
137.662
137.54
137.304
136.925
136.369
135.598
134.566
133.217
131.487
129.298
126.56
123.168
119.001
113.932
107.824
100.555
92.0261
82.2282
71.574
135.8
135.819
135.864
135.929
136.003
136.08
136.15
136.202
136.224
136.201
136.119
135.957
135.695
135.307
134.767
134.041
133.092
131.876
130.344
128.438
126.092
123.23
119.773
115.631
110.719
104.957
98.2915
90.7108
82.2586
73.2708
134.847
134.857
134.877
134.904
134.93
134.947
134.946
134.917
134.847
134.722
134.527
134.242
133.848
133.321
132.632
131.753
130.648
129.277
127.597
125.558
123.105
120.18
116.723
112.674
107.98
102.6
96.5219
89.765
82.3793
74.6371
133.868
133.867
133.863
133.854
133.832
133.79
133.721
133.613
133.454
133.232
132.93
132.53
132.014
131.357
130.536
129.522
128.283
126.785
124.99
122.858
120.344
117.405
113.998
110.086
105.639
100.644
95.1048
89.0571
82.5541
75.8234
132.865
132.854
132.827
132.781
132.713
132.615
132.48
132.296
132.054
131.739
131.336
130.83
130.202
129.43
128.492
127.362
126.012
124.414
122.535
120.343
117.805
114.89
111.57
107.822
103.634
99.0069
93.9588
88.5287
82.7697
76.8668
131.843
131.822
131.773
131.693
131.58
131.428
131.229
130.975
130.653
130.251
129.757
129.154
128.424
127.55
126.511
125.284
123.845
122.171
120.236
118.015
115.483
112.62
109.409
105.839
101.91
97.6296
93.0227
88.1283
82.9945
77.7695
130.807
130.777
130.706
130.593
130.438
130.235
129.977
129.655
129.259
128.779
128.2
127.509
126.691
125.728
124.603
123.297
121.79
120.062
118.094
115.868
113.366
110.576
107.488
104.102
100.421
96.4611
92.2472
87.8155
83.208
78.5438
129.762
129.724
129.632
129.488
129.293
129.042
128.729
128.345
127.882
127.328
126.674
125.906
125.01
123.972
122.776
121.408
119.85
118.089
116.108
113.895
111.44
108.736
105.78
102.574
99.1289
95.4611
91.5949
87.563
83.401
79.2052
128.715
128.668
128.557
128.384
128.152
127.856
127.492
127.051
126.527
125.909
125.187
124.351
123.389
122.288
121.036
119.621
118.029
116.25
114.273
112.089
109.693
107.082
104.259
101.228
98.0018
94.5977
91.0383
87.352
83.5689
79.767
127.671
127.616
127.488
127.288
127.021
126.685
126.274
125.782
125.202
124.526
123.746
122.852
121.835
120.684
119.388
117.939
116.327
114.544
112.583
110.439
108.11
105.596
102.903
100.038
97.0134
93.8462
90.5567
87.1695
83.7101
80.2415
126.636
126.575
126.43
126.205
125.907
125.534
125.081
124.543
123.915
123.189
122.359
121.416
120.353
119.162
117.835
116.364
114.743
112.967
111.031
108.934
106.676
104.261
101.693
98.983
96.1423
93.1867
90.1345
87.0067
83.8245
80.6397
125.618
125.55
125.39
125.144
124.817
124.41
123.92
123.342
122.671
121.903
121.03
120.047
118.948
117.727
116.378
114.895
113.275
111.514
109.611
107.566
105.381
103.061
100.613
98.0456
95.3713
92.6042
89.7602
86.8574
83.9136
80.9713
124.623
124.549
124.376
124.11
123.758
123.322
122.799
122.186
121.479
120.674
119.766
118.751
117.624
116.381
115.019
113.532
111.92
110.181
108.315
106.324
104.212
101.984
99.6473
97.211
94.6865
92.0866
89.4253
86.7179
83.9795
81.2452
123.659
123.58
123.395
123.111
122.737
122.275
121.724
121.08
120.343
119.507
118.571
117.531
116.384
115.127
113.758
112.274
110.676
108.963
107.137
105.201
103.16
101.018
98.7844
96.4673
94.0769
91.6249
89.1235
86.5859
84.0248
81.4692
122.732
122.649
122.453
122.154
121.76
121.276
120.701
120.032
119.269
118.409
117.451
116.392
115.231
113.965
112.595
111.12
109.539
107.855
106.071
104.189
102.214
100.154
98.0144
95.8046
93.5338
91.2122
88.8506
86.4603
84.0522
81.6504
121.851
121.764
121.559
121.246
120.836
120.333
119.737
119.048
118.264
117.384
116.409
115.337
114.166
112.898
111.531
110.067
108.507
106.854
105.11
103.28
101.369
99.3828
97.3291
95.2154
93.0505
90.8434
88.6037
86.341
84.0648
81.7952
121.023
120.932
120.72
120.396
119.971
119.452
118.84
118.133
117.332
116.438
115.45
114.368
113.193
111.926
110.566
109.116
107.578
105.955
104.251
102.47
100.617
98.6988
96.722
94.6938
92.6221
90.515
88.381
86.2285
84.0658
81.9096
120.257
120.163
119.944
119.609
119.173
118.641
118.014
117.293
116.48
115.574
114.578
113.49
112.314
111.05
109.699
108.265
106.749
105.156
103.489
101.753
99.9537
98.0965
96.188
94.235
92.2446
90.2242
88.1814
86.1235
84.0579
81.9984
119.559
119.463
119.238
118.895
118.448
117.905
117.267
116.536
115.713
114.799
113.796
112.706
111.531
110.272
108.932
107.514
106.02
104.455
102.823
101.128
99.376
97.5727
95.7241
93.8364
91.9163
89.9705
88.0056
86.0284
84.0452
82.0679
118.94
118.841
118.611
118.26
117.805
117.253
116.606
115.866
115.035
114.116
113.11
112.019
110.847
109.594
108.265
106.862
105.389
103.849
102.248
100.59
98.88
97.1235
95.3265
93.4948
91.6345
89.7517
87.8525
85.9429
84.0288
82.1198
118.408
118.307
118.07
117.712
117.25
116.691
116.037
115.291
114.455
113.532
112.524
111.435
110.266
109.02
107.702
106.313
104.859
103.342
101.768
100.141
98.467
96.7503
94.9968
93.212
91.4015
89.5712
87.7265
85.8729
84.0159
82.1636
117.974
117.868
117.624
117.259
116.79
116.224
115.565
114.814
113.974
113.049
112.041
110.953
109.788
108.549
107.24
105.865
104.426
102.929
101.378
99.7772
98.1323
96.4481
94.7298
92.9827
91.2123
89.4238
87.6224
85.8132
84.001
82.1927
117.648
117.536
117.284
116.911
116.438
115.868
115.204
114.45
113.607
112.681
111.673
110.587
109.425
108.193
106.892
105.526
104.101
102.62
101.087
99.5069
97.8852
96.2264
94.5357
92.8181
91.0788
89.3228
87.555
85.7802
84.0033
82.2301
117.446
117.311
117.041
116.663
116.186
115.614
114.948
114.192
113.349
112.422
111.415
110.331
109.173
107.945
106.65
105.292
103.876
102.406
100.886
99.32
97.714
96.0724
94.4001
92.7021
90.9833
89.2486
87.5026
85.7501
83.9953
82.2434
117.427
117.228
116.93
116.546
116.067
115.491
114.822
114.064
113.22
112.293
111.287
110.205
109.049
107.825
106.535
105.183
103.773
102.31
100.799
99.2427
97.647
96.0165
94.356
92.6704
90.9645
89.2429
87.5105
85.7715
84.0304
82.2913
-50.5442
-30.3253
-11.0418
35.9042
28.534
16.6503
51.4355
39.3839
28.222
52.8403
42.4328
34.4089
57.1704
48.8951
42.1515
61.5521
54.6533
48.7713
64.8179
58.9437
53.901
67.4066
62.3869
58.0823
69.5884
65.2599
61.5543
71.4298
67.6538
64.429
72.9777
69.6493
66.814
74.2815
71.3205
68.803
75.3818
72.7249
70.4695
76.3108
73.9082
71.8707
77.0949
74.9068
73.0524
77.7559
75.7501
74.0507
78.3122
76.4622
74.8946
78.7788
77.0626
75.6079
79.1687
77.5678
76.2098
79.4929
77.9915
76.7167
79.7609
78.3454
77.1419
79.9814
78.6398
77.4975
80.161
78.8828
77.7928
80.3078
79.0834
78.0376
80.4243
79.2452
78.2364
80.5222
79.3804
78.4017
80.5929
79.4809
78.527
80.6649
79.5757
78.6389
80.6984
79.6255
78.7028
80.7673
79.7085
78.7922
-2.41697
-2.28142
-0.826267
0.291626
0.340607
0.416441
0.476569
0.45543
0.456874
0.502719
0.50241
0.44741
0.400003
0.382175
0.366277
0.321158
0.261179
0.223878
0.229664
0.257923
0.267508
0.241687
0.189187
0.127753
0.0769051
0.0487785
0.0373686
0.0247371
0.00768835
0.00162077
2.91295
-0.109119
1.2876
0.876232
-0.353819
-0.198166
0.368721
0.426903
0.420365
0.513409
0.501334
0.39297
0.325935
0.342911
0.370048
0.320969
0.231641
0.175934
0.197048
0.264302
0.297235
0.269782
0.201693
0.121535
0.0578175
0.0302832
0.0311926
0.0283162
0.00983163
0.0018064
13.9824
5.58006
2.76694
0.442244
0.0327406
1.16833
1.37848
0.280579
-0.149715
0.163066
0.516403
0.403689
0.296627
0.348708
0.40514
0.317365
0.1607
0.0641656
0.116828
0.27356
0.357963
0.320903
0.225517
0.117186
0.0336482
0.0056279
0.0254445
0.0389605
0.0158225
0.00198642
23.6802
13.8198
7.975
4.21921
2.41556
1.75988
0.681233
-0.00404976
0.192934
1.34535
1.37146
0.309824
-0.110551
-0.000959702
0.333298
0.377769
0.138477
-0.015858
0.10875
0.337467
0.456358
0.380138
0.238623
0.0892135
-0.024541
-0.0544374
0.00147979
0.0558645
0.0282092
0.00167167
32.8247
23.0746
15.765
10.4699
6.81954
4.33751
2.49732
1.46057
1.1224
1.18524
0.713505
0.14911
-0.0330373
0.527227
1.07332
0.675032
0.00786331
-0.400436
-0.366737
0.234963
0.59867
0.482097
0.274527
0.077715
-0.0678955
-0.0924805
0.0320073
0.12303
0.0651534
0.000345383
40.782
31.8639
23.9823
17.5537
12.6277
8.97787
6.30073
4.41052
3.13283
2.25377
1.49043
0.884229
0.561398
0.653186
0.663299
0.425615
-0.0939286
-0.45531
-0.103602
0.85595
1.03364
0.544723
0.239218
-0.00677956
-0.200509
-0.267807
-0.125699
0.143593
0.12539
-0.00528277
47.2734
39.4731
31.7023
24.816
19.1916
14.729
11.2046
8.45129
6.35364
4.78024
3.55207
2.56553
1.85742
1.44481
1.13354
0.775223
0.282403
-0.036364
0.149344
0.599652
0.754388
0.559496
0.290666
0.0188694
-0.212112
-0.262903
0.0924745
0.417065
0.258742
-0.0165244
52.5605
45.8324
38.5783
31.7513
25.8697
20.924
16.7839
13.3608
10.5864
8.36535
6.5654
5.09485
3.94399
3.0941
2.43376
1.82336
1.22899
0.821823
0.75289
0.893103
0.938027
0.739087
0.422028
0.117185
-0.110175
-0.158624
0.041502
0.235615
0.285634
-0.0697599
56.8734
51.0583
44.4761
38.0044
32.1876
27.0762
22.6063
18.7426
15.4548
12.6872
10.3613
8.41384
6.81262
5.52142
4.46146
3.54356
2.74725
2.14626
1.80578
1.65196
1.48461
1.17726
0.7958
0.446684
0.192834
0.0942921
0.164257
0.261789
0.222643
-0.306027
60.3928
55.3259
49.4242
43.4402
37.8869
32.8418
28.2761
24.1854
20.5707
17.4129
14.6734
12.3118
10.2951
8.58795
7.13822
5.89196
4.82712
3.965
3.32481
2.85429
2.43049
1.96726
1.48604
1.05152
0.712754
0.503901
0.418272
0.351354
0.136924
-0.523036
63.2829
58.8235
53.5436
48.0755
42.879
38.0373
33.5375
29.391
25.6184
22.2248
19.1974
16.5153
14.156
12.0941
10.2968
8.72953
7.37082
6.21856
5.26955
4.4855
3.79244
3.13113
2.49825
1.92662
1.44845
1.08019
0.803455
0.534828
0.143141
-0.602352
65.6764
61.7125
56.9741
51.9947
47.1793
42.6064
38.2689
34.1839
30.3808
26.8779
23.6787
20.7772
18.1629
15.8215
13.7334
11.877
10.2346
8.7963
7.55058
6.46904
5.50516
4.61729
3.7926
3.0435
2.38635
1.82496
1.33636
0.856185
0.290665
-0.532065
67.6727
64.1168
59.841
55.3012
50.8538
46.5691
42.441
38.4865
34.7372
31.2175
27.9399
24.9085
22.1222
19.5756
17.2592
15.1603
13.2668
11.568
10.0514
8.69573
7.47046
6.3462
5.30802
4.35625
3.49521
2.72073
2.01014
1.31543
0.573138
-0.338362
69.347
66.1305
62.2481
58.0944
53.9852
49.9825
46.0788
42.2888
38.6426
35.1666
31.8777
28.7857
25.896
23.2095
20.7239
18.4333
16.3304
14.4071
12.6528
11.0521
9.58438
8.22881
6.97126
5.80583
4.72941
3.73359
2.79818
1.8883
0.962759
-0.0589488
70.7569
67.8255
64.2778
60.46
56.6541
52.9146
49.2322
45.6182
42.1001
38.7037
35.4473
32.3439
29.4024
26.6283
24.0237
21.588
19.3178
17.2082
15.2517
13.4376
11.7518
10.1795
8.70835
7.33011
6.03785
4.82147
3.66382
2.53979
1.42309
0.265198
71.9475
69.2569
65.9952
62.4687
58.9314
55.4315
51.958
48.5189
45.1382
41.8401
38.6428
35.5603
32.6037
29.7809
27.0974
24.5556
22.1556
19.8953
17.7703
15.7736
13.8958
12.1262
10.4547
8.87275
7.37192
5.94191
4.56831
3.23267
1.91756
0.597934
72.9544
70.4683
67.4515
64.1775
60.8767
57.592
54.311
51.0385
47.7954
44.6033
41.4797
38.4385
35.4915
32.6482
29.9157
27.2989
24.8003
22.4201
20.1564
18.0054
15.9608
14.0151
12.1602
10.3882
8.69068
7.05769
5.47691
3.93397
2.4158
0.913276
73.8063
71.4942
68.6877
65.6327
62.5393
59.4462
56.3399
53.2226
50.1118
47.0268
43.9836
40.9956
38.0745
35.2302
32.4711
29.8033
27.231
24.7564
22.3796
20.0989
17.9107
15.8096
13.7895
11.8433
9.96314
8.13982
6.36234
4.61841
2.89635
1.19663
74.5265
72.3629
69.7373
66.872
63.96
61.0365
58.0872
55.112
52.1254
49.1444
46.1834
43.2547
40.3694
37.5377
34.7681
32.0676
29.4415
26.8933
24.4247
22.0357
19.7243
17.4872
15.3196
13.2156
11.1679
9.16787
7.20537
5.26886
3.34632
1.44299
75.1342
73.0974
70.6274
67.9264
65.1727
62.3985
59.5891
56.7424
53.8703
50.9877
48.1072
45.2399
42.3963
39.5859
36.8174
34.098
31.4337
28.8289
26.2863
23.8071
21.3908
19.0354
16.7373
14.4915
12.2913
10.1287
7.99381
5.87514
3.75953
1.65377
75.6457
73.7169
71.3805
68.8216
66.2055
63.562
60.8763
58.1446
55.3767
52.5853
49.7814
46.975
44.1755
41.3919
38.6324
35.9045
33.2141
30.5663
27.9645
25.4107
22.9056
20.4479
18.0351
15.6628
13.3251
11.0142
8.72038
6.43176
4.13391
1.83329
76.0746
74.2378
72.0159
69.5792
67.0822
64.5525
61.9753
59.3455
56.671
53.9627
51.2301
48.4821
45.7269
42.9728
40.2276
37.4984
34.7913
32.1115
29.4627
26.8478
24.2678
21.7223
19.2094
16.7255
14.2649
11.8201
9.38146
6.93657
4.46993
1.98662
76.4321
74.6732
72.5489
70.217
67.8222
65.3909
62.9079
60.3674
57.7755
55.1417
52.4742
49.7805
47.068
44.3442
41.6163
38.8909
36.174
33.4708
30.7853
28.1204
25.4779
22.8577
20.2584
17.6768
15.1076
12.5435
9.9745
7.38812
4.76798
2.11733
76.7291
75.0356
72.994
70.7509
68.4433
66.0959
63.694
61.2307
58.7109
56.1427
53.5332
50.8888
48.2161
45.5218
42.8123
40.0939
37.3723
34.6525
31.9385
29.2334
26.5392
23.8561
21.1831
18.5171
15.8532
13.1841
10.4998
7.78754
5.03036
2.22924
76.9718
75.3326
73.36
71.1914
68.9569
66.6803
64.3468
61.9492
59.4911
56.9795
54.4205
51.8198
49.183
46.5159
43.8247
41.1149
38.3919
35.6606
32.9248
30.1877
27.4512
24.7159
21.9809
19.2432
16.4982
13.7385
10.9541
8.132
5.25509
2.32201
77.1719
75.5769
73.6609
71.5537
69.3793
67.161
64.8842
62.5411
60.1346
57.6706
55.1545
52.5911
49.9854
47.3427
44.6684
41.9676
39.2454
36.5063
33.7542
30.9919
28.2216
25.4439
22.6577
19.8606
17.0476
14.2115
11.3424
8.42691
5.44787
2.40081
77.3263
75.7661
73.895
71.8363
69.7098
67.5378
65.3063
63.0069
60.6418
58.2162
55.7349
53.2021
50.6222
47.9999
45.3401
42.6476
39.9272
37.183
34.4187
31.6373
28.8406
26.0293
23.2025
20.3576
17.4897
14.5917
11.6534
8.66146
5.59881
2.45865
77.4573
75.9228
74.0857
72.0639
69.9734
67.8366
65.6393
63.3732
61.0396
58.6434
56.1887
53.6795
51.1196
48.5132
45.865
43.1795
40.4609
37.7134
34.9404
32.1448
29.3283
26.4916
23.6339
20.7524
17.8424
14.8965
11.9045
8.85284
5.72426
2.50813
77.5378
76.0194
74.2046
72.2079
70.1418
68.0284
65.8541
63.6102
61.2978
58.9213
56.4846
53.9913
51.4449
48.8494
46.2092
43.5285
40.8114
38.0619
35.2833
32.4783
29.6487
26.7951
23.9166
21.0105
18.0718
15.0933
12.0643
8.97121
5.7965
2.52795
77.6265
76.1093
74.3067
72.325
70.2726
68.1718
66.0096
63.7774
61.476
59.1096
56.682
54.1964
51.6565
49.066
46.4291
43.7499
41.0326
38.2809
35.4982
32.6871
29.8494
26.9858
24.0951
21.1749
18.22
15.2231
12.1733
9.05589
5.85092
2.53447
)
;

boundaryField
{
    inlet
    {
        type            zeroGradient;
    }
    outlet
    {
        type            fixedValue;
        value           uniform 0;
    }
    flap
    {
        type            zeroGradient;
    }
    upperWall
    {
        type            zeroGradient;
    }
    lowerWall
    {
        type            zeroGradient;
    }
    frontAndBack
    {
        type            empty;
    }
}


// ************************************************************************* //
