/*--------------------------------*- C++ -*----------------------------------*\
  =========                 |
  \\      /  F ield         | OpenFOAM: The Open Source CFD Toolbox
   \\    /   O peration     | Website:  https://openfoam.org
    \\  /    A nd           | Version:  7
     \\/     M anipulation  |
\*---------------------------------------------------------------------------*/
FoamFile
{
    version     2.0;
    format      ascii;
    class       surfaceScalarField;
    location    "4.5";
    object      phi;
}
// * * * * * * * * * * * * * * * * * * * * * * * * * * * * * * * * * * * * * //

dimensions      [0 3 -1 0 0 0 0];

internalField   nonuniform List<scalar> 
5457
(
0.198418
0.00158237
0.19648
0.00193735
0.194192
0.00228805
0.191509
0.00268354
0.188428
0.00308114
0.184951
0.00347669
0.181072
0.00387849
0.176778
0.00429391
0.17205
0.0047281
0.166865
0.00518508
0.161197
0.00566835
0.155016
0.00618086
0.148291
0.00672477
0.14099
0.00730113
0.133081
0.00790928
0.124535
0.00854621
0.115329
0.00920565
0.105452
0.00987695
0.0949082
0.0105439
0.0837249
0.0111833
0.0719604
0.0117645
0.0597122
0.0122482
0.0471235
0.0125887
0.0343833
0.0127402
0.0216881
0.0126952
0.00903787
0.0126503
-0.00291608
0.011954
-0.00847221
0.00555613
-0.00804309
-0.000429124
-0.00804309
0.199928
0.0016542
0.199176
0.00268977
0.197965
0.00349896
0.196332
0.00431667
0.194272
0.00514114
0.191782
0.0059667
0.188855
0.00680539
0.185478
0.00767068
0.181633
0.0085729
0.177298
0.00952036
0.172446
0.0105203
0.167048
0.011579
0.161071
0.0127013
0.154483
0.0138899
0.147248
0.0151441
0.139335
0.0164591
0.130717
0.0178233
0.121377
0.0192169
0.111313
0.0206085
0.100543
0.021953
0.0891185
0.0231888
0.077131
0.0242358
0.064725
0.0249946
0.0521175
0.0253478
0.039657
0.0251556
0.0281067
0.0242006
0.018596
0.0214646
0.00879811
0.015354
0.00118396
0.00718503
-0.00685913
0.199781
0.00187363
0.199087
0.00338359
0.197946
0.00463986
0.196409
0.00585325
0.194483
0.00706722
0.192164
0.00828569
0.189447
0.00952275
0.186321
0.0107961
0.182774
0.0121207
0.178785
0.0135091
0.174333
0.0149723
0.169392
0.0165199
0.163934
0.0181598
0.157927
0.0198969
0.151339
0.0217322
0.144137
0.0236606
0.136292
0.0256686
0.127778
0.0277306
0.118581
0.0298052
0.108704
0.0318307
0.0981719
0.0337205
0.0870497
0.035358
0.075453
0.0365913
0.0635758
0.037225
0.0517338
0.0369976
0.0403983
0.0355361
0.0297399
0.032123
0.0191667
0.0259272
0.00959804
0.0167537
0.0027389
0.199703
0.00217055
0.199008
0.00407888
0.197887
0.00576036
0.196376
0.00736413
0.194488
0.00895529
0.192222
0.0105516
0.189575
0.0121704
0.186539
0.013832
0.183105
0.0155551
0.179258
0.0173555
0.174983
0.0192472
0.170261
0.0212424
0.165069
0.0233513
0.159385
0.0255809
0.153184
0.0279337
0.146439
0.0304056
0.139125
0.0329828
0.131217
0.0356377
0.122698
0.0383242
0.113558
0.0409715
0.103801
0.0434773
0.0934584
0.0457005
0.0825971
0.0474526
0.0713343
0.0484878
0.0598422
0.0484897
0.048318
0.0470603
0.0368118
0.0436292
0.0251884
0.0375506
0.0133358
0.0286063
0.0160747
0.199667
0.00250314
0.198964
0.00478213
0.197863
0.00686166
0.196381
0.00884578
0.194532
0.010804
0.192318
0.0127662
0.189734
0.0147541
0.186776
0.0167905
0.183434
0.0188967
0.179698
0.0210911
0.175556
0.02339
0.170991
0.0258074
0.165987
0.0283549
0.160527
0.031041
0.154592
0.0338691
0.148161
0.036836
0.141216
0.0399284
0.133734
0.043119
0.125698
0.0463608
0.117088
0.0495807
0.107895
0.0526707
0.098116
0.0554794
0.0877661
0.0578025
0.07688
0.0593739
0.0655099
0.0598598
0.053709
0.0588612
0.0414548
0.0558835
0.0285883
0.0504171
0.0148526
0.0423419
0.0309274
0.199653
0.00285033
0.198949
0.00548618
0.197871
0.00793958
0.196427
0.0102899
0.194627
0.012604
0.192473
0.0149197
0.189964
0.0172637
0.187093
0.0196613
0.183854
0.0221359
0.180237
0.0247083
0.17623
0.0273964
0.171822
0.0302159
0.166997
0.0331796
0.161741
0.0362967
0.156038
0.0395718
0.149872
0.0430024
0.143224
0.0465765
0.136075
0.0502682
0.128403
0.054033
0.120183
0.0578002
0.111389
0.0614649
0.10199
0.0648782
0.091956
0.0678367
0.0812552
0.0700747
0.0698552
0.0712597
0.0577177
0.0709987
0.0447613
0.0688399
0.0308496
0.0643289
0.0158734
0.0573181
0.0468007
0.19965
0.00320027
0.198954
0.00618216
0.197904
0.00898919
0.196505
0.0116896
0.194763
0.0143462
0.192681
0.0170017
0.190257
0.0196873
0.187487
0.0224308
0.184365
0.0252579
0.180883
0.0281911
0.177029
0.0312503
0.172792
0.0344524
0.16816
0.0378115
0.163119
0.0413382
0.157653
0.0450379
0.151745
0.0489098
0.145378
0.0529438
0.138529
0.0571175
0.131171
0.0613911
0.12327
0.0657009
0.114783
0.0699515
0.105656
0.0740059
0.0958178
0.0776745
0.0851872
0.0807053
0.0736692
0.0827778
0.0611623
0.0835056
0.0475559
0.0824463
0.0327591
0.0791257
0.0167831
0.0732941
0.0635838
0.199655
0.00354562
0.198975
0.00686226
0.197959
0.0100049
0.19661
0.0130383
0.194934
0.0160222
0.192934
0.0190022
0.190608
0.0220133
0.187952
0.025086
0.184962
0.0282478
0.18163
0.0315231
0.177947
0.0349335
0.173902
0.0384976
0.169482
0.0422309
0.164675
0.0461454
0.159464
0.0502486
0.153832
0.0545419
0.147757
0.0590189
0.141213
0.0636621
0.134165
0.0684392
0.126568
0.0732975
0.118363
0.0781566
0.10947
0.0828986
0.0997875
0.0873572
0.0891883
0.0913045
0.0775261
0.09444
0.0646482
0.0963835
0.0504181
0.0966764
0.0347686
0.0947752
0.0177901
0.0902727
0.0813739
0.199664
0.00388144
0.199006
0.00752006
0.19803
0.0109812
0.196739
0.0143298
0.195137
0.0176242
0.193227
0.020912
0.191009
0.0242311
0.188481
0.0276146
0.185637
0.0310917
0.182471
0.0346887
0.178976
0.0384289
0.175141
0.0423324
0.170955
0.0464167
0.166405
0.0506957
0.161474
0.0551795
0.156143
0.0598731
0.150387
0.064775
0.144174
0.0698748
0.137463
0.0751505
0.130196
0.0805638
0.122299
0.0860541
0.113668
0.0915296
0.104169
0.0968556
0.093635
0.101839
0.0818657
0.106209
0.0686504
0.109599
0.0538028
0.111524
0.0372372
0.111341
0.0190837
0.108426
0.100458
0.199677
0.00420422
0.199047
0.0081503
0.198116
0.0119125
0.196887
0.015558
0.195366
0.0191451
0.193556
0.0227226
0.191456
0.0263309
0.189065
0.0300053
0.18638
0.0337769
0.183395
0.0376735
0.180104
0.04172
0.176498
0.0459385
0.172567
0.0503482
0.168297
0.0549657
0.163672
0.0598042
0.158672
0.0648732
0.15327
0.0701774
0.147429
0.0757155
0.141102
0.0814779
0.134221
0.0874443
0.126697
0.0935782
0.118406
0.0998204
0.109185
0.106077
0.0988206
0.112203
0.0870537
0.117976
0.0735911
0.123062
0.0581496
0.126965
0.0405528
0.128938
0.0209018
0.128077
0.121359
0.199693
0.00451129
0.199095
0.00874869
0.198213
0.0127941
0.197053
0.0167177
0.19562
0.0205785
0.193916
0.0244264
0.191943
0.0283039
0.1897
0.0322481
0.187185
0.0362918
0.184394
0.0404644
0.181322
0.0447921
0.177962
0.0492989
0.174304
0.0540061
0.170337
0.0589328
0.166045
0.0640961
0.161408
0.0695103
0.156398
0.0751875
0.150977
0.0811363
0.145093
0.0873617
0.138674
0.0938632
0.13162
0.100633
0.123791
0.107649
0.114997
0.114871
0.104984
0.122216
0.0934205
0.12954
0.0798996
0.136582
0.0639694
0.142896
0.0452361
0.147671
0.0236124
0.149701
0.144972
0.199711
0.0048006
0.199148
0.0093117
0.19832
0.0136217
0.197234
0.017804
0.195894
0.0219186
0.194303
0.0260167
0.192465
0.0301424
0.190379
0.0343343
0.188044
0.0386265
0.185458
0.0430499
0.182618
0.0476321
0.179519
0.0523985
0.176152
0.0573726
0.172509
0.0625762
0.168575
0.0680299
0.164332
0.0737534
0.159754
0.0797658
0.154804
0.0860865
0.14943
0.0927352
0.14356
0.0997328
0.137092
0.107101
0.129879
0.114862
0.121717
0.123033
0.112316
0.131617
0.101275
0.140581
0.0880474
0.14981
0.0719252
0.159018
0.0520882
0.167508
0.0278868
0.173902
0.172859
0.19973
0.00507054
0.199205
0.00983649
0.198435
0.0143917
0.197427
0.0188126
0.196185
0.0231607
0.194713
0.0274879
0.193016
0.0318398
0.191094
0.0362562
0.188948
0.0407724
0.186578
0.0454202
0.183981
0.0502286
0.181156
0.0552243
0.178096
0.0604325
0.174795
0.0658773
0.171242
0.0715828
0.167422
0.0775733
0.163313
0.0838748
0.158883
0.0905164
0.154086
0.0975317
0.148857
0.104962
0.143101
0.112857
0.136681
0.121283
0.129394
0.13032
0.120944
0.140067
0.110885
0.150639
0.0985459
0.162149
0.0829043
0.174659
0.0624386
0.187974
0.0351269
0.201214
0.207985
0.199751
0.00531984
0.199266
0.0103207
0.198557
0.0151011
0.197629
0.0197402
0.19649
0.0243006
0.195142
0.0288353
0.193591
0.0333907
0.19184
0.0380076
0.18989
0.0427224
0.187743
0.0475674
0.185399
0.0525726
0.182857
0.0577656
0.180117
0.063173
0.177174
0.0688207
0.174021
0.0747354
0.170649
0.0809453
0.167042
0.0874818
0.163177
0.0943817
0.159018
0.10169
0.154516
0.109464
0.149595
0.117779
0.144143
0.126734
0.137994
0.136469
0.130887
0.147173
0.122409
0.159118
0.111864
0.172694
0.0980217
0.188502
0.0785418
0.207454
0.0486678
0.231088
0.256653
0.199772
0.00554754
0.19933
0.0107627
0.198684
0.0157476
0.19784
0.0205838
0.196806
0.025335
0.195586
0.030055
0.194186
0.0347908
0.19261
0.0395839
0.190861
0.0444712
0.188943
0.0494855
0.186858
0.0546571
0.18461
0.0600144
0.182198
0.0655845
0.179624
0.0713946
0.176887
0.077473
0.173982
0.0838502
0.170902
0.0905612
0.167636
0.0976476
0.164165
0.105161
0.160459
0.11317
0.156475
0.121763
0.152146
0.131063
0.147373
0.141242
0.141996
0.15255
0.135754
0.16536
0.128174
0.180274
0.118317
0.198359
0.103931
0.22184
0.0776991
0.25732
0.334352
0.00379255
-0.00379255
0.00743556
-0.00364301
0.0104755
-0.00303994
0.0129124
-0.00243693
0.0148444
-0.00193193
0.0163742
-0.00152986
0.0175903
-0.00121613
0.0185657
-0.000975395
0.0193599
-0.00079414
0.0200206
-0.000660692
0.0205858
-0.000565193
0.021085
-0.000499195
0.0215399
-0.000454987
0.021965
-0.000425018
0.0223666
-0.000401651
0.022744
-0.000377377
0.0230896
-0.000345646
0.0233919
-0.000302238
0.0236385
-0.000246586
0.0238203
-0.000181822
0.023933
-0.000112737
0.0239768
-4.37705e-05
0.0239496
2.71978e-05
0.0238455
0.000104135
0.0236595
0.000185934
0.0233988
0.000260719
0.0230856
0.000313249
0.022764
0.00032157
0.0224886
0.000275388
0.000150579
0.00344522
-0.00723777
0.00678963
-0.00698742
0.00963097
-0.00588128
0.0119734
-0.00477937
0.0139079
-0.00386642
0.0155245
-0.00314646
0.0168963
-0.00258798
0.018081
-0.00216004
0.0191238
-0.0018369
0.0200603
-0.00159726
0.0209187
-0.00142359
0.0217208
-0.00130122
0.0224829
-0.00121716
0.0232171
-0.00115914
0.0239304
-0.001115
0.0246258
-0.00107274
0.0253016
-0.00102148
0.0259529
-0.000953508
0.0265732
-0.000866905
0.0271578
-0.000766474
0.0277056
-0.000660471
0.0282148
-0.00055297
0.0286802
-0.000438189
0.0290925
-0.000308247
0.0294402
-0.000161735
0.0297142
-1.33104e-05
0.0299197
0.000107788
0.0300982
0.000143021
0.030282
9.16675e-05
4.56956e-06
0.00285202
-0.0100898
0.00551986
-0.00965526
0.00773709
-0.0080985
0.00954743
-0.00658971
0.0110401
-0.00535905
0.0122929
-0.00439928
0.0133638
-0.00365894
0.0142955
-0.0030917
0.0151204
-0.00266179
0.0158641
-0.00234102
0.0165471
-0.00210656
0.0171853
-0.00193944
0.0177912
-0.00182304
0.018374
-0.00174194
0.0189401
-0.0016811
0.0194928
-0.00162548
0.0200322
-0.00156082
0.0205548
-0.00147611
0.0210553
-0.00136742
0.0215296
-0.00124074
0.021978
-0.00110893
0.0224065
-0.000981469
0.0228227
-0.000854386
0.0232292
-0.000714676
0.0236214
-0.000553952
0.0239878
-0.000379765
0.0243102
-0.000214609
0.0245572
-0.000103911
0.0247377
-8.89212e-05
-0.000118078
0.00220417
-0.012294
0.00408101
-0.0115321
0.00554896
-0.00956645
0.00671108
-0.00775182
0.00764867
-0.00629664
0.00842622
-0.00517683
0.00908332
-0.00431604
0.00964557
-0.00365394
0.0101324
-0.00314861
0.0105594
-0.00276805
0.0109394
-0.00248651
0.0112826
-0.00228262
0.0115973
-0.00213778
0.0118905
-0.00203511
0.0121679
-0.00195854
0.0124342
-0.00189181
0.012692
-0.00181862
0.0129405
-0.00172454
0.0131747
-0.00160163
0.0133878
-0.00145383
0.0135766
-0.00129777
0.0137467
-0.00115158
0.013909
-0.00101669
0.0140732
-0.000878823
0.0142384
-0.000719201
0.0143869
-0.000528222
0.0144872
-0.000314928
0.0144958
-0.000112569
0.0143932
1.37489e-05
-5.42325e-05
0.00145714
-0.0137511
0.00246248
-0.0125374
0.00311646
-0.0102204
0.00356525
-0.00820062
0.00387658
-0.00660796
0.00409851
-0.00539875
0.00425359
-0.00447112
0.0043529
-0.00375325
0.00440664
-0.00320235
0.00442337
-0.00278479
0.00440999
-0.00247314
0.00437227
-0.0022449
0.00431531
-0.00208082
0.00424398
-0.00196378
0.0041635
-0.00187806
0.00407978
-0.00180809
0.00399862
-0.00173745
0.00392336
-0.00164928
0.00385141
-0.00152968
0.00377113
-0.00137355
0.00366272
-0.00118936
0.00350859
-0.000997455
0.00330699
-0.000815088
0.00307187
-0.000643708
0.00282958
-0.000476907
0.00261271
-0.000311354
0.00241523
-0.000117445
0.00224668
5.5983e-05
0.00211432
0.000146109
3.64544e-05
0.000600078
-0.0143512
0.000671414
-0.0126088
0.00046744
-0.0100165
0.000168963
-0.00790214
-0.000197255
-0.00624175
-0.000596931
-0.00499908
-0.00101932
-0.00404873
-0.00145283
-0.00331975
-0.00188985
-0.00276532
-0.00232498
-0.00234965
-0.00275465
-0.00204347
-0.0031761
-0.00182346
-0.00358697
-0.00166994
-0.00398505
-0.00156571
-0.00436751
-0.0014956
-0.00473008
-0.00144552
-0.00506698
-0.00140055
-0.00537242
-0.00134385
-0.00564327
-0.00125883
-0.00588158
-0.00113524
-0.00609577
-0.000975175
-0.00629999
-0.000793232
-0.00650758
-0.000607497
-0.0067225
-0.000428789
-0.00694255
-0.00025686
-0.00716797
-8.59312e-05
-0.00736465
7.92282e-05
-0.00751498
0.000206313
-0.00761379
0.00024492
0.000152241
-0.000379301
-0.0139719
-0.00126167
-0.0117264
-0.00230761
-0.00897052
-0.00340462
-0.00680513
-0.004485
-0.00516137
-0.00552979
-0.00395429
-0.00651541
-0.00306312
-0.0074322
-0.00240295
-0.00827596
-0.00192157
-0.00904649
-0.00157912
-0.00974727
-0.00134269
-0.0103841
-0.00118664
-0.0109637
-0.00109035
-0.0114925
-0.00103692
-0.0119753
-0.00101273
-0.0124148
-0.00100604
-0.012811
-0.00100434
-0.0131632
-0.000991693
-0.0134728
-0.000949241
-0.0137459
-0.000862057
-0.0139935
-0.000727586
-0.0142288
-0.000557976
-0.0144637
-0.000372582
-0.0147042
-0.000188266
-0.0149496
-1.15244e-05
-0.0151699
0.000134437
-0.0153522
0.000261493
-0.0155051
0.000359223
-0.0156309
0.000370695
0.000288403
-0.00142848
-0.0125434
-0.00331464
-0.00984025
-0.00521927
-0.00706589
-0.00707574
-0.00494865
-0.00881184
-0.00342527
-0.0103916
-0.00237454
-0.0117951
-0.00165956
-0.013028
-0.00117008
-0.0141055
-0.000844114
-0.0150477
-0.000636911
-0.0158754
-0.000514994
-0.0166072
-0.000454825
-0.0172591
-0.000438495
-0.0178443
-0.000451664
-0.0183728
-0.000484258
-0.0188508
-0.00052801
-0.0192808
-0.000574336
-0.019663
-0.00060953
-0.0200001
-0.000612117
-0.0203005
-0.000561671
-0.0205772
-0.000450904
-0.0208437
-0.000291439
-0.0211117
-0.000104547
-0.0213749
7.48672e-05
-0.0216105
0.000224134
-0.0218218
0.00034567
-0.0220133
0.000453032
-0.0221798
0.000525689
-0.0223304
0.000521361
0.000455216
-0.00263226
-0.00991114
-0.00562371
-0.00684881
-0.00841358
-0.00427602
-0.0109493
-0.00241297
-0.0131917
-0.00118285
-0.015158
-0.000408174
-0.0168567
3.90901e-05
-0.0182864
0.000259609
-0.0194709
0.000340388
-0.0204621
0.000354308
-0.0213076
0.000330556
-0.0220435
0.000281015
-0.0226959
0.000213893
-0.0232849
0.000137412
-0.0238249
5.57276e-05
-0.0243218
-3.11719e-05
-0.0247723
-0.000123838
-0.0251721
-0.000209747
-0.0255237
-0.00026045
-0.0258382
-0.000247168
-0.0261329
-0.000156195
-0.0264216
-2.72957e-06
-0.0266997
0.000173491
-0.0269576
0.000332824
-0.0271979
0.000464393
-0.0274191
0.000566889
-0.0276141
0.000647985
-0.0277844
0.000696062
-0.0279468
0.000683738
0.000636562
-0.00418261
-0.00572852
-0.0086993
-0.00233212
-0.0127381
-0.00023725
-0.0160313
0.000880258
-0.0186233
0.00140919
-0.0206387
0.00160719
-0.022222
0.00162235
-0.0235018
0.0015394
-0.0245728
0.00141148
-0.0254849
0.00126636
-0.0262743
0.00111993
-0.0269669
0.000973677
-0.0275809
0.000827823
-0.0281309
0.000687434
-0.0286306
0.000555405
-0.0290888
0.000427028
-0.0295087
0.00029611
-0.0298886
0.000170191
-0.0302281
7.89664e-05
-0.0305341
5.89075e-05
-0.0308182
0.000127857
-0.03109
0.000269083
-0.0313592
0.000442657
-0.0316289
0.000602593
-0.0318848
0.000720274
-0.0321141
0.000796184
-0.0323119
0.000845805
-0.0324858
0.000869957
-0.0326563
0.000854249
0.000823745
-0.00637306
0.000644534
-0.0119337
0.00322857
-0.016271
0.00410004
-0.0196038
0.00421301
-0.0222246
0.00402998
-0.0243065
0.00368907
-0.0259767
0.00329259
-0.0273311
0.0028938
-0.0284419
0.0025223
-0.0293742
0.00219863
-0.0301787
0.00192439
-0.0308864
0.0016814
-0.0315141
0.00145556
-0.0320765
0.00124978
-0.0325895
0.00106843
-0.0330616
0.000899147
-0.0334871
0.000721596
-0.0338542
0.000537285
-0.0341611
0.000385907
-0.034426
0.000323792
-0.0346784
0.000380303
-0.0349432
0.000533878
-0.0352264
0.000725767
-0.0355151
0.000891289
-0.0357873
0.000992551
-0.0360251
0.00103395
-0.036225
0.00104574
-0.0364007
0.00104565
-0.0365754
0.00102888
0.00101346
-0.00780049
0.00844503
-0.0141331
0.00956116
-0.0189838
0.00895073
-0.0226922
0.00792148
-0.025503
0.00684078
-0.0276495
0.00583555
-0.0293251
0.00496815
-0.0306611
0.00422977
-0.0317409
0.00360217
-0.0326388
0.00309647
-0.0334184
0.00270406
-0.0341134
0.00237637
-0.0347324
0.0020745
-0.0352853
0.00180275
-0.0357928
0.00157588
-0.0362681
0.00137441
-0.0367007
0.00115424
-0.0370665
0.000903123
-0.0373567
0.000676117
-0.0375963
0.000563319
-0.0378297
0.000613703
-0.0380919
0.000796074
-0.0383892
0.00102308
-0.0387009
0.00120303
-0.0389935
0.00128511
-0.0392406
0.00128107
-0.0394403
0.00124541
-0.039614
0.0012194
-0.0397887
0.0012036
0.0012023
-0.00935293
0.017798
-0.0170132
0.0172215
-0.0223707
0.0143082
-0.0261359
0.0116866
-0.0288751
0.00958
-0.0308886
0.00784908
-0.032426
0.00650557
-0.0336486
0.00545236
-0.0346248
0.00457835
-0.0354279
0.00389954
-0.0361426
0.00341878
-0.0368051
0.00303891
-0.0374021
0.00267153
-0.0379299
0.00233056
-0.0384178
0.00206375
-0.0388912
0.0018478
-0.0393331
0.00159614
-0.039697
0.00126704
-0.0399588
0.000937909
-0.0401535
0.000758022
-0.0403517
0.000811913
-0.0406053
0.00104968
-0.0409199
0.00133769
-0.0412622
0.00154525
-0.0415813
0.00160423
-0.0418385
0.00153834
-0.0420331
0.00143998
-0.0421989
0.00138518
-0.0423697
0.00137436
0.00138743
-0.0123365
0.0301344
-0.0215721
0.0264571
-0.0268859
0.019622
-0.0301188
0.0149195
-0.0324706
0.0119318
-0.0341058
0.00948435
-0.0353188
0.00771854
-0.0363304
0.00646392
-0.0371392
0.00538722
-0.037782
0.00454228
-0.0383885
0.00402536
-0.0390088
0.00365914
-0.0395787
0.00324148
-0.0400622
0.00281403
-0.0405082
0.00250975
-0.0409728
0.00231245
-0.0414323
0.00205557
-0.0417996
0.00163442
-0.0420199
0.00115818
-0.0421426
0.00088066
-0.0422837
0.000953079
-0.0425234
0.00128936
-0.0428627
0.001677
-0.0432478
0.00193032
-0.0436032
0.0019596
-0.0438713
0.00180652
-0.0440523
0.00162096
-0.0442006
0.00153349
-0.0443636
0.0015373
0.00156689
-0.0175464
0.0476808
-0.0286984
0.0376091
-0.0332228
0.0241464
-0.0346788
0.0163755
-0.0363148
0.0135678
-0.0372657
0.0104353
-0.0379012
0.00835397
-0.0386612
0.00722401
-0.0393119
0.00603789
-0.0397145
0.00494487
-0.0401417
0.00445256
-0.0407212
0.00423867
-0.0412772
0.00379746
-0.0416981
0.0032349
-0.0420703
0.00288197
-0.0425237
0.00276586
-0.0430269
0.00255871
-0.0434193
0.00202691
-0.0435847
0.00132355
-0.0435912
0.000887142
-0.0436419
0.00100381
-0.0438624
0.00150982
-0.0442395
0.00205409
-0.0446859
0.00237679
-0.0450917
0.00236538
-0.0453717
0.00208651
-0.045525
0.00177423
-0.0456404
0.00164888
-0.0457927
0.00168961
0.0017413
0.207447
0.00576031
0.207034
0.0111753
0.206432
0.0163502
0.205647
0.0213683
0.204688
0.0262943
0.20356
0.0311825
0.202271
0.0360803
0.200825
0.0410297
0.199229
0.0460675
0.197487
0.0512268
0.195607
0.056538
0.193592
0.0620292
0.191448
0.067728
0.189181
0.0736616
0.186796
0.0798586
0.184296
0.0863503
0.181684
0.0931726
0.178963
0.100369
0.176133
0.107992
0.173191
0.116112
0.170134
0.12482
0.166957
0.13424
0.163656
0.144544
0.160231
0.155974
0.156705
0.168885
0.153174
0.183805
0.150003
0.20153
0.148869
0.222974
0.160572
0.245617
0.258769
0.236155
0.21249
0.00595275
0.212118
0.0115481
0.211574
0.0168938
0.210868
0.0220742
0.210007
0.0271548
0.209
0.03219
0.207853
0.0372275
0.206574
0.0423089
0.20517
0.0474712
0.20365
0.052747
0.202022
0.058166
0.200295
0.0637562
0.198479
0.0695441
0.196584
0.0755562
0.194622
0.0818203
0.192606
0.0883661
0.190551
0.0952279
0.188474
0.102446
0.186395
0.11007
0.184345
0.118162
0.182363
0.126802
0.18051
0.136093
0.178884
0.146169
0.177659
0.1572
0.177156
0.169389
0.178028
0.182933
0.181693
0.197865
0.190755
0.213912
0.206221
0.23015
0.245654
0.219336
0.217658
0.0061227
0.217329
0.0118772
0.21685
0.0173725
0.21623
0.0226939
0.215478
0.0279072
0.214601
0.0330667
0.213609
0.0382197
0.21251
0.0434077
0.211315
0.0486666
0.210033
0.0540286
0.208677
0.0595224
0.207258
0.0651744
0.205793
0.0710098
0.204296
0.0770534
0.202786
0.0833302
0.201285
0.089867
0.199819
0.0966935
0.198422
0.103844
0.197134
0.111358
0.196012
0.119284
0.195133
0.12768
0.194613
0.136614
0.194619
0.146162
0.195417
0.156402
0.197415
0.16739
0.201226
0.179122
0.207619
0.191473
0.217253
0.204277
0.22985
0.217554
0.228725
0.246779
0.222951
0.00626817
0.22267
0.0121585
0.222262
0.0177807
0.221735
0.0232203
0.2211
0.0285428
0.220364
0.0338023
0.219538
0.0390455
0.218633
0.0443128
0.21766
0.0496394
0.216633
0.0550561
0.215565
0.0605899
0.214474
0.0662656
0.213378
0.0721061
0.212298
0.0781329
0.211261
0.0843677
0.210296
0.0908322
0.209439
0.0975498
0.208738
0.104545
0.208249
0.111846
0.208051
0.119483
0.208245
0.127486
0.208971
0.135888
0.210423
0.14471
0.212865
0.153961
0.216642
0.163613
0.222175
0.17359
0.229912
0.183736
0.240423
0.193766
0.254627
0.20335
0.210237
0.273115
0.228374
0.0063873
0.228144
0.0123885
0.227812
0.0181133
0.227385
0.0236467
0.226874
0.0290537
0.226289
0.0343876
0.22564
0.0396941
0.224941
0.0450126
0.224203
0.0503769
0.223443
0.0558158
0.222679
0.0613546
0.221929
0.0670155
0.221217
0.0728182
0.220569
0.0787809
0.220016
0.0849203
0.219596
0.0912522
0.219354
0.0977921
0.219345
0.104554
0.219638
0.111553
0.220322
0.118799
0.22151
0.126299
0.223346
0.134051
0.226016
0.142041
0.22975
0.150227
0.234827
0.158535
0.241577
0.16684
0.250378
0.174935
0.261675
0.182468
0.275941
0.189084
0.193696
0.292482
0.233929
0.00647842
0.233754
0.0125641
0.233502
0.0183656
0.233181
0.023967
0.232802
0.0294325
0.232376
0.0348143
0.231913
0.0401566
0.231428
0.0454974
0.230937
0.0508686
0.230455
0.0562971
0.230004
0.0618057
0.229606
0.0674136
0.229287
0.0731372
0.229078
0.0789902
0.229014
0.0849842
0.229138
0.0911284
0.2295
0.0974299
0.230162
0.103893
0.231198
0.110517
0.232699
0.117297
0.234777
0.12422
0.237569
0.13126
0.241237
0.138373
0.245974
0.14549
0.252001
0.152509
0.259559
0.159282
0.26889
0.165604
0.280173
0.171185
0.293503
0.175754
0.178797
0.308402
0.23962
0.00654002
0.239502
0.0126822
0.239334
0.0185334
0.239125
0.0241762
0.238884
0.0296733
0.238623
0.0350754
0.238354
0.0404254
0.238092
0.0457591
0.237854
0.0511065
0.237659
0.0564921
0.237529
0.0619361
0.237488
0.0674544
0.237566
0.0730595
0.237795
0.0787608
0.238215
0.0845643
0.238871
0.0904728
0.239815
0.0964852
0.241112
0.102596
0.242835
0.108794
0.245072
0.115061
0.247926
0.121366
0.251516
0.12767
0.255978
0.13391
0.261462
0.140006
0.268122
0.145848
0.27611
0.151294
0.285546
0.156169
0.296473
0.160258
0.308881
0.163346
0.165166
0.322512
0.245448
0.00657084
0.24539
0.0127405
0.24531
0.0186134
0.245216
0.0242699
0.245119
0.029771
0.245028
0.0351657
0.244959
0.0404947
0.244926
0.0457921
0.244947
0.0510854
0.245043
0.0563966
0.245236
0.0617428
0.245553
0.0671369
0.246025
0.0725875
0.246687
0.0780993
0.247578
0.0836734
0.248744
0.0893063
0.250239
0.0949902
0.252124
0.100711
0.254468
0.10645
0.257351
0.112177
0.260863
0.117855
0.265102
0.123431
0.270172
0.12884
0.27618
0.133999
0.283225
0.138803
0.291388
0.14313
0.300717
0.14684
0.311201
0.149775
0.322771
0.151776
0.152712
0.335224
0.251418
0.00656988
0.251422
0.0127371
0.251432
0.0186028
0.251457
0.0242448
0.251506
0.0297219
0.251591
0.035081
0.251725
0.0403609
0.251924
0.0455931
0.252207
0.0508028
0.252594
0.0560094
0.25311
0.061227
0.253781
0.0664651
0.25464
0.0717289
0.25572
0.0770189
0.257062
0.0823313
0.258711
0.0876579
0.260716
0.0929849
0.263135
0.0982929
0.266029
0.103555
0.269468
0.108738
0.273524
0.113799
0.278273
0.118682
0.283792
0.123322
0.290148
0.127642
0.297399
0.131552
0.305578
0.13495
0.314688
0.13773
0.324682
0.139781
0.335461
0.140997
0.141319
0.346854
0.257532
0.00653637
0.257599
0.0126705
0.257702
0.0184996
0.257848
0.0240985
0.258047
0.0295235
0.258308
0.0348193
0.258647
0.0400221
0.259079
0.0451611
0.259623
0.0502592
0.260299
0.0553328
0.261133
0.0603934
0.262151
0.0654475
0.263383
0.0704966
0.264864
0.0755379
0.266631
0.0805639
0.268727
0.085562
0.271197
0.0905146
0.274092
0.0953983
0.277464
0.100183
0.28137
0.104833
0.285865
0.109303
0.291005
0.113541
0.296841
0.117487
0.30341
0.121072
0.310739
0.124223
0.318828
0.126861
0.327651
0.128907
0.337144
0.130289
0.347201
0.13094
0.13084
0.357681
0.263794
0.00646985
0.263925
0.0125398
0.264122
0.0183027
0.26439
0.0238299
0.264739
0.029175
0.265178
0.0343799
0.265722
0.0394786
0.266385
0.0444978
0.267186
0.0494578
0.268147
0.0543725
0.269289
0.0592508
0.270641
0.0640962
0.272229
0.0689078
0.274088
0.0736795
0.276251
0.0784011
0.278755
0.0830571
0.281643
0.0876275
0.284954
0.0920869
0.288733
0.0964043
0.293023
0.100543
0.297864
0.104462
0.303294
0.108112
0.30934
0.111441
0.31602
0.114392
0.323336
0.116908
0.331268
0.118929
0.339774
0.120402
0.348783
0.12128
0.358197
0.121526
0.12114
0.367897
0.270207
0.00637014
0.270402
0.0123448
0.270693
0.0180119
0.271084
0.023439
0.271582
0.0286765
0.272198
0.033764
0.272944
0.0387327
0.273835
0.0436069
0.274888
0.0484044
0.276124
0.053137
0.277564
0.0578108
0.279232
0.0624273
0.281157
0.0669831
0.283367
0.0714701
0.285892
0.0758761
0.288765
0.080184
0.292019
0.0843727
0.29569
0.0884163
0.299809
0.0922848
0.304409
0.0959439
0.309515
0.0993553
0.315149
0.102478
0.321323
0.105267
0.328037
0.107678
0.335278
0.109667
0.343014
0.111193
0.351195
0.11222
0.359753
0.112722
0.368598
0.11268
0.112107
0.37763
0.276774
0.00623734
0.277033
0.0120857
0.277417
0.0176276
0.277929
0.0229266
0.278576
0.02803
0.279366
0.0329744
0.28031
0.0377886
0.281422
0.0424945
0.282719
0.0471075
0.284219
0.0516372
0.285942
0.056088
0.28791
0.0604593
0.290147
0.0647459
0.292678
0.0689385
0.295531
0.0730237
0.298731
0.076984
0.302305
0.0807982
0.30628
0.0844416
0.310679
0.0878862
0.315521
0.0911012
0.320823
0.0940533
0.326593
0.0967079
0.33283
0.09903
0.339523
0.100985
0.346648
0.102542
0.354168
0.103673
0.362033
0.104356
0.370175
0.104579
0.378519
0.104337
0.103647
0.386979
0.283498
0.00607184
0.283821
0.0117633
0.284297
0.0171512
0.284929
0.0222949
0.28572
0.0272383
0.286679
0.0320153
0.287816
0.0366521
0.289142
0.0411683
0.290672
0.0455773
0.292423
0.0498866
0.294412
0.0540991
0.296658
0.0582127
0.299183
0.0622213
0.302007
0.0661146
0.305151
0.0698791
0.308638
0.0734977
0.312486
0.0769501
0.316714
0.0802136
0.321337
0.0832633
0.326366
0.0860723
0.331806
0.088613
0.337656
0.0908577
0.343907
0.0927792
0.35054
0.0943527
0.357525
0.0955568
0.364823
0.0963743
0.372385
0.0967946
0.38015
0.0968137
0.388052
0.0964351
0.0956793
0.396019
0.290384
0.00587426
0.290768
0.0113788
0.291335
0.0165848
0.292083
0.0215468
0.293016
0.0263056
0.294139
0.0308923
0.29546
0.0353307
0.29699
0.039638
0.298742
0.0438258
0.300728
0.0479001
0.302965
0.0518623
0.305468
0.0557096
0.308254
0.0594351
0.31134
0.0630287
0.314742
0.066477
0.318476
0.0697639
0.322555
0.0728711
0.32699
0.0757783
0.33179
0.078464
0.336956
0.0809058
0.342488
0.0830816
0.348376
0.0849698
0.354604
0.0865506
0.36115
0.0878069
0.367982
0.0887252
0.37506
0.0892965
0.382337
0.0895174
0.38976
0.0893901
0.397272
0.0889231
0.0881374
0.404814
0.297435
0.00564548
0.297879
0.0109341
0.298533
0.0159308
0.299394
0.0206861
0.300462
0.0252371
0.301742
0.0296123
0.30324
0.0338329
0.304964
0.0379143
0.306924
0.0418662
0.30913
0.0456936
0.311595
0.0493968
0.314333
0.0529724
0.317354
0.0564135
0.320673
0.0597103
0.324299
0.0628503
0.328244
0.065819
0.332515
0.0686001
0.337117
0.0711763
0.342052
0.0735296
0.347315
0.0756422
0.3529
0.0774966
0.358793
0.0790771
0.364974
0.08037
0.371416
0.0813643
0.378088
0.0820528
0.384953
0.0824323
0.391966
0.0825041
0.399081
0.0822748
0.406249
0.0817552
0.0809659
0.413421
0.304654
0.00538656
0.305157
0.0104311
0.305895
0.0151927
0.306864
0.0197173
0.308062
0.0240388
0.309492
0.0281827
0.311156
0.0321683
0.313062
0.0360088
0.315215
0.0397128
0.317625
0.0432839
0.3203
0.0467221
0.323249
0.0500236
0.32648
0.0531818
0.330003
0.0561876
0.333824
0.0590299
0.337947
0.0616958
0.342375
0.0641715
0.347109
0.0664427
0.352144
0.0684948
0.357472
0.070314
0.363081
0.0718875
0.368954
0.0732041
0.375069
0.0742551
0.381399
0.0750345
0.387912
0.0755395
0.394573
0.0757711
0.401343
0.075734
0.408181
0.0754369
0.415045
0.0748917
0.0741181
0.421893
0.312046
0.00509871
0.312605
0.00987232
0.313424
0.0143741
0.314495
0.0186455
0.315817
0.0227171
0.317388
0.0266119
0.319209
0.0303469
0.321284
0.0339338
0.323617
0.0373798
0.326213
0.0406878
0.329078
0.0438573
0.332217
0.0468847
0.335635
0.0497639
0.339336
0.0524868
0.343322
0.0550437
0.347594
0.0574237
0.35215
0.0596154
0.356986
0.0616072
0.362093
0.0633879
0.367459
0.0649472
0.373071
0.0662762
0.378907
0.0673676
0.384946
0.0682166
0.391159
0.0688209
0.397518
0.0691809
0.403989
0.0693004
0.410537
0.069186
0.417126
0.0688476
0.42372
0.0682974
0.0675536
0.430285
0.319615
0.00478326
0.320227
0.00926034
0.321122
0.0134789
0.322292
0.0174759
0.32373
0.021279
0.325433
0.0249085
0.327401
0.0283793
0.329633
0.0317016
0.332131
0.0348816
0.334898
0.0379216
0.337934
0.0408209
0.341243
0.0435762
0.344824
0.0461821
0.34868
0.0486316
0.352807
0.0509165
0.357203
0.0530279
0.361861
0.0549567
0.366775
0.0566939
0.371931
0.0582312
0.377317
0.0595614
0.382915
0.0606786
0.388704
0.0615787
0.39466
0.0622599
0.400759
0.0627225
0.40697
0.0629693
0.413265
0.0630057
0.419612
0.0628393
0.425979
0.0624804
0.432336
0.0619409
0.0612372
0.438652
0.327365
0.00444155
0.328027
0.00859784
0.328995
0.0125111
0.330257
0.0162142
0.331804
0.0197315
0.333632
0.023081
0.335736
0.0262757
0.338113
0.0293243
0.340762
0.0322321
0.343683
0.0350009
0.346874
0.0376301
0.350333
0.0401167
0.354059
0.0424562
0.358048
0.0446427
0.362295
0.0466696
0.366793
0.0485297
0.371534