/*--------------------------------*- C++ -*----------------------------------*\
  =========                 |
  \\      /  F ield         | OpenFOAM: The Open Source CFD Toolbox
   \\    /   O peration     | Website:  https://openfoam.org
    \\  /    A nd           | Version:  7
     \\/     M anipulation  |
\*---------------------------------------------------------------------------*/
FoamFile
{
    version     2.0;
    format      ascii;
    class       volVectorField;
    location    "4.5";
    object      U;
}
// * * * * * * * * * * * * * * * * * * * * * * * * * * * * * * * * * * * * * //

dimensions      [0 1 -1 0 0 0 0];

internalField   nonuniform List<vector> 
2790
(
(9.94399 0.0205232 0)
(9.87572 0.0295877 0)
(9.77521 0.0359896 0)
(9.64944 0.0425563 0)
(9.50409 0.0493855 0)
(9.34007 0.0564284 0)
(9.15655 0.063816 0)
(8.95262 0.0717117 0)
(8.72747 0.0802553 0)
(8.48009 0.0895736 0)
(8.20928 0.0997936 0)
(7.91365 0.111046 0)
(7.59169 0.123461 0)
(7.24179 0.137165 0)
(6.86234 0.152274 0)
(6.45181 0.168871 0)
(6.0089 0.186999 0)
(5.5327 0.206621 0)
(5.02299 0.227593 0)
(4.48047 0.249614 0)
(3.90719 0.272179 0)
(3.30686 0.294528 0)
(2.68532 0.315623 0)
(2.05066 0.334292 0)
(1.41184 0.35061 0)
(0.798072 0.372887 0)
(0.110768 0.325085 0)
(-0.469566 -0.11485 0)
(-0.453772 -0.297167 0)
(-0.231165 -0.423865 0)
(9.9985 0.0407031 0)
(9.98145 0.0623829 0)
(9.93574 0.0791403 0)
(9.86416 0.096625 0)
(9.77097 0.115124 0)
(9.65715 0.134488 0)
(9.52206 0.154975 0)
(9.36485 0.176943 0)
(9.18472 0.200707 0)
(8.98068 0.226549 0)
(8.75153 0.254744 0)
(8.49589 0.28556 0)
(8.21221 0.319249 0)
(7.89883 0.356023 0)
(7.55406 0.396021 0)
(7.17621 0.439264 0)
(6.76381 0.485594 0)
(6.31569 0.534589 0)
(5.83128 0.585464 0)
(5.31092 0.636957 0)
(4.7562 0.687208 0)
(4.17046 0.733651 0)
(3.55935 0.772958 0)
(2.9316 0.801099 0)
(2.3 0.813757 0)
(1.693 0.807263 0)
(1.10721 0.74727 0)
(0.658926 0.547951 0)
(0.186508 0.224648 0)
(-0.00820091 -0.453718 0)
(9.99559 0.0432071 0)
(9.97556 0.0752719 0)
(9.9318 0.103346 0)
(9.8649 0.132371 0)
(9.77778 0.16306 0)
(9.67155 0.195399 0)
(9.54588 0.229742 0)
(9.40014 0.266602 0)
(9.23365 0.306469 0)
(9.04564 0.349806 0)
(8.83509 0.39707 0)
(8.60082 0.44872 0)
(8.34146 0.50519 0)
(8.05551 0.566861 0)
(7.74139 0.634008 0)
(7.39746 0.706728 0)
(7.02213 0.784834 0)
(6.61398 0.867721 0)
(6.17197 0.954192 0)
(5.69568 1.04225 0)
(5.18567 1.12888 0)
(4.64401 1.20979 0)
(4.07484 1.27916 0)
(3.48543 1.32934 0)
(2.8869 1.3501 0)
(2.29952 1.32644 0)
(1.73189 1.2208 0)
(1.21629 0.973036 0)
(0.701172 0.570182 0)
(0.358059 -0.156506 0)
(9.99403 0.0494994 0)
(9.97181 0.0932067 0)
(9.92788 0.133573 0)
(9.86224 0.17421 0)
(9.77693 0.216434 0)
(9.67298 0.260661 0)
(9.55031 0.30743 0)
(9.40849 0.357414 0)
(9.24702 0.41129 0)
(9.06533 0.469703 0)
(8.86269 0.533299 0)
(8.6382 0.60272 0)
(8.39085 0.678588 0)
(8.11953 0.761469 0)
(7.82301 0.851814 0)
(7.50003 0.949867 0)
(7.14926 1.05554 0)
(6.76947 1.16823 0)
(6.35952 1.2866 0)
(5.91863 1.40826 0)
(5.44657 1.52946 0)
(4.94405 1.64468 0)
(4.41322 1.74614 0)
(3.85832 1.82322 0)
(3.28587 1.86138 0)
(2.70645 1.84034 0)
(2.12569 1.72604 0)
(1.55429 1.47791 0)
(0.957972 1.08375 0)
(0.509432 0.502379 0)
(9.99331 0.0572139 0)
(9.96994 0.110959 0)
(9.92593 0.162105 0)
(9.86146 0.213348 0)
(9.77799 0.266357 0)
(9.67635 0.321914 0)
(9.55654 0.380702 0)
(9.41821 0.443488 0)
(9.26097 0.511055 0)
(9.08433 0.584168 0)
(8.8877 0.663584 0)
(8.67039 0.750058 0)
(8.43159 0.844328 0)
(8.17047 0.947075 0)
(7.88609 1.05887 0)
(7.57749 1.18006 0)
(7.24368 1.31067 0)
(6.88363 1.45017 0)
(6.49631 1.59721 0)
(6.08076 1.74931 0)
(5.6362 1.9024 0)
(5.16216 2.05031 0)
(4.65882 2.18417 0)
(4.12726 2.29174 0)
(3.56945 2.35657 0)
(2.98894 2.35734 0)
(2.38688 2.26499 0)
(1.76642 2.0477 0)
(1.09001 1.69147 0)
(0.536661 1.15422 0)
(9.99302 0.065539 0)
(9.96923 0.128702 0)
(9.92556 0.190115 0)
(9.86253 0.251844 0)
(9.78128 0.315579 0)
(9.68244 0.382319 0)
(9.56601 0.452875 0)
(9.43171 0.528101 0)
(9.2792 0.608878 0)
(9.10806 0.696081 0)
(8.91777 0.790574 0)
(8.70774 0.893217 0)
(8.47728 1.00485 0)
(8.22568 1.12625 0)
(7.95215 1.25808 0)
(7.6559 1.4008 0)
(7.33604 1.55452 0)
(6.99166 1.71884 0)
(6.62171 1.89253 0)
(6.22504 2.0732 0)
(5.80032 2.25683 0)
(5.34608 2.43719 0)
(4.86076 2.60519 0)
(4.34275 2.74822 0)
(3.79045 2.84956 0)
(3.20262 2.88822 0)
(2.57662 2.83827 0)
(1.9135 2.67167 0)
(1.17277 2.37408 0)
(0.549978 1.89449 0)
(9.99297 0.0740753 0)
(9.96926 0.146315 0)
(9.92637 0.217484 0)
(9.86508 0.289293 0)
(9.78642 0.363357 0)
(9.69084 0.440828 0)
(9.57834 0.522661 0)
(9.44871 0.60981 0)
(9.30165 0.703253 0)
(9.13678 0.803961 0)
(8.95364 0.912894 0)
(8.7517 1.031 0)
(8.53034 1.15921 0)
(8.28888 1.29839 0)
(8.02659 1.44928 0)
(7.7427 1.61246 0)
(7.43631 1.78816 0)
(7.10642 1.97614 0)
(6.75183 2.17538 0)
(6.37104 2.38379 0)
(5.96214 2.59771 0)
(5.52268 2.81136 0)
(5.04958 3.01614 0)
(4.53906 3.19996 0)
(3.98672 3.34669 0)
(3.38796 3.43599 0)
(2.7373 3.44336 0)
(2.03628 3.34156 0)
(1.24177 3.11366 0)
(0.563526 2.69325 0)
(9.99306 0.0825886 0)
(9.96981 0.163607 0)
(9.92807 0.244051 0)
(9.86885 0.325481 0)
(9.79312 0.409448 0)
(9.70126 0.497208 0)
(9.59323 0.589839 0)
(9.46888 0.688395 0)
(9.32795 0.793938 0)
(9.17014 0.907525 0)
(8.99502 1.03021 0)
(8.8021 1.16303 0)
(8.59081 1.30699 0)
(8.3605 1.46307 0)
(8.11045 1.63213 0)
(7.83981 1.81485 0)
(7.54762 2.01164 0)
(7.23269 2.22248 0)
(6.89352 2.4467 0)
(6.5282 2.68266 0)
(6.13413 2.92732 0)
(5.7079 3.17574 0)
(5.24502 3.42034 0)
(4.73984 3.65019 0)
(4.18555 3.85024 0)
(3.57482 4.00092 0)
(2.89958 4.07796 0)
(2.16216 4.05246 0)
(1.31615 3.9018 0)
(0.583232 3.54027 0)
(9.99326 0.0909289 0)
(9.97072 0.18041 0)
(9.93046 0.269669 0)
(9.87362 0.360243 0)
(9.80118 0.453649 0)
(9.71343 0.551211 0)
(9.61037 0.654113 0)
(9.49188 0.763496 0)
(9.35775 0.880503 0)
(9.20773 1.00628 0)
(9.04145 1.14195 0)
(8.85847 1.28866 0)
(8.65827 1.44751 0)
(8.44021 1.61957 0)
(8.20357 1.80584 0)
(7.94746 2.00718 0)
(7.67079 2.22422 0)
(7.37218 2.45724 0)
(7.04981 2.70602 0)
(6.7013 2.96953 0)
(6.32339 3.24562 0)
(5.9117 3.5305 0)
(5.46042 3.81804 0)
(4.96208 4.09897 0)
(4.40748 4.35987 0)
(3.78647 4.58213 0)
(3.08763 4.74114 0)
(2.31276 4.80455 0)
(1.41068 4.7412 0)
(0.614323 4.44206 0)
(9.99352 0.0989929 0)
(9.97191 0.19658 0)
(9.9334 0.294197 0)
(9.87924 0.393419 0)
(9.8104 0.495758 0)
(9.72716 0.60259 0)
(9.62953 0.715183 0)
(9.51741 0.834761 0)
(9.39068 0.962542 0)
(9.24912 1.09974 0)
(9.09245 1.24758 0)
(8.92027 1.40728 0)
(8.73212 1.58005 0)
(8.52741 1.76708 0)
(8.30543 1.96953 0)
(8.06526 2.18845 0)
(7.80573 2.42476 0)
(7.52531 2.67913 0)
(7.22193 2.95188 0)
(6.89279 3.24277 0)
(6.53407 3.55074 0)
(6.14052 3.87345 0)
(5.70511 4.20667 0)
(5.21855 4.54336 0)
(4.66907 4.87243 0)
(4.04295 5.17699 0)
(3.32376 5.43237 0)
(2.50983 5.60207 0)
(1.54191 5.64364 0)
(0.664074 5.4182 0)
(9.99384 0.106705 0)
(9.9733 0.212002 0)
(9.9368 0.317505 0)
(9.88558 0.424858 0)
(9.82063 0.535592 0)
(9.74225 0.651123 0)
(9.65044 0.772789 0)
(9.54517 0.901885 0)
(9.42637 1.0397 0)
(9.29389 1.18751 0)
(9.14752 1.34662 0)
(8.98693 1.51834 0)
(8.81174 1.70397 0)
(8.62142 1.90485 0)
(8.41531 2.12228 0)
(8.19252 2.35756 0)
(7.95188 2.61192 0)
(7.69179 2.8865 0)
(7.41006 3.18223 0)
(7.10366 3.49981 0)
(6.76838 3.83942 0)
(6.39838 4.20049 0)
(5.98562 4.58114 0)
(5.51916 4.9773 0)
(4.98446 5.38131 0)
(4.36335 5.77958 0)
(3.63199 6.1492 0)
(2.7802 6.45078 0)
(1.7335 6.62868 0)
(0.744855 6.5033 0)
(9.9942 0.114007 0)
(9.97487 0.226577 0)
(9.94055 0.339476 0)
(9.89251 0.454426 0)
(9.83173 0.572986 0)
(9.7585 0.696612 0)
(9.67288 0.826696 0)
(9.57487 0.964593 0)
(9.46447 1.11165 0)
(9.34161 1.26921 0)
(9.20614 1.43864 0)
(9.05785 1.62132 0)
(8.89643 1.81867 0)
(8.72146 2.03214 0)
(8.53236 2.2632 0)
(8.32835 2.5134 0)
(8.10834 2.7843 0)
(7.87081 3.07751 0)
(7.61361 3.39467 0)
(7.33374 3.73743 0)
(7.02694 4.10739 0)
(6.68718 4.50596 0)
(6.30594 4.93405 0)
(5.87115 5.3914 0)
(5.36586 5.87533 0)
(4.76699 6.37825 0)
(4.04081 6.88328 0)
(3.16155 7.35363 0)
(2.02481 7.72341 0)
(0.880764 7.75735 0)
(9.99459 0.120855 0)
(9.97657 0.240227 0)
(9.94461 0.360011 0)
(9.89995 0.482004 0)
(9.84356 0.6078 0)
(9.77575 0.738886 0)
(9.69661 0.8767 0)
(9.60622 1.02265 0)
(9.50462 1.17812 0)
(9.39183 1.34451 0)
(9.2678 1.52324 0)
(9.1324 1.71577 0)
(8.98546 1.92359 0)
(8.82667 2.14827 0)
(8.65561 2.39145 0)
(8.47166 2.65489 0)
(8.27391 2.94048 0)
(8.06106 3.25029 0)
(7.83125 3.58662 0)
(7.58179 3.95211 0)
(7.30879 4.34976 0)
(7.00666 4.78308 0)
(6.66724 5.25603 0)
(6.27852 5.77289 0)
(5.82252 6.33765 0)
(5.27257 6.9524 0)
(4.58463 7.61369 0)
(3.71007 8.30106 0)
(2.48827 8.95847 0)
(1.12452 9.29358 0)
(9.99501 0.127212 0)
(9.97838 0.252887 0)
(9.94891 0.379025 0)
(9.90779 0.507491 0)
(9.85598 0.639912 0)
(9.79381 0.777806 0)
(9.72142 0.922642 0)
(9.63892 1.07586 0)
(9.54646 1.23889 0)
(9.44411 1.41317 0)
(9.33194 1.60015 0)
(9.20993 1.80134 0)
(9.07803 2.01832 0)
(8.93612 2.25273 0)
(8.78395 2.50635 0)
(8.62114 2.78114 0)
(8.44706 3.07924 0)
(8.26079 3.40313 0)
(8.06093 3.7557 0)
(7.84543 4.14043 0)
(7.61129 4.5616 0)
(7.35407 5.02462 0)
(7.06714 5.53644 0)
(6.74042 6.10607 0)
(6.35796 6.74519 0)
(5.89414 7.46889 0)
(5.30089 8.29635 0)
(4.509 9.24811 0)
(3.26897 10.3421 0)
(1.6051 11.3597 0)
(9.99545 0.133052 0)
(9.98026 0.264507 0)
(9.95339 0.396446 0)
(9.91595 0.530794 0)
(9.86887 0.669205 0)
(9.81252 0.813218 0)
(9.74707 0.964326 0)
(9.6727 1.124 0)
(9.58962 1.29368 0)
(9.498 1.47484 0)
(9.398 1.66895 0)
(9.28975 1.87756 0)
(9.17334 2.10227 0)
(9.04883 2.34482 0)
(8.9162 2.60706 0)
(8.77535 2.89107 0)
(8.62603 3.19922 0)
(8.46779 3.53425 0)
(8.29991 3.89947 0)
(8.12125 4.29898 0)
(7.9301 4.738 0)
(7.72392 5.22336 0)
(7.49886 5.76431 0)
(7.24903 6.37365 0)
(6.96495 7.06983 0)
(6.63109 7.88069 0)
(6.21466 8.85167 0)
(5.66622 10.0658 0)
(4.69065 11.7313 0)
(2.68778 14.5933 0)
(0.119413 -0.120543 0)
(0.280678 -0.110274 0)
(0.446756 -0.0878906 0)
(0.587571 -0.0668976 0)
(0.69876 -0.0498886 0)
(0.785303 -0.0367024 0)
(0.8532 -0.0266662 0)
(0.907181 -0.0191445 0)
(0.950725 -0.013605 0)
(0.986505 -0.00960708 0)
(1.01665 -0.00679158 0)
(1.04286 -0.00486432 0)
(1.06641 -0.00357534 0)
(1.0882 -0.00270177 0)
(1.10875 -0.00203935 0)
(1.12821 -0.00140486 0)
(1.14636 -0.000651697 0)
(1.16268 0.000304375 0)
(1.17653 0.00146493 0)
(1.18735 0.00276022 0)
(1.19477 0.00410144 0)
(1.19864 0.00541201 0)
(1.19903 0.00659129 0)
(1.19586 0.00765125 0)
(1.18865 0.00866986 0)
(1.17736 0.00943339 0)
(1.16265 0.00968289 0)
(1.14623 0.00913546 0)
(1.13069 0.00767793 0)
(1.11757 0.00468097 0)
(0.100757 -0.278147 0)
(0.256981 -0.262622 0)
(0.410302 -0.215454 0)
(0.542633 -0.170007 0)
(0.650923 -0.133037 0)
(0.739658 -0.104383 0)
(0.813813 -0.082561 0)
(0.877138 -0.0661472 0)
(0.932314 -0.0539622 0)
(0.98136 -0.045046 0)
(1.02586 -0.0386267 0)
(1.06706 -0.0340807 0)
(1.10591 -0.030885 0)
(1.14313 -0.0285789 0)
(1.17918 -0.0267423 0)
(1.21432 -0.0249959 0)
(1.24859 -0.0230279 0)
(1.28182 -0.0206465 0)
(1.31369 -0.017831 0)
(1.3439 -0.0147283 0)
(1.37223 -0.011551 0)
(1.3987 -0.00843483 0)
(1.42313 -0.00535334 0)
(1.44514 -0.00216048 0)
(1.46429 0.00119215 0)
(1.48007 0.00441508 0)
(1.4917 0.00665618 0)
(1.50081 0.00730036 0)
(1.50943 0.00621873 0)
(1.52039 0.00369101 0)
(0.0789242 -0.437396 0)
(0.211449 -0.412348 0)
(0.331363 -0.340294 0)
(0.434208 -0.27154 0)
(0.517602 -0.215945 0)
(0.586145 -0.172941 0)
(0.643883 -0.140117 0)
(0.69358 -0.115245 0)
(0.737154 -0.0965526 0)
(0.77606 -0.0826367 0)
(0.811448 -0.0723843 0)
(0.844232 -0.0649017 0)
(0.875123 -0.059446 0)
(0.904662 -0.0553718 0)
(0.93324 -0.0520982 0)
(0.961107 -0.0490983 0)
(0.988362 -0.0459254 0)
(1.01494 -0.0422829 0)
(1.04061 -0.0381116 0)
(1.06509 -0.0336194 0)
(1.08818 -0.0291491 0)
(1.11 -0.0248747 0)
(1.13097 -0.0205628 0)
(1.15152 -0.015823 0)
(1.17163 -0.0105876 0)
(1.19072 -0.00533629 0)
(1.20864 -0.00135453 0)
(1.22324 0.000121483 0)
(1.23337 -0.00135301 0)
(1.24182 -0.00353771 0)
(0.0579753 -0.560928 0)
(0.160406 -0.520331 0)
(0.239875 -0.425543 0)
(0.308076 -0.338475 0)
(0.360839 -0.269413 0)
(0.403647 -0.216599 0)
(0.439392 -0.176482 0)
(0.469749 -0.146051 0)
(0.495817 -0.123076 0)
(0.518482 -0.105858 0)
(0.538469 -0.0930669 0)
(0.556359 -0.0836366 0)
(0.572622 -0.0766844 0)
(0.587637 -0.071453 0)
(0.601723 -0.0672708 0)
(0.615156 -0.0635236 0)
(0.628148 -0.0596676 0)
(0.640804 -0.0552997 0)
(0.65301 -0.0502786 0)
(0.664422 -0.0448199 0)
(0.674571 -0.0394184 0)
(0.683396 -0.0345427 0)
(0.691443 -0.0302614 0)
(0.699534 -0.0261603 0)
(0.707955 -0.021697 0)
(0.71617 -0.0165931 0)
(0.723128 -0.0111392 0)
(0.726728 -0.00630291 0)
(0.724863 -0.00346248 0)
(0.714962 -0.00240446 0)
(0.0363279 -0.650833 0)
(0.103128 -0.58938 0)
(0.136994 -0.47456 0)
(0.168147 -0.374588 0)
(0.186641 -0.296728 0)
(0.200127 -0.238082 0)
(0.209698 -0.193647 0)
(0.216189 -0.159788 0)
(0.220044 -0.13406 0)
(0.221753 -0.114632 0)
(0.221729 -0.100074 0)
(0.220287 -0.0892434 0)
(0.217698 -0.0812 0)
(0.214226 -0.0751477 0)
(0.210149 -0.0703871 0)
(0.205786 -0.0662713 0)
(0.201466 -0.0621926 0)
(0.19752 -0.0576259 0)
(0.193983 -0.0522533 0)
(0.190581 -0.0461181 0)
(0.186233 -0.0396384 0)
(0.180188 -0.0333287 0)
(0.171341 -0.0273956 0)
(0.160337 -0.0216759 0)
(0.14811 -0.0158896 0)
(0.135482 -0.0101099 0)
(0.126281 -0.00427255 0)
(0.116702 0.000909418 0)
(0.111371 0.00401784 0)
(0.0997764 -0.00054492 0)
(0.0131372 -0.701522 0)
(0.0392078 -0.615041 0)
(0.0248945 -0.483214 0)
(0.0172775 -0.37524 0)
(-0.00116681 -0.291558 0)
(-0.0199748 -0.230225 0)
(-0.0403021 -0.184201 0)
(-0.0614043 -0.149293 0)
(-0.0830516 -0.122945 0)
(-0.104859 -0.103197 0)
(-0.126567 -0.0885097 0)
(-0.14801 -0.0776863 0)
(-0.169028 -0.0697513 0)
(-0.189474 -0.0638837 0)
(-0.209205 -0.0593903 0)
(-0.228034 -0.0556686 0)
(-0.245687 -0.0521596 0)
(-0.261825 -0.0483314 0)
(-0.276176 -0.0437591 0)
(-0.288697 -0.0383037 0)
(-0.299687 -0.032238 0)
(-0.309763 -0.0261227 0)
(-0.319767 -0.0204539 0)
(-0.330279 -0.015368 0)
(-0.341367 -0.0106506 0)
(-0.352535 -0.00603372 0)
(-0.363795 -0.00126027 0)
(-0.371483 0.00265578 0)
(-0.378142 0.0043494 0)
(-0.386151 0.00259774 0)
(-0.0135114 -0.70624 0)
(-0.0331406 -0.591356 0)
(-0.0946437 -0.449074 0)
(-0.143898 -0.339191 0)
(-0.198867 -0.25716 0)
(-0.251653 -0.197232 0)
(-0.302163 -0.152886 0)
(-0.349531 -0.119961 0)
(-0.393448 -0.0957306 0)
(-0.433764 -0.0781583 0)
(-0.470516 -0.0656019 0)
(-0.503932 -0.0568 0)
(-0.534329 -0.0507559 0)
(-0.562043 -0.0466626 0)
(-0.587367 -0.0438705 0)
(-0.610484 -0.0418339 0)
(-0.631436 -0.0400437 0)
(-0.650158 -0.0379602 0)
(-0.66662 -0.0350454 0)
(-0.681003 -0.0309552 0)
(-0.693775 -0.0257368 0)
(-0.705613 -0.0198363 0)
(-0.717211 -0.0138342 0)
(-0.729058 -0.00818992 0)
(-0.741309 -0.00310919 0)
(-0.753684 0.00136024 0)
(-0.763137 0.00495784 0)
(-0.771423 0.0072453 0)
(-0.778993 0.00713963 0)
(-0.784292 0.00462642 0)
(-0.0464283 -0.658776 0)
(-0.113674 -0.521644 0)
(-0.220564 -0.378529 0)
(-0.310498 -0.270819 0)
(-0.400118 -0.192939 0)
(-0.482757 -0.13879 0)
(-0.557091 -0.101155 0)
(-0.622679 -0.074707 0)
(-0.680073 -0.056286 0)
(-0.73029 -0.0438835 0)
(-0.774315 -0.0358354 0)
(-0.813124 -0.03089 0)
(-0.847576 -0.0280999 0)
(-0.878405 -0.0267346 0)
(-0.906205 -0.0262539 0)
(-0.931371 -0.0262547 0)
(-0.954087 -0.0263641 0)
(-0.974365 -0.0261138 0)
(-0.992244 -0.0249131 0)
(-1.008 -0.0222827 0)
(-1.02221 -0.0181357 0)
(-1.0356 -0.0128707 0)
(-1.04885 -0.00717819 0)
(-1.06242 -0.00186737 0)
(-1.07517 0.00258508 0)
(-1.08591 0.00629545 0)
(-1.09601 0.00938283 0)
(-1.10533 0.0114198 0)
(-1.11343 0.0111943 0)
(-1.11804 0.00918094 0)
(-0.0867624 -0.554646 0)
(-0.204925 -0.403327 0)
(-0.361833 -0.268694 0)
(-0.490244 -0.17331 0)
(-0.607782 -0.106955 0)
(-0.712196 -0.0627119 0)
(-0.803579 -0.0347993 0)
(-0.882157 -0.0182479 0)
(-0.946617 -0.00935136 0)
(-1.00032 -0.00478555 0)
(-1.04576 -0.00289248 0)
(-1.08494 -0.00274403 0)
(-1.11939 -0.00371706 0)
(-1.15026 -0.00532673 0)
(-1.17841 -0.00725916 0)
(-1.20441 -0.00937472 0)
(-1.22816 -0.0115138 0)
(-1.24937 -0.0132162 0)
(-1.26801 -0.0137494 0)
(-1.28445 -0.0124249 0)
(-1.29946 -0.00904884 0)
(-1.31393 -0.0041624 0)
(-1.32851 0.00113963 0)
(-1.34178 0.00585314 0)
(-1.35408 0.0095339 0)
(-1.36559 0.0123087 0)
(-1.37609 0.0144442 0)
(-1.38573 0.0155698 0)
(-1.39392 0.0149502 0)
(-1.39816 0.0132417 0)
(-0.141777 -0.388953 0)
(-0.324062 -0.236274 0)
(-0.549464 -0.11729 0)
(-0.731859 -0.0346389 0)
(-0.87548 0.00888199 0)
(-0.987937 0.0300795 0)
(-1.07592 0.0383316 0)
(-1.14566 0.0391746 0)
(-1.20393 0.0367259 0)
(-1.25309 0.0329254 0)
(-1.29531 0.0286521 0)
(-1.33212 0.0241738 0)
(-1.36458 0.019621 0)
(-1.39355 0.0151989 0)
(-1.41977 0.0110319 0)
(-1.44368 0.00701739 0)
(-1.46559 0.00308177 0)
(-1.48552 -0.000417315 0)
(-1.50335 -0.00264894 0)
(-1.51934 -0.00271545 0)
(-1.53405 -0.000308358 0)
(-1.54802 0.00396593 0)
(-1.56136 0.00882545 0)
(-1.57496 0.0131562 0)
(-1.58812 0.0163513 0)
(-1.60018 0.0184114 0)
(-1.611 0.019679 0)
(-1.62087 0.0200818 0)
(-1.62913 0.0192246 0)
(-1.63317 0.0177733 0)
(-0.22551 -0.165555 0)
(-0.47716 0.0264902 0)
(-0.726094 0.0994059 0)
(-0.908095 0.119375 0)
(-1.05356 0.121713 0)
(-1.16908 0.114925 0)
(-1.2614 0.104073 0)
(-1.33587 0.0918529 0)
(-1.39666 0.0796471 0)
(-1.44716 0.0684408 0)
(-1.49022 0.0586226 0)
(-1.52776 0.0498796 0)
(-1.56091 0.0418817 0)
(-1.5905 0.0346859 0)
(-1.61737 0.0283894 0)
(-1.6421 0.0226964 0)
(-1.66462 0.0171417 0)
(-1.68433 0.0118139 0)
(-1.70089 0.00772228 0)
(-1.71484 0.00618387 0)
(-1.72757 0.00777299 0)
(-1.74051 0.0118185 0)
(-1.75438 0.0167816 0)
(-1.76887 0.0210095 0)
(-1.78292 0.0236008 0)
(-1.79558 0.0246764 0)
(-1.80667 0.0248994 0)
(-1.81666 0.0245851 0)
(-1.82493 0.0235872 0)
(-1.82883 0.0224044 0)
(-0.290962 0.245189 0)
(-0.56868 0.309204 0)
(-0.849174 0.305514 0)
(-1.05554 0.278197 0)
(-1.21416 0.243675 0)
(-1.33528 0.208497 0)
(-1.42905 0.176441 0)
(-1.50305 0.148521 0)
(-1.56242 0.124652 0)
(-1.61118 0.105091 0)
(-1.65278 0.0895386 0)
(-1.68944 0.0766133 0)
(-1.72202 0.065115 0)
(-1.75109 0.0549549 0)
(-1.7776 0.0463797 0)
(-1.80239 0.0388683 0)
(-1.82528 0.0313749 0)
(-1.84511 0.0236831 0)
(-1.86108 0.0171911 0)
(-1.87383 0.01401 0)
(-1.88539 0.0151459 0)
(-1.89785 0.0196134 0)
(-1.91215 0.0251401 0)
(-1.92768 0.0294593 0)
(-1.94285 0.0313846 0)
(-1.9562 0.031223 0)
(-1.96749 0.0301767 0)
(-1.97742 0.0290923 0)
(-1.98556 0.0279875 0)
(-1.98932 0.0270439 0)
(-0.3435 0.643907 0)
(-0.68502 0.645518 0)
(-1.0098 0.548256 0)
(-1.22787 0.450878 0)
(-1.38536 0.369127 0)
(-1.50076 0.300288 0)
(-1.58755 0.24527 0)
(-1.65522 0.201893 0)
(-1.70899 0.166724 0)
(-1.75266 0.13914 0)
(-1.7904 0.118628 0)
(-1.8248 0.102333 0)
(-1.85601 0.0875987 0)
(-1.88377 0.0744139 0)
(-1.90917 0.0637383 0)
(-1.93363 0.0549091 0)
(-1.95692 0.0458244 0)
(-1.97692 0.0355541 0)
(-1.99189 0.0260558 0)
(-2.00256 0.0208248 0)
(-2.01204 0.0216927 0)
(-2.02351 0.0271965 0)
(-2.03822 0.0339134 0)
(-2.05512 0.0386365 0)
(-2.07177 0.0398082 0)
(-2.08596 0.0380508 0)
(-2.09728 0.0354086 0)
(-2.10685 0.0334839 0)
(-2.11466 0.0323463 0)
(-2.11827 0.0316414 0)
(-0.45506 1.14991 0)
(-0.885985 1.0461 0)
(-1.24185 0.808711 0)
(-1.44097 0.615059 0)
(-1.57487 0.483267 0)
(-1.67044 0.379028 0)
(-1.73963 0.30293 0)
(-1.79429 0.248355 0)
(-1.83845 0.203842 0)
(-1.87369 0.168229 0)
(-1.905 0.143728 0)
(-1.93606 0.125748 0)
(-1.96553 0.108591 0)
(-1.99119 0.0924953 0)
(-2.01437 0.080198 0)
(-2.03792 0.0711436 0)
(-2.06184 0.061227 0)
(-2.08239 0.0480358 0)
(-2.096 0.0343881 0)
(-2.10341 0.0262803 0)
(-2.10955 0.0271301 0)
(-2.11942 0.0345876 0)
(-2.13471 0.0433515 0)
(-2.15357 0.0488682 0)
(-2.17226 0.0491135 0)
(-2.18748 0.045193 0)
(-2.19856 0.0404249 0)
(-2.2073 0.037549 0)
(-2.21452 0.0365412 0)
(-2.21792 0.0361105 0)
(-0.677571 2.1151 0)
(-1.21036 1.69621 0)
(-1.58636 1.10009 0)
(-1.71146 0.707097 0)
(-1.78365 0.560201 0)
(-1.8434 0.440623 0)
(-1.88136 0.352216 0)
(-1.91696 0.291381 0)
(-1.95078 0.235204 0)
(-1.97511 0.187747 0)
(-1.99633 0.162362 0)
(-2.02287 0.148534 0)
(-2.05101 0.131138 0)
(-2.07408 0.111038 0)
(-2.0936 0.0959077 0)
(-2.11565 0.0870273 0)
(-2.14119 0.0766174 0)
(-2.16354 0.0594845 0)
(-2.17569 0.0397 0)
(-2.17809 0.027538 0)
(-2.17893 0.0292943 0)
(-2.18637 0.0407144 0)
(-2.20258 0.0531647 0)
(-2.22431 0.0602452 0)
(-2.24591 0.0594516 0)
(-2.26242 0.0526045 0)
(-2.27277 0.0449135 0)
(-2.27995 0.04095 0)
(-2.2862 0.0404559 0)
(-2.2894 0.0404287 0)
(9.9959 0.138447 0)
(9.98225 0.275242 0)
(9.9581 0.41253 0)
(9.92453 0.552279 0)
(9.88241 0.696167 0)
(9.83215 0.845746 0)
(9.77397 1.00252 0)
(9.70813 1.16797 0)
(9.6349 1.34356 0)
(9.55456 1.53074 0)
(9.46737 1.73102 0)
(9.3736 1.94594 0)
(9.27352 2.17713 0)
(9.16738 2.42633 0)
(9.05544 2.69545 0)
(8.93791 2.98663 0)
(8.81499 3.30233 0)
(8.68681 3.64543 0)
(8.55345 4.01944 0)
(8.4149 4.42875 0)
(8.27109 4.879 0)
(8.12192 5.37763 0)
(7.96733 5.93485 0)
(7.80759 6.56498 0)
(7.64392 7.28912 0)
(7.48131 8.13985 0)
(7.33304 9.17116 0)
(7.28924 10.4766 0)
(7.74819 12.2011 0)
(7.93152 14.9202 0)
(9.99638 0.143407 0)
(9.98434 0.285097 0)
(9.96305 0.427258 0)
(9.93351 0.57189 0)
(9.89656 0.720683 0)
(9.85261 0.875196 0)
(9.80195 1.03694 0)
(9.7449 1.20738 0)
(9.68181 1.38798 0)
(9.61306 1.5802 0)
(9.53903 1.78551 0)
(9.46014 2.00545 0)
(9.37683 2.24162 0)
(9.28958 2.49575 0)
(9.19891 2.76973 0)
(9.10539 3.06567 0)
(9.00968 3.386 0)
(8.91253 3.73357 0)
(8.81486 4.11182 0)
(8.71785 4.52502 0)
(8.62309 4.97859 0)
(8.53297 5.47956 0)
(8.4512 6.03723 0)
(8.38405 6.66421 0)
(8.34269 7.37771 0)
(8.34921 8.20114 0)
(8.44249 9.16463 0)
(8.67846 10.3014 0)
(9.32598 11.5561 0)
(9.81692 12.6438 0)
(9.99688 0.147845 0)
(9.9865 0.293909 0)
(9.96819 0.44041 0)
(9.94282 0.589361 0)
(9.9112 0.742458 0)
(9.87376 0.901252 0)
(9.83084 1.06724 0)
(9.78281 1.24188 0)
(9.7301 1.4266 0)
(9.67319 1.62284 0)
(9.61258 1.83203 0)
(9.54883 2.05566 0)
(9.48255 2.29528 0)
(9.41445 2.55255 0)
(9.34532 2.82928 0)
(9.27609 3.12745 0)
(9.20784 3.44935 0)
(9.14193 3.79761 0)
(9.08003 4.17535 0)
(9.02437 4.58632 0)
(8.97796 5.03513 0)
(8.94508 5.52744 0)
(8.93203 6.07025 0)
(8.94832 6.67194 0)
(9.00847 7.34194 0)
(9.1346 8.08889 0)
(9.35774 8.91463 0)
(9.68736 9.80801 0)
(10.2532 10.7176 0)
(10.941 11.4331 0)
(9.9974 0.151707 0)
(9.98873 0.301572 0)
(9.97346 0.451818 0)
(9.95238 0.604462 0)
(9.92622 0.76119 0)
(9.89543 0.923539 0)
(9.86039 1.09298 0)
(9.82154 1.27094 0)
(9.77939 1.45881 0)
(9.73447 1.65797 0)
(9.68742 1.8698 0)
(9.63892 2.09571 0)
(9.58976 2.33716 0)
(9.54083 2.5957 0)
(9.49319 2.87296 0)
(9.44806 3.17076 0)
(9.40694 3.49111 0)
(9.37165 3.83625 0)
(9.3445 4.20877 0)
(9.32844 4.61165 0)
(9.32741 5.04828 0)
(9.34673 5.5225 0)
(9.39362 6.03844 0)
(9.478 6.60005 0)
(9.61307 7.21011 0)
(9.81567 7.86826 0)
(10.1086 8.56739 0)
(10.5004 9.29283 0)
(11.058 10.0344 0)
(11.8512 10.6789 0)
(9.99792 0.154947 0)
(9.99101 0.307992 0)
(9.97884 0.461346 0)
(9.96211 0.617015 0)
(9.94149 0.776663 0)
(9.91743 0.941796 0)
(9.89037 1.11385 0)
(9.86078 1.29421 0)
(9.82923 1.48421 0)
(9.79635 1.68515 0)
(9.76286 1.89834 0)
(9.72955 2.12508 0)
(9.69737 2.3667 0)
(9.66738 2.62459 0)
(9.64083 2.90018 0)
(9.61921 3.19502 0)
(9.6043 3.51076 0)
(9.59828 3.84917 0)
(9.60384 4.21217 0)
(9.62437 4.60181 0)
(9.66419 5.02019 0)
(9.72882 5.46932 0)
(9.82533 5.95081 0)
(9.9627 6.46535 0)
(10.152 7.01185 0)
(10.4062 7.58644 0)
(10.7427 8.18098 0)
(11.1731 8.78077 0)
(11.7204 9.37422 0)
(12.4735 9.88646 0)
(9.99845 0.157521 0)
(9.9933 0.313083 0)
(9.98427 0.468869 0)
(9.97193 0.626854 0)
(9.95688 0.78867 0)
(9.93959 0.955784 0)
(9.92051 1.12958 0)
(9.90018 1.31138 0)
(9.87919 1.50246 0)
(9.85826 1.70402 0)
(9.83817 1.91727 0)
(9.81983 2.14338 0)
(9.80427 2.38352 0)
(9.7927 2.63889 0)
(9.78652 2.91068 0)
(9.78739 3.20011 0)
(9.79728 3.50843 0)
(9.81854 3.83688 0)
(9.85405 4.18669 0)
(9.90729 4.55898 0)
(9.98255 4.95464 0)
(10.0851 5.37415 0)
(10.2211 5.81724 0)
(10.3983 6.28245 0)
(10.6255 6.76652 0)
(10.9122 7.26367 0)
(11.2698 7.76468 0)
(11.7062 8.25399 0)
(12.2222 8.71489 0)
(12.8979 9.10587 0)
(9.99898 0.159391 0)
(9.9956 0.31677 0)
(9.9897 0.474273 0)
(9.98175 0.633832 0)
(9.97227 0.797034 0)
(9.96171 0.965293 0)
(9.95056 1.13993 0)
(9.93937 1.3222 0)
(9.92881 1.51329 0)
(9.91961 1.7143 0)
(9.91262 1.92631 0)
(9.90882 2.15035 0)
(9.90932 2.38742 0)
(9.9154 2.63848 0)
(9.92856 2.90447 0)
(9.95055 3.18627 0)
(9.98338 3.4847 0)
(10.0295 3.80048 0)
(10.0917 4.13418 0)
(10.1733 4.48607 0)
(10.2783 4.85608 0)
(10.4114 5.24349 0)
(10.5777 5.64673 0)
(10.7832 6.06298 0)
(11.0344 6.48776 0)
(11.3376 6.91437 0)
(11.699 7.33345 0)
(12.1226 7.7316 0)
(12.6025 8.09423 0)
(13.2077 8.40084 0)
(9.99951 0.160523 0)
(9.99788 0.318985 0)
(9.9951 0.477461 0)
(9.99149 0.637823 0)
(9.98751 0.801602 0)
(9.98359 0.970149 0)
(9.98023 1.14472 0)
(9.97801 1.32647 0)
(9.97761 1.51649 0)
(9.9798 1.71579 0)
(9.98547 1.9253 0)
(9.99562 2.14589 0)
(10.0114 2.37837 0)
(10.0341 2.62348 0)
(10.0654 2.88187 0)
(10.1068 3.15409 0)
(10.1604 3.44056 0)
(10.2286 3.74152 0)
(10.314 4.05695 0)
(10.4195 4.38646 0)
(10.5487 4.7292 0)
(10.7054 5.08365 0)
(10.8936 5.44741 0)
(11.1178 5.81696 0)
(11.3822 6.1874 0)
(11.6905 6.55217 0)
(12.0457 6.90299 0)
(12.4492 7.22954 0)
(12.8934 7.52067 0)
(13.4363 7.76509 0)
(10 0.160888 0)
(10.0001 0.319674 0)
(10.0004 0.478353 0)
(10.0011 0.638726 0)
(10.0025 0.802257 0)
(10.005 0.970224 0)
(10.0093 1.1438 0)
(10.0157 1.32406 0)
(10.0252 1.51197 0)
(10.0383 1.70842 0)
(10.056 1.91422 0)
(10.0794 2.13005 0)
(10.1095 2.35655 0)
(10.1477 2.59421 0)
(10.1954 2.84344 0)
(10.2544 3.10446 0)
(10.3266 3.37734 0)
(10.4139 3.66189 0)
(10.5189 3.95763 0)
(10.644 4.26367 0)
(10.7922 4.57863 0)
(10.9663 4.9005 0)
(11.1695 5.22646 0)
(11.4046 5.55283 0)
(11.6743 5.87484 0)
(11.9803 6.18664 0)
(12.3237 6.48136 0)
(12.704 6.75118 0)
(13.1136 6.98774 0)
(13.6012 7.1842 0)
(10.0005 0.160466 0)
(10.0023 0.318795 0)
(10.0056 0.476889 0)
(10.0104 0.636467 0)
(10.017 0.798915 0)
(10.0259 0.965433 0)
(10.0374 1.1371 0)
(10.0522 1.3149 0)
(10.071 1.49968 0)
(10.0945 1.69221 0)
(10.1236 1.89315 0)
(10.1592 2.10303 0)
(10.2026 2.32229 0)
(10.2549 2.55122 0)
(10.3176 2.78996 0)
(10.3922 3.0385 0)
(10.4803 3.29657 0)
(10.5839 3.56366 0)
(10.705 3.83895 0)
(10.8456 4.1212 0)
(11.008 4.40873 0)
(11.1944 4.69927 0)
(11.4068 4.98995 0)
(11.647 5.27719 0)
(11.9163 5.55669 0)
(12.2153 5.82348 0)
(12.5436 6.07202 0)
(12.8999 6.29643 0)
(13.277 6.49066 0)
(13.7167 6.65054 0)
(10.001 0.159241 0)
(10.0044 0.316318 0)
(10.0106 0.47303 0)
(10.0194 0.631001 0)
(10.0311 0.791532 0)
(10.0459 0.955737 0)
(10.0644 1.1246 0)
(10.0871 1.299 0)
(10.1147 1.47968 0)
(10.1479 1.66728 0)
(10.1876 1.86231 0)
(10.2346 2.06517 0)
(10.29 2.27609 0)
(10.355 2.4952 0)
(10.4309 2.72242 0)
(10.519 2.9575 0)
(10.6207 3.19995 0)
(10.7378 3.44902 0)
(10.8717 3.70364 0)
(11.0241 3.96238 0)
(11.1967 4.22342 0)
(11.3908 4.48447 0)
(11.6079 4.74276 0)
(11.8488 4.99502 0)
(12.1139 5.23755 0)
(12.4029 5.46625 0)
(12.7146 5.67679 0)
(13.0474 5.86481 0)
(13.3948 6.02607 0)
(13.7935 6.15808 0)
(10.0015 0.157205 0)
(10.0065 0.31223 0)
(10.0154 0.466757 0)
(10.028 0.62231 0)
(10.0444 0.780099 0)
(10.065 0.941144 0)
(10.0901 1.10634 0)
(10.1202 1.27645 0)
(10.156 1.45211 0)
(10.1982 1.63385 0)
(10.2475 1.82203 0)
(10.3048 2.01691 0)
(10.371 2.21858 0)
(10.4472 2.42699 0)
(10.5345 2.6419 0)
(10.6341 2.86287 0)
(10.7471 3.08925 0)
(10.8749 3.32013 0)
(11.0187 3.5543 0)
(11.1797 3.79026 0)
(11.3589 4.02618 0)
(11.5574 4.25986 0)
(11.7757 4.48878 0)
(12.014 4.71007 0)
(12.2723 4.92063 0)
(12.5496 5.11718 0)
(12.8445 5.2964 0)
(13.155 5.45514 0)
(13.4758 5.59047 0)
(13.8392 5.70089 0)
(10.0019 0.154358 0)
(10.0084 0.306529 0)
(10.0199 0.458074 0)
(10.0361 0.610407 0)
(10.0571 0.764644 0)
(10.083 0.921711 0)
(10.1142 1.0824 0)
(10.1512 1.24738 0)
(10.1946 1.41718 0)
(10.2449 1.5922 0)
(10.303 1.7727 0)
(10.3694 1.9588 0)
(10.4452 2.15047 0)
(10.5311 2.34752 0)
(10.6281 2.54957 0)
(10.7372 2.75606 0)
(10.8593 2.96623 0)
(10.9954 3.17908 0)
(11.1464 3.39336 0)
(11.3131 3.60757 0)
(11.4962 3.81996 0)
(11.6961 4.02853 0)
(11.9129 4.23104 0)
(12.1466 4.42507 0)
(12.3964 4.60807 0)
(12.6613 4.77748 0)
(12.9396 4.9308 0)
(13.2296 5.06576 0)
(13.5265 5.18039 0)
(13.8594 5.27382 0)
(10.0024 0.150706 0)
(10.0102 0.299228 0)
(10.0241 0.447004 0)
(10.0438 0.595333 0)
(10.0689 0.745232 0)
(10.0997 0.897534 0)
(10.1366 1.05294 0)
(10.1799 1.212 0)
(10.2302 1.37517 0)
(10.2879 1.54273 0)
(10.3537 1.71483 0)
(10.4282 1.89149 0)
(10.5122 2.07257 0)
(10.6063 2.25778 0)
(10.7114 2.44664 0)
(10.8281 2.63852 0)
(10.9573 2.83259 0)
(11.0996 3.02782 0)
(11.2555 3.22299 0)
(11.4256 3.41668 0)
(11.6102 3.60727 0)
(11.8094 3.79297 0)
(12.0229 3.97188 0)
(12.2502 4.14197 0)
(12.4907 4.30123 0)
(12.743 4.44766 0)
(13.0055 4.57941 0)
(13.2765 4.69489 0)
(13.5522 4.79277 0)
(13.8588 4.87262 0)
(10.0027 0.14626 0)
(10.0119 0.290355 0)
(10.0281 0.433591 0)
(10.0508 0.577153 0)
(10.0798 0.72196 0)
(10.1152 0.868752 0)
(10.1572 1.01813 0)
(10.2062 1.17057 0)
(10.2626 1.32641 0)
(10.3269 1.48585 0)
(10.3995 1.64896 0)
(10.4809 1.81565 0)
(10.5719 1.98572 0)
(10.6729 2.15878 0)
(10.7844 2.33431 0)
(10.9072 2.51165 0)
(11.0416 2.68993 0)
(11.1881 2.86815 0)
(11.3471 3.04516 0)
(11.5187 3.21963 0)
(11.7029 3.39014 0)
(11.8996 3.55514 0)
(12.1084 3.71301 0)
(12.3286 3.86213 0)
(12.5593 4.00089 0)
(12.7992 4.12777 0)
(13.0469 4.24145 0)
(13.3006 4.34079 0)
(13.5573 4.42494 0)
(13.8409 4.49373 0)
(10.0031 0.14104 0)
(10.0134 0.279945 0)
(10.0317 0.417895 0)
(10.0573 0.555958 0)
(10.0898 0.694955 0)
(10.1293 0.835535 0)
(10.1759 0.978214 0)
(10.23 1.12338 0)
(10.2918 1.27128 0)
(10.3618 1.42205 0)
(10.4402 1.57567 0)
(10.5276 1.732 0)
(10.6243 1.89076 0)
(10.7308 2.05153 0)
(10.8475 2.21376 0)
(10.9747 2.37676 0)
(11.1128 2.53971 0)
(11.262 2.70165 0)
(11.4223 2.86152 0)
(11.5938 3.01814 0)
(11.7763 3.17025 0)
(11.9694 3.31655 0)
(12.1726 3.45571 0)
(12.3851 3.58642 0)
(12.6059 3.70743 0)
(12.8339 3.81761 0)
(13.0676 3.91601 0)
(13.3057 4.00184 0)
(13.5455 4.07457 0)
(13.809 4.1342 0)
(10.0034 0.135068 0)
(10.0148 0.268049 0)
(10.035 0.399994 0)