/*--------------------------------*- C++ -*----------------------------------*\
  =========                 |
  \\      /  F ield         | OpenFOAM: The Open Source CFD Toolbox
   \\    /   O peration     | Website:  https://openfoam.org
    \\  /    A nd           | Version:  7
     \\/     M anipulation  |
\*---------------------------------------------------------------------------*/
FoamFile
{
    version     2.0;
    format      ascii;
    class       surfaceVectorField;
    location    "4.5";
    object      Uf;
}
// * * * * * * * * * * * * * * * * * * * * * * * * * * * * * * * * * * * * * //

dimensions      [0 1 -1 0 0 0 0];

internalField   nonuniform List<vector> 
5457
(
(9.92088 0.0251096 0)
(9.97125 0.0387458 0)
(9.82401 0.0328269 0)
(9.92859 0.0485853 0)
(9.70961 0.0393122 0)
(9.85548 0.0587683 0)
(9.57543 0.0460117 0)
(9.7568 0.0705936 0)
(9.42138 0.0529491 0)
(9.63753 0.0830137 0)
(9.24754 0.0601663 0)
(9.49861 0.0959368 0)
(9.05362 0.067811 0)
(9.3393 0.109613 0)
(8.83892 0.0760345 0)
(9.15874 0.124289 0)
(8.60252 0.0849701 0)
(8.95609 0.140167 0)
(8.34326 0.0947447 0)
(8.73038 0.157433 0)
(8.05985 0.105487 0)
(8.4804 0.17627 0)
(7.7508 0.117327 0)
(8.20477 0.196856 0)
(7.41457 0.130395 0)
(7.90195 0.219361 0)
(7.04951 0.14481 0)
(7.57031 0.243922 0)
(6.65405 0.160672 0)
(7.2082 0.270632 0)
(6.22673 0.178044 0)
(6.81401 0.299499 0)
(5.76645 0.196927 0)
(6.38635 0.330413 0)
(5.2726 0.217232 0)
(5.9242 0.363083 0)
(4.74541 0.238735 0)
(5.42714 0.396975 0)
(4.18625 0.261031 0)
(4.8957 0.431236 0)
(3.59802 0.283487 0)
(4.33169 0.464619 0)
(2.98561 0.305202 0)
(3.73866 0.495424 0)
(2.35618 0.325069 0)
(3.12233 0.521513 0)
(1.71916 0.342548 0)
(2.49113 0.540559 0)
(1.08441 0.361881 0)
(1.85592 0.551675 0)
(0.451894 0.3487 0)
(1.24554 0.563022 0)
(-0.145804 0.102488 0)
(0.608987 0.544901 0)
(-0.423611 -0.207098 0)
(0.0946799 0.259393 0)
(-0.402154 -0.361273 0)
(-0.133632 -0.0205187 0)
(-0.119683 -0.393885 0)
(9.99641 0.0516726 0)
(9.99705 0.0405047 0)
(9.95879 0.0708618 0)
(9.97851 0.0674547 0)
(9.89824 0.0879871 0)
(9.93377 0.0898703 0)
(9.81659 0.105985 0)
(9.86453 0.113555 0)
(9.71359 0.124922 0)
(9.77438 0.138515 0)
(9.58908 0.144854 0)
(9.66435 0.164647 0)
(9.44274 0.16609 0)
(9.53397 0.192332 0)
(9.2739 0.188967 0)
(9.38249 0.222031 0)
(9.08166 0.213783 0)
(9.20919 0.254149 0)
(8.8649 0.240815 0)
(9.01316 0.289064 0)
(8.6223 0.270336 0)
(8.79331 0.327152 0)
(8.35239 0.302606 0)
(8.54836 0.368785 0)
(8.05356 0.337856 0)
(8.27684 0.414315 0)
(7.72413 0.376261 0)
(7.97717 0.464045 0)
(7.36238 0.417901 0)
(7.64772 0.518187 0)
(6.96674 0.462706 0)
(7.28684 0.576804 0)
(6.53585 0.510384 0)
(6.89297 0.639723 0)
(6.06886 0.560331 0)
(6.46484 0.706424 0)
(5.56563 0.611518 0)
(6.00163 0.775906 0)
(5.02714 0.662383 0)
(5.5033 0.846521 0)
(4.45593 0.710707 0)
(4.97093 0.915804 0)
(3.85655 0.753539 0)
(4.40723 0.980305 0)
(3.23625 0.787197 0)
(3.8171 1.03546 0)
(2.60587 0.807503 0)
(3.20852 1.07549 0)
(1.98285 0.810471 0)
(2.59345 1.09315 0)
(1.40533 0.776908 0)
(1.99626 1.07709 0)
(0.9298 0.646419 0)
(1.41955 0.978429 0)
(0.439906 0.384368 0)
(0.937609 0.716818 0)
(0.0591979 -0.118588 0)
(0.44384 0.343554 0)
(0.174929 -0.335905 0)
(9.98903 0.0594311 0)
(9.99481 0.0458777 0)
(9.95434 0.0894769 0)
(9.97368 0.0848546 0)
(9.89729 0.118032 0)
(9.92984 0.119174 0)
(9.82046 0.147899 0)
(9.86357 0.153977 0)
(9.72416 0.179422 0)
(9.77736 0.190409 0)
(9.60821 0.212776 0)
(9.67226 0.228637 0)
(9.47234 0.248393 0)
(9.5481 0.26913 0)
(9.31607 0.286774 0)
(9.40431 0.312497 0)
(9.13868 0.328397 0)
(9.24034 0.359325 0)
(8.93924 0.37372 0)
(9.05549 0.410173 0)
(8.71664 0.423204 0)
(8.84889 0.465596 0)
(8.4696 0.477292 0)
(8.61951 0.526149 0)
(8.19668 0.536394 0)
(8.36616 0.592368 0)
(7.89633 0.600836 0)
(8.08752 0.664731 0)
(7.56693 0.670803 0)
(7.7822 0.74361 0)
(7.20685 0.746248 0)
(7.44874 0.82918 0)
(6.81459 0.826773 0)
(7.0857 0.921308 0)
(6.3889 0.911473 0)
(6.69173 1.01939 0)
(5.92907 0.998748 0)
(6.26575 1.12216 0)
(5.43518 1.08608 0)
(5.80715 1.22741 0)
(4.9086 1.16982 0)
(5.31612 1.33174 0)
(4.35249 1.24489 0)
(4.79403 1.43018 0)
(3.77265 1.30455 0)
(4.24403 1.51587 0)
(3.17879 1.33984 0)
(3.67187 1.57943 0)
(2.58669 1.33813 0)
(3.08638 1.60775 0)
(2.01992 1.27299 0)
(2.50298 1.5816 0)
(1.48699 1.09544 0)
(1.92879 1.46428 0)
(0.958334 0.769202 0)
(1.38529 1.21044 0)
(0.479902 0.202496 0)
(0.829572 0.801082 0)
(0.433746 0.134129 0)
(9.98515 0.0716142 0)
(9.99367 0.0531481 0)
(9.95039 0.113631 0)
(9.97087 0.102291 0)
(9.89436 0.154134 0)
(9.9269 0.147954 0)
(9.81882 0.195574 0)
(9.86185 0.193722 0)
(9.72442 0.238812 0)
(9.77746 0.241278 0)
(9.61112 0.284325 0)
(9.67466 0.291164 0)
(9.47874 0.332721 0)
(9.55343 0.343956 0)
(9.32694 0.384674 0)
(9.41335 0.400372 0)
(9.15523 0.440845 0)
(9.254 0.461139 0)
(8.96291 0.501881 0)
(9.07483 0.526959 0)
(8.74916 0.568424 0)
(8.8752 0.598533 0)
(8.51304 0.641107 0)
(8.65429 0.676558 0)
(8.25346 0.720524 0)
(8.41122 0.761714 0)
(7.96926 0.807181 0)
(8.145 0.854628 0)
(7.65918 0.901427 0)
(7.85455 0.955808 0)
(7.32193 1.00333 0)
(7.53876 1.06556 0)
(6.95623 1.11256 0)
(7.19647 1.18383 0)
(6.56087 1.22812 0)
(6.82655 1.31006 0)
(6.13492 1.34815 0)
(6.42792 1.4429 0)
(5.67788 1.46958 0)
(5.9997 1.57988 0)
(5.19004 1.58776 0)
(5.54138 1.71706 0)
(4.67292 1.69602 0)
(5.0531 1.84852 0)
(4.12986 1.78514 0)
(4.53602 1.96582 0)
(3.56672 1.84253 0)
(3.99279 2.0573 0)
(2.99211 1.85074 0)
(3.42766 2.10715 0)
(2.4159 1.78251 0)
(2.84769 2.0945 0)
(1.84059 1.60049 0)
(2.25628 1.98877 0)
(1.25942 1.27847 0)
(1.66036 1.75309 0)
(0.666792 0.789589 0)
(1.02399 1.36782 0)
(0.523047 0.787211 0)
(9.98337 0.0844078 0)
(9.99316 0.0612917 0)
(9.94821 0.136838 0)
(9.96958 0.119928 0)
(9.89314 0.188033 0)
(9.92575 0.176241 0)
(9.81906 0.24017 0)
(9.86199 0.232699 0)
(9.72662 0.294468 0)
(9.77963 0.291088 0)
(9.61589 0.351659 0)
(9.67939 0.352275 0)
(9.48671 0.41247 0)
(9.56127 0.416977 0)
(9.33878 0.477675 0)
(9.42496 0.486008 0)
(9.1717 0.548048 0)
(9.27009 0.560202 0)
(8.98492 0.62435 0)
(9.0962 0.640383 0)
(8.77778 0.707337 0)
(8.90274 0.727362 0)
(8.54953 0.797756 0)
(8.68906 0.821949 0)
(8.29935 0.896315 0)
(8.45444 0.924932 0)
(8.02635 1.00364 0)
(8.19807 1.03704 0)
(7.72958 1.12019 0)
(7.91912 1.1589 0)
(7.40806 1.24615 0)
(7.61669 1.29091 0)
(7.06078 1.38125 0)
(7.28986 1.43313 0)
(6.68671 1.52457 0)
(6.93764 1.58508 0)
(6.28488 1.67417 0)
(6.55901 1.74548 0)
(5.85442 1.82677 0)
(6.1529 1.91186 0)
(5.39475 1.97724 0)
(5.71826 2.08014 0)
(4.9058 2.11804 0)
(5.25412 2.24407 0)
(4.38831 2.2386 0)
(4.75979 2.39459 0)
(3.844 2.32454 0)
(4.23501 2.51919 0)
(3.2755 2.35696 0)
(3.67995 2.60124 0)
(2.68545 2.31062 0)
(3.09578 2.61972 0)
(2.07274 2.15505 0)
(2.48175 2.54735 0)
(1.42941 1.86745 0)
(1.83996 2.35377 0)
(0.742631 1.41963 0)
(1.13139 2.02459 0)
(0.543319 1.51457 0)
(9.98264 0.0974981 0)
(9.99299 0.0697931 0)
(9.94744 0.159775 0)
(9.96925 0.137584 0)
(9.89354 0.221348 0)
(9.92597 0.203927 0)
(9.82133 0.284093 0)
(9.86381 0.270689 0)
(9.73134 0.349348 0)
(9.78385 0.339583 0)
(9.62366 0.418019 0)
(9.68664 0.411697 0)
(9.49818 0.490937 0)
(9.57218 0.487903 0)
(9.35465 0.568972 0)
(9.44021 0.569103 0)
(9.19268 0.653001 0)
(9.29042 0.656231 0)
(9.01183 0.743892 0)
(9.12242 0.750209 0)
(8.81151 0.842509 0)
(8.93571 0.851951 0)
(8.59108 0.949699 0)
(8.72972 0.962358 0)
(8.34985 1.06627 0)
(8.50381 1.08231 0)
(8.08706 1.19295 0)
(8.25728 1.21263 0)
(7.80192 1.33029 0)
(7.98937 1.35403 0)
(7.4936 1.47858 0)
(7.6993 1.50701 0)
(7.1612 1.63767 0)
(7.38618 1.67174 0)
(6.80374 1.80672 0)
(7.04904 1.84789 0)
(6.42013 1.98395 0)
(6.68677 2.03433 0)
(6.00916 2.16611 0)
(6.29804 2.22881 0)
(5.56945 2.34809 0)
(5.88123 2.42746 0)
(5.09951 2.52219 0)
(5.43438 2.62424 0)
(4.5978 2.67756 0)
(4.95517 2.81028 0)
(4.06276 2.79949 0)
(4.44091 2.97322 0)
(3.49276 2.86912 0)
(3.88858 3.09663 0)
(2.88589 2.86295 0)
(3.29529 3.15992 0)
(2.23807 2.75398 0)
(2.65696 3.13795 0)
(1.54248 2.5211 0)
(1.97489 3.00326 0)
(0.793668 2.13142 0)
(1.20727 2.74068 0)
(0.556752 2.29192 0)
(9.9825 0.110627 0)
(9.99302 0.0783617 0)
(9.9477 0.182325 0)
(9.96954 0.155038 0)
(9.89522 0.253818 0)
(9.92722 0.230887 0)
(9.82524 0.326767 0)
(9.86696 0.30751 0)
(9.73813 0.402555 0)
(9.78977 0.386523 0)
(9.63403 0.482233 0)
(9.69605 0.469148 0)
(9.51285 0.566756 0)
(9.58579 0.556397 0)
(9.37437 0.65709 0)
(9.45879 0.649269 0)
(9.21827 0.754209 0)
(9.3148 0.748784 0)
(9.04413 0.859079 0)
(9.15346 0.855957 0)
(8.85144 0.972654 0)
(8.97433 0.971794 0)
(8.63962 1.09587 0)
(8.7769 1.09729 0)
(8.40802 1.22963 0)
(8.56057 1.2334 0)
(8.15595 1.37474 0)
(8.32469 1.38106 0)
(7.88264 1.53185 0)
(8.06852 1.54106 0)
(7.58727 1.70136 0)
(7.79125 1.71403 0)
(7.26891 1.88327 0)
(7.49196 1.90028 0)
(6.92644 2.07695 0)
(7.16955 2.09968 0)
(6.55853 2.28083 0)
(6.82268 2.31136 0)
(6.1635 2.49203 0)
(6.44962 2.53346 0)
(5.73917 2.70581 0)
(6.04813 2.76262 0)
(5.28278 2.91497 0)
(5.61529 2.99344 0)
(4.79089 3.10915 0)
(5.1473 3.21783 0)
(4.25936 3.2742 0)
(4.63945 3.42426 0)
(3.68346 3.39188 0)
(4.08613 3.59715 0)
(3.05811 3.43972 0)
(3.48139 3.71656 0)
(2.37779 3.39185 0)
(2.81844 3.75818 0)
(1.63795 3.22625 0)
(2.09922 3.69406 0)
(0.839155 2.90094 0)
(1.27896 3.50458 0)
(0.573379 3.11382 0)
(9.98273 0.123582 0)
(9.99316 0.0868178 0)
(9.94873 0.20431 0)
(9.97026 0.172094 0)
(9.89794 0.285253 0)
(9.92926 0.256976 0)
(9.8305 0.367966 0)
(9.87123 0.342989 0)
(9.7467 0.453852 0)
(9.79715 0.431679 0)
(9.64668 0.544077 0)
(9.70734 0.524351 0)
(9.53038 0.639706 0)
(9.6018 0.622135 0)
(9.39762 0.741797 0)
(9.48038 0.726124 0)
(9.24812 0.85141 0)
(9.34285 0.837421 0)
(9.08152 0.9696 0)
(9.18893 0.957127 0)
(8.89736 1.09741 0)
(9.01823 1.08633 0)
(8.69509 1.23587 0)
(8.83029 1.22613 0)
(8.47412 1.38597 0)
(8.62454 1.37756 0)
(8.23376 1.54861 0)
(8.40036 1.54167 0)
(7.97322 1.72458 0)
(8.15701 1.71936 0)
(7.69162 1.91442 0)
(7.89364 1.91141 0)
(7.38786 2.11832 0)
(7.6092 2.11833 0)
(7.06064 2.33593 0)
(7.30243 2.34026 0)
(6.70823 2.56609 0)
(6.97167 2.57672 0)
(6.3284 2.80645 0)
(6.61475 2.82639 0)
(5.91815 3.05302 0)
(6.22876 3.08666 0)
(5.47351 3.2995 0)
(5.8098 3.35314 0)
(4.98938 3.53664 0)
(5.35272 3.61896 0)
(4.45942 3.75141 0)
(4.85096 3.87398 0)
(3.87631 3.92648 0)
(4.29651 4.10394 0)
(3.23241 4.0399 0)
(3.68065 4.28972 0)
(2.52091 4.06506 0)
(2.9936 4.40683 0)
(1.73843 3.97623 0)
(2.23746 4.42467 0)
(0.889504 3.71887 0)
(1.36341 4.31641 0)
(0.598777 3.98504 0)
(9.98321 0.136204 0)
(9.99339 0.0950408 0)
(9.95032 0.225573 0)
(9.97131 0.18859 0)
(9.90151 0.315498 0)
(9.93193 0.28205 0)
(9.83694 0.407504 0)
(9.87643 0.376961 0)
(9.75684 0.503013 0)
(9.80579 0.474841 0)
(9.66135 0.603277 0)
(9.7203 0.57705 0)
(9.55046 0.709458 0)
(9.61995 0.684814 0)
(9.42403 0.822698 0)
(9.50464 0.799314 0)
(9.28183 0.944141 0)
(9.37421 0.921731 0)
(9.12355 1.07492 0)
(9.22842 1.05324 0)
(8.94878 1.21618 0)
(9.06695 1.19503 0)
(8.75704 1.36903 0)
(8.88937 1.34826 0)
(8.54776 1.53457 0)
(8.69519 1.5141 0)
(8.32024 1.71382 0)
(8.48381 1.69369 0)
(8.0737 1.90771 0)
(8.2545 1.88808 0)
(7.80714 2.11699 0)
(8.00636 2.09824 0)
(7.51933 2.34212 0)
(7.73826 2.32493 0)
(7.2087 2.58311 0)
(7.44874 2.56864 0)
(6.87313 2.83935 0)
(7.13587 2.82941 0)
(6.50982 3.10923 0)
(6.79705 3.10659 0)
(6.11494 3.38976 0)
(6.42873 3.39857 0)
(5.68339 3.67599 0)
(6.02611 3.70225 0)
(5.20847 3.96018 0)
(5.58277 4.01245 0)
(4.68175 4.23098 0)
(5.09031 4.32094 0)
(4.09329 4.47233 0)
(4.53828 4.61538 0)
(3.43252 4.66258 0)
(3.91471 4.87789 0)
(2.69014 4.77322 0)
(3.2057 5.08363 0)
(1.86186 4.7725 0)
(2.41129 5.19805 0)
(0.954186 4.58984 0)
(1.47629 5.18443 0)
(0.639199 4.9196 0)
(9.98386 0.14837 0)
(9.99368 0.102944 0)
(9.95235 0.245972 0)
(9.9726 0.204395 0)
(9.90578 0.344401 0)
(9.9351 0.305971 0)
(9.84437 0.4452 0)
(9.88241 0.409272 0)
(9.76832 0.549812 0)
(9.81552 0.515818 0)
(9.6778 0.65956 0)
(9.73471 0.627012 0)
(9.57281 0.775687 0)
(9.63998 0.744158 0)
(9.45327 0.899415 0)
(9.53129 0.868515 0)
(9.31901 1.03196 0)
(9.40852 1.00133 0)
(9.16977 1.17455 0)
(9.27151 1.14387 0)
(9.00522 1.32839 0)
(9.11998 1.29737 0)
(8.82491 1.4947 0)
(8.9536 1.46311 0)
(8.62834 1.67468 0)
(8.77193 1.64235 0)
(8.41484 1.86952 0)
(8.57442 1.83634 0)
(8.18361 2.0803 0)
(8.36037 2.04632 0)
(7.9336 2.30802 0)
(8.12889 2.27346 0)
(7.66348 2.55346 0)
(7.8788 2.51884 0)
(7.37145 2.81713 0)
(7.60855 2.78335 0)
(7.05508 3.09906 0)
(7.31599 3.06763 0)
(6.71105 3.3986 0)
(6.99823 3.3719 0)
(6.33485 3.71402 0)
(6.65122 3.69572 0)
(5.92031 4.04205 0)
(6.26945 4.0376 0)
(5.45924 4.37703 0)
(5.84536 4.39447 0)
(4.94103 4.70986 0)
(5.36886 4.76068 0)
(4.35269 5.02653 0)
(4.82677 5.12672 0)
(3.67955 5.30621 0)
(4.20315 5.47707 0)
(2.90748 5.51823 0)
(3.47788 5.78751 0)
(2.02764 5.6231 0)
(2.64501 6.01958 0)
(1.04509 5.52957 0)
(1.6377 6.12404 0)
(0.704465 5.9432 0)
(9.98465 0.159982 0)
(9.99402 0.110463 0)
(9.95473 0.265384 0)
(9.97409 0.219402 0)
(9.91065 0.371823 0)
(9.93867 0.328615 0)
(9.85266 0.480887 0)
(9.88905 0.439779 0)
(9.781 0.594048 0)
(9.82618 0.554437 0)
(9.6958 0.712683 0)
(9.75038 0.674028 0)
(9.59715 0.838108 0)
(9.66166 0.799919 0)
(9.48501 0.971615 0)
(9.56002 0.933435 0)
(9.35926 1.11449 0)
(9.44542 1.07589 0)
(9.21972 1.26802 0)
(9.31775 1.22861 0)
(9.06611 1.43351 0)
(9.17683 1.39291 0)
(8.89809 1.61227 0)
(9.02239 1.57014 0)
(8.7152 1.80561 0)
(8.85408 1.76167 0)
(8.51684 2.01486 0)
(8.67144 1.96888 0)
(8.30225 2.24133 0)
(8.47383 2.19318 0)
(8.07039 2.48626 0)
(8.26044 2.43597 0)
(7.81988 2.75085 0)
(8.03011 2.69866 0)
(7.54884 3.03613 0)
(7.7813 2.98262 0)
(7.25466 3.34292 0)
(7.51184 3.28915 0)
(6.93371 3.67164 0)
(7.2187 3.61942 0)
(6.58098 4.02211 0)
(6.89766 3.97433 0)
(6.18953 4.39309 0)
(6.54278 4.35428 0)
(5.74985 4.78158 0)
(6.14578 4.75876 0)
(5.2492 5.18172 0)
(5.69515 5.18553 0)
(4.67102 5.58282 0)
(5.17516 5.62922 0)
(3.99498 5.9666 0)
(4.56517 6.07884 0)
(3.19847 6.30179 0)
(3.8364 6.51366 0)
(2.2618 6.54079 0)
(2.97087 6.89416 0)
(1.18062 6.56524 0)
(1.87916 7.15798 0)
(0.812809 7.09955 0)
(9.98553 0.170965 0)
(9.9944 0.117547 0)
(9.95738 0.283701 0)
(9.97572 0.233521 0)
(9.916 0.397638 0)
(9.94258 0.349872 0)
(9.86169 0.514415 0)
(9.89623 0.468355 0)
(9.79468 0.635538 0)
(9.83764 0.590544 0)
(9.71516 0.762431 0)
(9.76713 0.717913 0)
(9.62324 0.896468 0)
(9.68475 0.851878 0)
(9.51893 1.039 0)
(9.59055 0.993819 0)
(9.4022 1.19137 0)
(9.48455 1.14511 0)
(9.27292 1.35494 0)
(9.36672 1.30711 0)
(9.13092 1.53107 0)
(9.23697 1.48122 0)
(8.97594 1.72118 0)
(9.09513 1.66886 0)
(8.80761 1.92668 0)
(8.94094 1.87148 0)
(8.62544 2.14905 0)
(8.77406 2.0906 0)
(8.42875 2.3898 0)
(8.59398 2.32778 0)
(8.2166 2.65047 0)
(8.4 2.58466 0)
(7.98769 2.93266 0)
(8.19113 2.86299 0)
(7.74018 3.23798 0)
(7.96594 3.16459 0)
(7.4715 3.56809 0)
(7.72243 3.49147 0)
(7.17802 3.92462 0)
(7.45777 3.84576 0)
(6.8546 4.30906 0)
(7.16787 4.22979 0)
(6.49396 4.72256 0)
(6.84692 4.64602 0)
(6.08585 5.16546 0)
(6.48659 5.0969 0)
(5.6158 5.63626 0)
(6.07484 5.5844 0)
(5.06375 6.1298 0)
(5.59419 6.10902 0)
(4.40237 6.63379 0)
(5.01978 6.66755 0)
(3.59626 7.12127 0)
(4.31272 7.24856 0)
(2.60441 7.54073 0)
(3.43581 7.82027 0)
(1.39434 7.74058 0)
(2.25654 8.31518 0)
(1.00264 8.46522 0)
(9.9865 0.181254 0)
(9.9948 0.124157 0)
(9.96026 0.300834 0)
(9.97747 0.246682 0)
(9.92176 0.421736 0)
(9.94676 0.36965 0)
(9.87133 0.545654 0)
(9.90387 0.494889 0)
(9.80923 0.674126 0)
(9.84977 0.624008 0)
(9.73567 0.808616 0)
(9.78478 0.758509 0)
(9.6508 0.950545 0)
(9.70902 0.899849 0)
(9.5547 1.10131 0)
(9.62257 1.04945 0)
(9.44741 1.26231 0)
(9.52554 1.20872 0)
(9.32889 1.43495 0)
(9.41797 1.37908 0)
(9.19907 1.62066 0)
(9.29987 1.56197 0)
(9.05778 1.82092 0)
(9.17117 1.75886 0)
(8.90478 2.03727 0)
(9.03175 1.9713 0)
(8.73973 2.27131 0)
(8.88139 2.20089 0)
(8.56208 2.52475 0)
(8.71978 2.44935 0)
(8.37109 2.79939 0)
(8.5464 2.71853 0)
(8.16564 3.09724 0)
(8.36048 3.01047 0)
(7.94414 3.42046 0)
(8.16093 3.32744 0)
(7.70432 3.77155 0)
(7.94609 3.67205 0)
(7.44287 4.15331 0)
(7.71361 4.04738 0)
(7.15507 4.56901 0)
(7.46004 4.45711 0)
(6.83403 5.02238 0)
(7.18037 4.90574 0)
(6.46969 5.51754 0)
(6.86719 5.39877 0)
(6.04718 6.05864 0)
(6.50947 5.94293 0)
(5.54426 6.6487 0)
(6.09024 6.54611 0)
(4.92729 7.287 0)
(5.58336 7.21674 0)
(4.14521 7.96148 0)
(4.94276 7.96156 0)
(3.12193 8.63369 0)
(4.10954 8.77573 0)
(1.75634 9.12803 0)
(2.87862 9.6211 0)
(1.36481 10.1854 0)
(9.98754 0.1908 0)
(9.99523 0.130261 0)
(9.96332 0.316709 0)
(9.97932 0.258826 0)
(9.92785 0.444025 0)
(9.95115 0.387871 0)
(9.88147 0.574493 0)
(9.91187 0.519289 0)
(9.82448 0.709683 0)
(9.86243 0.654719 0)
(9.75711 0.851089 0)
(9.80316 0.795688 0)
(9.67957 1.00017 0)
(9.73424 0.943679 0)
(9.592 1.15835 0)
(9.65581 1.10015 0)
(9.4945 1.32707 0)
(9.56804 1.26653 0)
(9.38714 1.50778 0)
(9.47106 1.44428 0)
(9.26994 1.70195 0)
(9.36497 1.63486 0)
(9.14287 1.91113 0)
(9.24984 1.8398 0)
(9.00585 2.13692 0)
(9.12569 2.06069 0)
(8.85868 2.38106 0)
(8.99248 2.29922 0)
(8.70105 2.64539 0)
(8.85008 2.55722 0)
(8.53245 2.93197 0)
(8.69824 2.8367 0)
(8.3521 3.24312 0)
(8.53654 3.13993 0)
(8.15883 3.58152 0)
(8.36429 3.46953 0)
(7.95091 3.95036 0)
(8.18042 3.82862 0)
(7.7258 4.35353 0)
(7.98334 4.221 0)
(7.47973 4.79587 0)
(7.7707 4.65147 0)
(7.20715 5.28359 0)
(7.53899 5.12624 0)
(6.89969 5.82466 0)
(7.283 5.65352 0)
(6.54437 6.42945 0)
(6.99473 6.24445 0)
(6.12045 7.11136 0)
(6.66146 6.91454 0)
(5.59319 7.88757 0)
(6.26262 7.68607 0)
(4.90109 8.77792 0)
(5.75777 8.59253 0)
(3.92709 9.80166 0)
(5.08761 9.68517 0)
(2.43339 10.857 0)
(3.97981 11.0495 0)
(2.14644 12.5688 0)
(9.98861 0.199565 0)
(9.99567 0.135837 0)
(9.96652 0.331265 0)
(9.98124 0.269909 0)
(9.9342 0.464423 0)
(9.9557 0.404476 0)
(9.89202 0.600826 0)
(9.92016 0.541481 0)
(9.8403 0.742072 0)
(9.87552 0.682588 0)
(9.77931 0.889675 0)
(9.82215 0.829344 0)
(9.70931 1.04512 0)
(9.76027 0.983249 0)
(9.63049 1.20985 0)
(9.69008 1.14577 0)
(9.54305 1.38534 0)
(9.61183 1.31837 0)
(9.44715 1.57305 0)
(9.52575 1.50251 0)
(9.34292 1.7745 0)
(9.43203 1.69968 0)
(9.23049 1.99126 0)
(9.33089 1.91142 0)
(9.10991 2.22499 0)
(9.22249 2.13935 0)
(8.98121 2.47751 0)
(9.10699 2.38521 0)
(8.84433 2.75076 0)
(8.98451 2.65089 0)
(8.69908 3.04699 0)
(8.85511 2.93851 0)
(8.54512 3.36874 0)
(8.71873 3.25046 0)
(8.38182 3.71904 0)
(8.57524 3.58959 0)
(8.20825 4.10161 0)
(8.42429 3.95931 0)
(8.02295 4.52111 0)
(8.26531 4.36391 0)
(7.82373 4.98358 0)
(8.09739 4.80883 0)
(7.6073 5.49707 0)
(7.91918 5.30133 0)
(7.36863 6.07262 0)
(7.72869 5.85126 0)
(7.09982 6.7259 0)
(7.52306 6.47256 0)
(6.7877 7.4801 0)
(7.29806 7.18581 0)
(6.40872 8.37198 0)
(7.04821 8.02341 0)
(5.91587 9.466 0)
(6.76334 9.04184 0)
(5.19654 10.9085 0)
(6.46248 10.3568 0)
(3.88495 13.1794 0)
(6.19069 12.3038 0)
(5.26039 16.3739 0)
(0.189628 -0.11547 0)
(0.110085 -0.185728 0)
(0.371778 -0.0992159 0)
(0.268829 -0.174192 0)
(0.523775 -0.0775195 0)
(0.428529 -0.141922 0)
(0.645622 -0.0584947 0)
(0.565102 -0.111083 0)
(0.742218 -0.0433743 0)
(0.674842 -0.0859838 0)
(0.818711 -0.0317442 0)
(0.76248 -0.0664807 0)
(0.879517 -0.0229503 0)
(0.833507 -0.0515993 0)
(0.928287 -0.0164079 0)
(0.892159 -0.0404078 0)
(0.967994 -0.0116299 0)
(0.941519 -0.0321219 0)
(1.00103 -0.00821615 0)
(0.983933 -0.026093 0)
(1.02929 -0.00583947 0)
(1.02126 -0.0217942 0)
(1.05425 -0.00422753 0)
(1.05496 -0.0187946 0)
(1.077 -0.00314377 0)
(1.08616 -0.0167256 0)
(1.09825 -0.00237452 0)
(1.11566 -0.0152549 0)
(1.11833 -0.0017259 0)
(1.14397 -0.0140757 0)
(1.1372 -0.00103278 0)
(1.17127 -0.0129127 0)
(1.15448 -0.000179373 0)
(1.19747 -0.0115477 0)
(1.16959 0.000877719 0)
(1.22225 -0.00985894 0)
(1.18192 0.00210484 0)
(1.24511 -0.0078536 0)
(1.19101 0.00342281 0)
(1.26562 -0.00565414 0)
(1.19665 0.00474889 0)
(1.2835 -0.00342299 0)
(1.19884 0.0059946 0)
(1.29867 -0.0012976 0)
(1.19748 0.00711493 0)
(1.31108 0.000787253 0)
(1.19227 0.00815447 0)
(1.3205 0.00294304 0)
(1.18298 0.00904706 0)
(1.32647 0.0051307 0)
(1.16994 0.00955665 0)
(1.32871 0.00702442 0)
(1.15428 0.00941244 0)
(1.32718 0.00824038 0)
(1.1382 0.0084154 0)
(1.32352 0.0082595 0)
(1.12443 0.00619736 0)
(1.32006 0.00690624 0)
(1.31898 0.00368707 0)
(0.172261 -0.270477 0)
(0.0898405 -0.354448 0)
(0.339482 -0.23932 0)
(0.234215 -0.334106 0)
(0.481548 -0.193002 0)
(0.370833 -0.274573 0)
(0.59867 -0.151743 0)
(0.488421 -0.217859 0)
(0.695395 -0.118881 0)
(0.584262 -0.172082 0)
(0.776225 -0.0936023 0)
(0.662902 -0.136731 0)
(0.844817 -0.0744522 0)
(0.728848 -0.109806 0)
(0.90405 -0.0601275 0)
(0.785359 -0.0894844 0)
(0.956188 -0.0495574 0)
(0.834734 -0.0743002 0)
(1.00302 -0.0418747 0)
(0.87871 -0.0630812 0)
(1.04594 -0.0363808 0)
(0.918654 -0.0548946 0)
(1.08604 -0.0325019 0)
(0.955645 -0.0489908 0)
(1.12415 -0.0297457 0)
(0.990518 -0.0447437 0)
(1.16085 -0.0276715 0)
(1.02389 -0.0416042 0)
(1.19652 -0.0258795 0)
(1.05621 -0.0390747 0)
(1.23129 -0.0240237 0)
(1.08771 -0.0367061 0)
(1.26508 -0.0218515 0)
(1.11848 -0.0341265 0)
(1.29764 -0.0192556 0)
(1.14838 -0.0311033 0)
(1.32866 -0.0162982 0)
(1.17715 -0.0276104 0)
(1.35789 -0.0131587 0)
(1.20449 -0.0238352 0)
(1.38528 -0.0100115 0)
(1.23021 -0.0200537 0)
(1.41074 -0.0069125 0)
(1.25435 -0.0163931 0)
(1.43401 -0.00377599 0)
(1.27705 -0.0126835 0)
(1.45463 -0.000504199 0)
(1.29833 -0.0087116 0)
(1.47201 0.00278436 0)
(1.31796 -0.00446296 0)
(1.48571 0.00552224 0)
(1.3354 -0.000358616 0)
(1.49598 0.00697442 0)
(1.35017 0.0028355 0)
(1.50491 0.00676601 0)
(1.36203 0.00367349 0)
(1.5141 0.00496997 0)
(1.3714 0.00229886 0)
(1.38111 0.00011189 0)
(0.142601 -0.425021 0)
(0.0684498 -0.494117 0)
(0.275993 -0.376751 0)
(0.185927 -0.461669 0)
(0.386855 -0.306328 0)
(0.285619 -0.378086 0)
(0.477372 -0.244074 0)
(0.371142 -0.300381 0)
(0.552003 -0.1947 0)
(0.43922 -0.238514 0)
(0.614644 -0.156725 0)
(0.494896 -0.191173 0)
(0.668192 -0.12783 0)
(0.541637 -0.155246 0)
(0.714775 -0.106011 0)
(0.581664 -0.12808 0)
(0.756019 -0.0896778 0)
(0.616486 -0.107666 0)
(0.793207 -0.0775718 0)
(0.647271 -0.0924547 0)
(0.827356 -0.0686877 0)
(0.674958 -0.0812301 0)
(0.859266 -0.0622064 0)
(0.700295 -0.0730195 0)
(0.88956 -0.0574333 0)
(0.723872 -0.0670162 0)
(0.918701 -0.0537546 0)
(0.746149 -0.0625226 0)
(0.947006 -0.0506162 0)
(0.767481 -0.0589136 0)
(0.974642 -0.0475308 0)
(0.788131 -0.055619 0)
(1.00161 -0.0441259 0)
(0.808255 -0.0521453 0)
(1.02774 -0.0402222 0)
(0.827871 -0.0481504 0)
(1.05277 -0.0358923 0)
(0.846812 -0.0435516 0)
(1.07648 -0.031411 0)
(0.864756 -0.0385835 0)
(1.0989 -0.0270374 0)
(0.881376 -0.03367 0)
(1.12033 -0.0227445 0)
(0.896697 -0.0290962 0)
(1.14114 -0.0182212 0)
(0.911208 -0.0247306 0)
(1.16146 -0.0132366 0)
(0.925528 -0.020198 0)
(1.18107 -0.00799335 0)
(0.93979 -0.0152859 0)
(1.19939 -0.00336921 0)
(0.953446 -0.0102318 0)
(1.21551 -0.000625345 0)
(0.965882 -0.00564555 0)
(1.22786 -0.000606952 0)
(0.974984 -0.00266895 0)
(1.23689 -0.00243231 0)
(0.979119 -0.00222999 0)
(0.978392 -0.00289125 0)
(0.110208 -0.540872 0)
(0.0471516 -0.602059 0)
(0.204051 -0.473503 0)
(0.131767 -0.551411 0)
(0.277448 -0.382529 0)
(0.188435 -0.446619 0)
(0.335554 -0.304357 0)
(0.238112 -0.353354 0)
(0.382434 -0.243322 0)
(0.27374 -0.280243 0)
(0.421311 -0.19678 0)
(0.301887 -0.224962 0)
(0.454166 -0.161448 0)
(0.324545 -0.183126 0)
(0.482278 -0.1347 0)
(0.342969 -0.151372 0)
(0.506619 -0.11457 0)
(0.357931 -0.127357 0)
(0.527971 -0.0995388 0)
(0.370117 -0.10932 0)
(0.546969 -0.0884081 0)
(0.380099 -0.0958814 0)
(0.564128 -0.080202 0)
(0.388323 -0.0859403 0)
(0.579865 -0.0740999 0)
(0.39516 -0.0785862 0)
(0.594523 -0.0693869 0)
(0.400932 -0.0730451 0)
(0.608395 -0.0654196 0)
(0.405936 -0.0686364 0)
(0.621712 -0.0616187 0)
(0.410471 -0.064732 0)
(0.634601 -0.0575098 0)
(0.414807 -0.0607579 0)
(0.647023 -0.0528192 0)
(0.419162 -0.056254 0)
(0.658733 -0.0475819 0)
(0.423496 -0.051011 0)
(0.669388 -0.0421515 0)
(0.427501 -0.04521 0)
(0.67883 -0.0370097 0)
(0.430402 -0.0394038 0)
(0.687335 -0.0324276 0)
(0.431792 -0.0341393 0)
(0.695451 -0.0282353 0)
(0.431392 -0.0294285 0)
(0.703658 -0.0239553 0)
(0.429936 -0.0248371 0)
(0.71192 -0.0191756 0)
(0.428033 -0.0198458 0)
(0.719343 -0.0138987 0)
(0.425826 -0.0142317 0)
(0.724359 -0.00874995 0)
(0.424705 -0.00828457 0)
(0.724792 -0.00489966 0)
(0.421715 -0.00289131 0)
(0.719659 -0.00293979 0)
(0.418117 0.000344799 0)
(0.407369 -0.00132793 0)
(0.0728569 -0.620473 0)
(0.0247326 -0.673418 0)
(0.123124 -0.532656 0)
(0.0711677 -0.599482 0)
(0.155823 -0.425171 0)
(0.0809444 -0.477151 0)
(0.178263 -0.336123 0)
(0.0927123 -0.373812 0)
(0.193829 -0.267755 0)
(0.0927371 -0.294099 0)
(0.204925 -0.21613 0)
(0.0900761 -0.234606 0)
(0.212679 -0.17692 0)
(0.0846978 -0.189706 0)
(0.217645 -0.147078 0)
(0.0773923 -0.155487 0)
(0.220332 -0.124462 0)
(0.068496 -0.129531 0)
(0.221168 -0.10744 0)
(0.0584471 -0.109981 0)
(0.2205 -0.0947235 0)
(0.0475813 -0.0953656 0)
(0.218614 -0.0852698 0)
(0.0361387 -0.0845203 0)
(0.215765 -0.07821 0)
(0.0243348 -0.0764921 0)
(0.212199 -0.0727958 0)
(0.0123759 -0.0704849 0)
(0.208175 -0.0683538 0)
(0.000472395 -0.0658159 0)
(0.203989 -0.0642563 0)
(-0.011124 -0.0618674 0)
(0.199931 -0.0599365 0)
(-0.0221105 -0.0580462 0)
(0.196168 -0.0549717 0)
(-0.0321523 -0.0537992 0)
(0.19257 -0.0492223 0)
(-0.0410965 -0.0487194 0)
(0.188556 -0.042917 0)
(-0.0490582 -0.0427136 0)
(0.183136 -0.0365213 0)
(-0.0567271 -0.0361122 0)
(0.17543 -0.0303976 0)
(-0.0647871 -0.0295701 0)
(0.165349 -0.0245699 0)
(-0.0742128 -0.023593 0)
(0.153594 -0.0188173 0)
(-0.084971 -0.0181923 0)
(0.141479 -0.0130343 0)
(-0.0966286 -0.0131599 0)
(0.130636 -0.00722613 0)
(-0.108526 -0.00838868 0)
(0.120761 -0.00171253 0)
(-0.118757 -0.00308953 0)
(0.112334 0.00244506 0)
(-0.127391 0.00143792 0)
(0.105716 0.00176373 0)
(-0.133385 0.00366416 0)
(-0.143187 0.00089262 0)
(0.0300039 -0.658798 0)
(-0.000187082 -0.702805 0)
(0.0335707 -0.549915 0)
(0.0030336 -0.602893 0)
(0.023372 -0.429872 0)
(-0.0348746 -0.467628 0)
(0.00844817 -0.333899 0)
(-0.0633101 -0.360206 0)
(-0.00986276 -0.261258 0)
(-0.100017 -0.2778 0)
(-0.0298466 -0.207488 0)
(-0.135814 -0.217238 0)
(-0.050966 -0.166956 0)
(-0.171232 -0.171784 0)
(-0.0726414 -0.136276 0)
(-0.205467 -0.137528 0)
(-0.0944925 -0.113189 0)
(-0.23825 -0.111854 0)
(-0.116249 -0.0959411 0)
(-0.269312 -0.0927956 0)
(-0.137733 -0.0831627 0)
(-0.298541 -0.0787974 0)
(-0.158805 -0.0737662 0)
(-0.325971 -0.0686529 0)
(-0.179349 -0.0668525 0)
(-0.351679 -0.061388 0)
(-0.199252 -0.0616638 0)
(-0.375759 -0.056197 0)
(-0.218375 -0.0575516 0)
(-0.398286 -0.0524127 0)
(-0.236504 -0.053935 0)
(-0.419259 -0.0494613 0)
(-0.253349 -0.0502684 0)
(-0.438562 -0.0467907 0)
(-0.268621 -0.0460726 0)
(-0.455991 -0.0438361 0)
(-0.282163 -0.041064 0)
(-0.471398 -0.0400929 0)
(-0.294079 -0.0353071 0)
(-0.48485 -0.0353026 0)
(-0.304788 -0.0292169 0)
(-0.496731 -0.0296089 0)
(-0.315 -0.0233222 0)
(-0.507688 -0.0235158 0)
(-0.325379 -0.0179414 0)
(-0.518489 -0.0175842 0)
(-0.336125 -0.0130375 0)
(-0.529668 -0.0121183 0)
(-0.347128 -0.00836973 0)
(-0.541338 -0.00708787 0)
(-0.358399 -0.00367551 0)
(-0.55311 -0.0023152 0)
(-0.368232 0.00067436 0)
(-0.563466 0.00208419 0)
(-0.375749 0.00349247 0)
(-0.571453 0.00529913 0)
(-0.380689 0.00348404 0)
(-0.578568 0.00614216 0)
(-0.585221 0.00372777 0)
(-0.018965 -0.649484 0)
(-0.0299699 -0.68423 0)
(-0.0630836 -0.521065 0)
(-0.0734074 -0.560702 0)
(-0.11538 -0.394789 0)
(-0.157604 -0.418798 0)
(-0.170231 -0.298665 0)
(-0.227198 -0.3102 0)
(-0.22425 -0.227554 0)
(-0.299492 -0.229716 0)
(-0.27649 -0.175324 0)
(-0.367205 -0.171836 0)
(-0.32577 -0.13662 0)
(-0.429627 -0.129966 0)
(-0.37161 -0.107991 0)
(-0.486105 -0.0995475 0)
(-0.413798 -0.0870494 0)
(-0.536761 -0.0777248 0)
(-0.452324 -0.0719551 0)
(-0.582027 -0.0623647 0)
(-0.487363 -0.0612535 0)
(-0.622416 -0.051775 0)
(-0.519204 -0.0538141 0)
(-0.658528 -0.0446769 0)
(-0.548183 -0.0487337 0)
(-0.690953 -0.040082 0)
(-0.574623 -0.0452833 0)
(-0.720224 -0.0372174 0)
(-0.598766 -0.0428644 0)
(-0.746786 -0.035491 0)
(-0.62074 -0.0409495 0)
(-0.770927 -0.0344238 0)
(-0.64055 -0.0390144 0)
(-0.792762 -0.0335538 0)
(-0.658158 -0.0365202 0)
(-0.812262 -0.0323488 0)
(-0.673638 -0.0330247 0)
(-0.829432 -0.0302327 0)
(-0.687297 -0.0283772 0)
(-0.844503 -0.0268075 0)
(-0.699676 -0.0228218 0)
(-0.857994 -0.0220915 0)
(-0.711439 -0.0168711 0)
(-0.870606 -0.0165415 0)
(-0.723185 -0.0110458 0)
(-0.88303 -0.0107845 0)
(-0.735211 -0.00567991 0)
(-0.895738 -0.00532072 0)
(-0.747478 -0.000901181 0)
(-0.908239 -0.000318007 0)
(-0.758496 0.00313754 0)
(-0.919797 0.00362207 0)
(-0.767609 0.0060879 0)
(-0.929576 0.00687889 0)
(-0.775255 0.0071931 0)
(-0.938375 0.00922661 0)
(-0.781543 0.00589804 0)
(-0.946211 0.00929639 0)
(-0.951166 0.00706181 0)
(-0.0714238 -0.591029 0)
(-0.0665954 -0.614274 0)
(-0.165732 -0.450942 0)
(-0.1593 -0.470514 0)
(-0.260964 -0.325318 0)
(-0.291199 -0.329878 0)
(-0.353787 -0.232344 0)
(-0.400371 -0.225576 0)
(-0.440592 -0.166188 0)
(-0.50395 -0.152448 0)
(-0.519579 -0.120197 0)
(-0.597476 -0.103187 0)
(-0.589757 -0.0880892 0)
(-0.680335 -0.0704137 0)
(-0.651401 -0.0656065 0)
(-0.752418 -0.0484729 0)
(-0.705274 -0.0501588 0)
(-0.813345 -0.0341433 0)
(-0.752384 -0.0399076 0)
(-0.865308 -0.0251538 0)
(-0.793769 -0.0333923 0)
(-0.910036 -0.0198585 0)
(-0.83036 -0.0295116 0)
(-0.949033 -0.0171241 0)
(-0.862953 -0.0274254 0)
(-0.983485 -0.0161193 0)
(-0.892216 -0.0264971 0)
(-1.01433 -0.0162113 0)
(-0.918639 -0.0262543 0)
(-1.04231 -0.0169707 0)
(-0.942541 -0.0263088 0)
(-1.06789 -0.0180669 0)
(-0.964041 -0.0262405 0)
(-1.09113 -0.0191879 0)
(-0.983149 -0.0255206 0)
(-1.11187 -0.0198827 0)
(-1.00001 -0.0236136 0)
(-1.13013 -0.0194955 0)
(-1.01502 -0.020234 0)
(-1.14623 -0.0174664 0)
(-1.02886 -0.0155347 0)
(-1.16084 -0.0136907 0)
(-1.04219 -0.0100585 0)
(-1.17476 -0.00863988 0)
(-1.05559 -0.00455451 0)
(-1.18868 -0.00302617 0)
(-1.06874 0.000332255 0)
(-1.2021 0.00211588 0)
(-1.08053 0.0044181 0)
(-1.21463 0.00618481 0)
(-1.09109 0.00782069 0)
(-1.22575 0.00931324 0)
(-1.10067 0.0103891 0)
(-1.23605 0.0119176 0)
(-1.10899 0.0113084 0)
(-1.24553 0.0135023 0)
(-1.11652 0.0101997 0)
(-1.25367 0.0130748 0)
(-1.2581 0.0111464 0)
(-0.131613 -0.479891 0)
(-0.11427 -0.485367 0)