/*--------------------------------*- C++ -*----------------------------------*\
  =========                 |
  \\      /  F ield         | OpenFOAM: The Open Source CFD Toolbox
   \\    /   O peration     | Website:  https://openfoam.org
    \\  /    A nd           | Version:  7
     \\/     M anipulation  |
\*---------------------------------------------------------------------------*/
FoamFile
{
    version     2.0;
    format      ascii;
    class       surfaceScalarField;
    location    "9";
    object      phi;
}
// * * * * * * * * * * * * * * * * * * * * * * * * * * * * * * * * * * * * * //

dimensions      [1 0 -1 0 0 0 0];

internalField   nonuniform List<scalar> 
23692
(
1.19511e-05
-3.16742e-07
1.24861e-05
-5.34883e-07
1.32006e-05
-7.14226e-07
1.40647e-05
-8.63867e-07
1.5058e-05
-9.92937e-07
1.61666e-05
-1.10825e-06
1.73821e-05
-1.21505e-06
1.86999e-05
-1.31727e-06
2.01178e-05
-1.41735e-06
2.16347e-05
-1.51623e-06
2.32488e-05
-1.61341e-06
2.49566e-05
-1.70716e-06
2.67523e-05
-1.79495e-06
2.8627e-05
-1.8739e-06
3.0569e-05
-1.9412e-06
3.25643e-05
-1.99454e-06
3.45974e-05
-2.03227e-06
3.66518e-05
-2.05356e-06
3.87109e-05
-2.0583e-06
4.07589e-05
-2.0471e-06
4.27808e-05
-2.02108e-06
4.47634e-05
-1.98172e-06
4.6695e-05
-1.93072e-06
4.85658e-05
-1.86989e-06
5.03676e-05
-1.80102e-06
5.20943e-05
-1.7258e-06
5.3741e-05
-1.64582e-06
5.53043e-05
-1.56249e-06
5.67822e-05
-1.47707e-06
5.81737e-05
-1.39062e-06
5.94786e-05
-1.30406e-06
6.06975e-05
-1.21816e-06
6.18319e-05
-1.13353e-06
6.28833e-05
-1.05068e-06
6.38541e-05
-9.70001e-07
6.47467e-05
-8.91809e-07
6.55638e-05
-8.16327e-07
6.63082e-05
-7.43718e-07
6.6983e-05
-6.74092e-07
6.75912e-05
-6.07511e-07
6.81359e-05
-5.44e-07
6.86201e-05
-4.83553e-07
6.90469e-05
-4.2614e-07
6.94192e-05
-3.71708e-07
6.97399e-05
-3.20187e-07
7.0012e-05
-2.71493e-07
7.0238e-05
-2.25527e-07
7.04207e-05
-1.8218e-07
7.05625e-05
-1.41331e-07
7.06658e-05
-1.0285e-07
7.07328e-05
-6.65916e-08
7.07656e-05
-3.24024e-08
7.0766e-05
-1.14017e-10
7.07359e-05
3.0394e-08
7.06769e-05
5.92651e-08
7.05905e-05
8.66526e-08
7.0478e-05
1.12746e-07
7.03404e-05
1.37753e-07
7.01786e-05
1.61898e-07
6.99932e-05
1.8543e-07
6.97846e-05
2.08625e-07
6.95528e-05
2.31794e-07
6.92975e-05
2.55291e-07
6.90179e-05
2.79526e-07
6.87127e-05
3.0498e-07
6.83803e-05
3.3223e-07
6.80182e-05
3.61979e-07
6.76228e-05
3.95109e-07
6.71898e-05
4.32749e-07
6.67131e-05
4.76388e-07
6.61847e-05
5.28058e-07
6.55938e-05
5.90623e-07
6.49251e-05
6.68288e-07
6.41572e-05
7.67485e-07
6.32583e-05
8.98523e-07
6.21791e-05
1.07874e-06
6.08399e-05
1.33879e-06
5.91033e-05
1.73622e-06
5.67123e-05
2.39058e-06
5.31097e-05
3.60215e-06
6.69687e-06
4.64124e-05
1.27765e-05
-6.45101e-07
1.33447e-05
-1.10298e-06
1.41058e-05
-1.47509e-06
1.50272e-05
-1.785e-06
1.60871e-05
-2.0525e-06
1.72708e-05
-2.29148e-06
1.8569e-05
-2.51283e-06
1.99771e-05
-2.72474e-06
2.14927e-05
-2.93235e-06
2.31147e-05
-3.13761e-06
2.48415e-05
-3.33949e-06
2.66695e-05
-3.5344e-06
2.85924e-05
-3.71707e-06
3.06008e-05
-3.88146e-06
3.26821e-05
-4.02174e-06
3.48215e-05
-4.13302e-06
3.7002e-05
-4.21189e-06
3.92058e-05
-4.25653e-06
4.14152e-05
-4.26678e-06
4.36129e-05
-4.24385e-06
4.57828e-05
-4.19007e-06
4.79105e-05
-4.10855e-06
4.99836e-05
-4.00283e-06
5.19913e-05
-3.87666e-06
5.39249e-05
-3.73377e-06
5.57778e-05
-3.57771e-06
5.75446e-05
-3.41176e-06
5.92219e-05
-3.23887e-06
6.08074e-05
-3.06162e-06
6.22999e-05
-2.88227e-06
6.36994e-05
-2.70271e-06
6.50067e-05
-2.5245e-06
6.62229e-05
-2.34896e-06
6.73502e-05
-2.17712e-06
6.83909e-05
-2.0098e-06
6.93475e-05
-1.84763e-06
7.02231e-05
-1.6911e-06
7.10207e-05
-1.54053e-06
7.17435e-05
-1.39615e-06
7.23948e-05
-1.25808e-06
7.29779e-05
-1.12638e-06
7.34961e-05
-1.00103e-06
7.39526e-05
-8.81968e-07
7.43506e-05
-7.6908e-07
7.46933e-05
-6.62221e-07
7.49836e-05
-5.61213e-07
7.52245e-05
-4.65851e-07
7.54187e-05
-3.75908e-07
7.5569e-05
-2.91132e-07
7.56779e-05
-2.11249e-07
7.57477e-05
-1.35962e-07
7.57806e-05
-6.49492e-08
7.57788e-05
2.12346e-09
7.5744e-05
6.55211e-08
7.5678e-05
1.2554e-07
7.55824e-05
1.82505e-07
7.54585e-05
2.36807e-07
7.53075e-05
2.88871e-07
7.51304e-05
3.39161e-07
7.49277e-05
3.88184e-07
7.46999e-05
4.36504e-07
7.44469e-05
4.84754e-07
7.41685e-05
5.33651e-07
7.38639e-05
5.8402e-07
7.35319e-05
6.36829e-07
7.31707e-05
6.93226e-07
7.27779e-05
7.54603e-07
7.23501e-05
8.22687e-07
7.18829e-05
8.99663e-07
7.13706e-05
9.88376e-07
7.08056e-05
1.09263e-06
7.01782e-05
1.21767e-06
6.94752e-05
1.37094e-06
6.86789e-05
1.56338e-06
6.77654e-05
1.8116e-06
6.67021e-05
2.14158e-06
6.54453e-05
2.59513e-06
6.394e-05
3.24103e-06
6.21329e-05
4.19727e-06
6.00632e-05
5.67142e-06
7.95158e-06
5.8808e-05
1.36546e-05
-9.81253e-07
1.42533e-05
-1.70151e-06
1.5059e-05
-2.28062e-06
1.60375e-05
-2.76321e-06
1.71651e-05
-3.17965e-06
1.84257e-05
-3.55163e-06
1.98096e-05
-3.89624e-06
2.13119e-05
-4.22637e-06
2.29303e-05
-4.55009e-06
2.46639e-05
-4.87055e-06
2.65113e-05
-5.18613e-06
2.8469e-05
-5.49125e-06
3.05303e-05
-5.77758e-06
3.26853e-05
-6.03559e-06
3.49205e-05
-6.25607e-06
3.72197e-05
-6.43126e-06
3.95645e-05
-6.55572e-06
4.19355e-05
-6.62659e-06
4.43132e-05
-6.64354e-06
4.66789e-05
-6.60851e-06
4.90149e-05
-6.52514e-06
5.13057e-05
-6.39831e-06
5.35374e-05
-6.23359e-06
5.56987e-05
-6.03689e-06
5.77799e-05
-5.81405e-06
5.97739e-05
-5.57065e-06
6.16749e-05
-5.31182e-06
6.34792e-05
-5.04218e-06
6.51843e-05
-4.7658e-06
6.67892e-05
-4.48615e-06
6.82936e-05
-4.20621e-06
6.96985e-05
-3.92843e-06
7.10053e-05
-3.65484e-06
7.22161e-05
-3.38705e-06
7.33335e-05
-3.12634e-06
7.43605e-05
-2.87369e-06
7.53001e-05
-2.62983e-06
7.61556e-05
-2.39528e-06
7.69307e-05
-2.17038e-06
7.76287e-05
-1.95533e-06
7.82533e-05
-1.7502e-06
7.8808e-05
-1.55495e-06
7.92962e-05
-1.36949e-06
7.97215e-05
-1.19364e-06
8.00871e-05
-1.02716e-06
8.03963e-05
-8.69771e-07
8.06522e-05
-7.21156e-07
8.08578e-05
-5.80955e-07
8.1016e-05
-4.48774e-07
8.11294e-05
-3.24184e-07
8.12007e-05
-2.06724e-07
8.1232e-05
-9.58892e-08
8.12257e-05
8.81642e-09
8.11838e-05
1.07825e-07
8.1108e-05
2.01596e-07
8.10001e-05
2.90652e-07
8.08616e-05
3.75595e-07
8.06935e-05
4.57079e-07
8.0497e-05
5.35812e-07
8.02727e-05
6.12568e-07
8.00211e-05
6.88203e-07
7.97421e-05
7.63668e-07
7.94357e-05
8.40037e-07
7.91011e-05
9.18537e-07
7.87372e-05
1.00059e-06
7.83423e-05
1.08786e-06
7.79143e-05
1.18237e-06
7.74502e-05
1.28653e-06
7.69462e-05
1.4034e-06
7.63974e-05
1.53682e-06
7.57979e-05
1.69179e-06
7.51402e-05
1.87493e-06
7.44155e-05
2.09524e-06
7.36134e-05
2.36507e-06
7.27227e-05
2.70175e-06
7.17342e-05
3.12967e-06
7.06458e-05
3.68299e-06
6.9478e-05
4.40836e-06
6.83092e-05
5.36558e-06
6.73656e-05
6.61461e-06
8.14288e-06
6.71738e-05
1.4591e-05
-1.32287e-06
1.5217e-05
-2.32737e-06
1.60656e-05
-3.12901e-06
1.71006e-05
-3.79788e-06
1.82963e-05
-4.37497e-06
1.96356e-05
-4.89039e-06
2.11081e-05
-5.36813e-06
2.27086e-05
-5.82624e-06
2.44353e-05
-6.27614e-06
2.62879e-05
-6.72232e-06
2.82651e-05
-7.16261e-06
3.03639e-05
-7.58915e-06
3.25774e-05
-7.9902e-06
3.4895e-05
-8.35226e-06
3.73021e-05
-8.66218e-06
3.97808e-05
-8.90897e-06
4.23109e-05
-9.08481e-06
4.4871e-05
-9.18563e-06
4.74394e-05
-9.21094e-06
4.99954e-05
-9.16345e-06
5.25196e-05
-9.04831e-06
5.49948e-05
-8.87239e-06
5.74058e-05
-8.64357e-06
5.97401e-05
-8.37013e-06
6.19874e-05
-8.06029e-06
6.41397e-05
-7.72186e-06
6.6191e-05
-7.36204e-06
6.81371e-05
-6.98727e-06
6.99756e-05
-6.60321e-06
7.17051e-05
-6.21472e-06
7.33259e-05
-5.82593e-06
7.48387e-05
-5.44024e-06
7.62453e-05
-5.06045e-06
7.7548e-05
-4.68881e-06
7.87497e-05
-4.32706e-06
7.98535e-05
-3.97656e-06
8.08629e-05
-3.63832e-06
8.17816e-05
-3.31303e-06
8.26132e-05
-3.00116e-06
8.33617e-05
-2.70296e-06
8.40309e-05
-2.41853e-06
8.46245e-05
-2.14782e-06
8.51465e-05
-1.89067e-06
8.56004e-05
-1.64683e-06
8.59899e-05
-1.41596e-06
8.63185e-05
-1.19766e-06
8.65895e-05
-9.91501e-07
8.68061e-05
-7.96963e-07
8.69714e-05
-6.13504e-07
8.70883e-05
-4.40527e-07
8.71595e-05
-2.77391e-07
8.71875e-05
-1.23402e-07
8.71746e-05
2.21055e-08
8.7123e-05
1.59739e-07
8.70348e-05
2.90145e-07
8.69117e-05
4.14065e-07
8.67552e-05
5.3232e-07
8.65667e-05
6.45801e-07
8.63472e-05
7.55464e-07
8.60975e-05
8.62345e-07
8.58181e-05
9.67582e-07
8.55094e-05
1.07243e-06
8.5171e-05
1.17829e-06
8.48027e-05
1.28675e-06
8.44035e-05
1.39962e-06
8.39722e-05
1.51899e-06
8.3507e-05
1.64732e-06
8.30057e-05
1.78755e-06
8.24656e-05
1.94322e-06
8.18833e-05
2.11868e-06
8.12554e-05
2.31934e-06
8.05779e-05
2.552e-06
7.98474e-05
2.82532e-06
7.90617e-05
3.15024e-06
7.82224e-05
3.54058e-06
7.73383e-05
4.01327e-06
7.64328e-05
4.58803e-06
7.55554e-05
5.28515e-06
7.48007e-05
6.11978e-06
7.43268e-05
7.08803e-06
8.13487e-06
7.43343e-05
1.5591e-05
-1.66878e-06
1.62419e-05
-2.97812e-06
1.71317e-05
-4.01856e-06
1.82224e-05
-4.88828e-06
1.94868e-05
-5.63889e-06
2.09064e-05
-6.30944e-06
2.24704e-05
-6.93148e-06
2.41737e-05
-7.5289e-06
2.60153e-05
-8.11694e-06
2.79955e-05
-8.70172e-06
3.01142e-05
-9.28044e-06
3.23686e-05
-9.84265e-06
3.4752e-05
-1.03726e-05
3.72528e-05
-1.08521e-05
3.9855e-05
-1.12633e-05
4.25385e-05
-1.15915e-05
4.52808e-05
-1.1826e-05
4.80576e-05
-1.19613e-05
5.08446e-05
-1.19968e-05
5.36184e-05
-1.19362e-05
5.63576e-05
-1.17863e-05
5.90428e-05
-1.15564e-05
6.16574e-05
-1.1257e-05
6.41875e-05
-1.08991e-05
6.6622e-05
-1.04936e-05
6.89521e-05
-1.00509e-05
7.11715e-05
-9.58031e-06
7.32758e-05
-9.09045e-06
7.52624e-05
-8.58869e-06
7.71302e-05
-8.08139e-06
7.88793e-05
-7.57393e-06
8.05108e-05
-7.07073e-06
8.20269e-05
-6.57543e-06
8.343e-05
-6.09093e-06
8.47235e-05
-5.61949e-06
8.59108e-05
-5.16284e-06
8.69957e-05
-4.72227e-06
8.79823e-05
-4.29867e-06
8.88747e-05
-3.89261e-06
8.96771e-05
-3.50442e-06
9.03936e-05
-3.13418e-06
9.10285e-05
-2.78183e-06
9.15857e-05
-2.44712e-06
9.20694e-05
-2.12972e-06
9.24834e-05
-1.82919e-06
9.28315e-05
-1.545e-06
9.31173e-05
-1.27655e-06
9.33441e-05
-1.02319e-06
9.35154e-05
-7.84186e-07
9.36343e-05
-5.58778e-07
9.37035e-05
-3.46129e-07
9.3726e-05
-1.45344e-07
9.37041e-05
4.44184e-08
9.36403e-05
2.23947e-07
9.35367e-05
3.94106e-07
9.33952e-05
5.55866e-07
9.32175e-05
7.10282e-07
9.3005e-05
8.58477e-07
9.2759e-05
1.00165e-06
9.24804e-05
1.14109e-06
9.21698e-05
1.27819e-06
9.18277e-05
1.41448e-06
9.14543e-05
1.55163e-06
9.10495e-05
1.69152e-06
9.06127e-05
1.83625e-06
9.01433e-05
1.98817e-06
8.96403e-05
2.15002e-06
8.91027e-05
2.32493e-06
8.8529e-05
2.51656e-06
8.79181e-05
2.72919e-06
8.72691e-05
2.96787e-06
8.65821e-05
3.23853e-06
8.58589e-05
3.54808e-06
8.51042e-05
3.9044e-06
8.43282e-05
4.31609e-06
8.35492e-05
4.79177e-06
8.2798e-05
5.33862e-06
8.21231e-05
5.95952e-06
8.15939e-05
6.64846e-06
8.1298e-05
7.38337e-06
8.11499e-06
8.13174e-05
1.666e-05
-2.01881e-06
1.73342e-05
-3.65213e-06
1.8264e-05
-4.94809e-06
1.94101e-05
-6.03396e-06
2.07437e-05
-6.97207e-06
2.22456e-05
-7.8107e-06
2.39046e-05
-8.5898e-06
2.57163e-05
-9.33986e-06
2.76807e-05
-1.00806e-05
2.98e-05
-1.08201e-05
3.20752e-05
-1.15547e-05
3.45046e-05
-1.2271e-05
3.70812e-05
-1.29482e-05
3.97926e-05
-1.35624e-05
4.26205e-05
-1.40901e-05
4.55419e-05
-1.45118e-05
4.85307e-05
-1.48136e-05
5.15591e-05
-1.49885e-05
5.45992e-05
-1.50357e-05
5.76244e-05
-1.49602e-05
6.06105e-05
-1.47711e-05
6.35358e-05
-1.44805e-05
6.63819e-05
-1.41019e-05
6.91336e-05
-1.36496e-05
7.17788e-05
-1.31376e-05
7.43082e-05
-1.2579e-05
7.6715e-05
-1.19859e-05
7.89948e-05
-1.13691e-05
8.11451e-05
-1.07377e-05
8.31648e-05
-1.01e-05
8.50545e-05
-9.46243e-06
8.68156e-05
-8.83069e-06
8.84505e-05
-8.20924e-06
8.99624e-05
-7.60167e-06
9.13548e-05
-7.01076e-06
9.26317e-05
-6.43866e-06
9.37973e-05
-5.88689e-06
9.48563e-05
-5.35656e-06
9.5813e-05
-4.84832e-06
9.66721e-05
-4.36255e-06
9.74382e-05
-3.89933e-06
9.81158e-05
-3.45852e-06
9.87094e-05
-3.03983e-06
9.92233e-05
-2.64279e-06
9.96618e-05
-2.26684e-06
0.000100029
-1.91129e-06
0.000100328
-1.57539e-06
0.000100564
-1.2583e-06
0.00010074
-9.59133e-07
0.000100859
-6.76909e-07
0.000100924
-4.10599e-07
0.000100938
-1.59101e-07
0.000100904
7.86143e-08
0.000100825
3.03527e-07
0.000100703
5.16743e-07
0.00010054
7.19478e-07
0.000100337
9.13017e-07
0.000100097
1.09871e-06
9.9821e-05
1.27799e-06
9.95098e-05
1.45236e-06
9.91646e-05
1.62345e-06
9.87861e-05
1.793e-06
9.83748e-05
1.9629e-06
9.7931e-05
2.1352e-06
9.74549e-05
2.31216e-06
9.69466e-05
2.49625e-06
9.64061e-05
2.69023e-06
9.58336e-05
2.89715e-06
9.52294e-05
3.12038e-06
9.45945e-05
3.36368e-06
9.39308e-05
3.63114e-06
9.32417e-05
3.92716e-06
9.2533e-05
4.2563e-06
9.18139e-05
4.62298e-06
9.10985e-05
5.03092e-06
9.04074e-05
5.48228e-06
8.97692e-05
5.97626e-06
8.92209e-05
6.50728e-06
8.88062e-05
7.06251e-06
8.85697e-05
7.61935e-06
8.14342e-06
8.85407e-05
1.78038e-05
-2.37362e-06
1.85005e-05
-4.3487e-06
1.94699e-05
-5.91719e-06
2.06714e-05
-7.23507e-06
2.20756e-05
-8.37569e-06
2.36623e-05
-9.3968e-06
2.54208e-05
-1.03476e-05
2.73481e-05
-1.12663e-05
2.94462e-05
-1.21779e-05
3.17197e-05
-1.30927e-05
3.41721e-05
-1.40061e-05
3.68026e-05
-1.49005e-05
3.96044e-05
-1.57488e-05
4.25629e-05
-1.65197e-05
4.56567e-05
-1.71827e-05
4.88586e-05
-1.77125e-05
5.21375e-05
-1.80913e-05
5.54607e-05
-1.83104e-05
5.87957e-05
-1.83695e-05
6.2112e-05
-1.82752e-05
6.5382e-05
-1.80398e-05
6.85814e-05
-1.76786e-05
7.16901e-05
-1.72092e-05
7.46914e-05
-1.66496e-05
7.75723e-05
-1.60173e-05
8.03233e-05
-1.53287e-05
8.29373e-05
-1.45987e-05
8.541e-05
-1.38405e-05
8.77392e-05
-1.30656e-05
8.99243e-05
-1.22838e-05
9.19662e-05
-1.1503e-05
9.38669e-05
-1.07302e-05
9.56294e-05
-9.97051e-06
9.72573e-05
-9.2284e-06
9.87548e-05
-8.50714e-06
0.000100127
-7.80922e-06
0.000101377
-7.13648e-06
0.000102512
-6.49014e-06
0.000103536
-5.87097e-06
0.000104454
-5.27935e-06
0.000105271
-4.71533e-06
0.000105992
-4.17869e-06
0.000106622
-3.66904e-06
0.000107166
-3.18578e-06
0.000107628
-2.72817e-06
0.000108013
-2.29538e-06
0.000108325
-1.88647e-06
0.000108568
-1.5004e-06
0.000108745
-1.13609e-06
0.000108862
-7.92363e-07
0.00010892
-4.67973e-07
0.000108923
-1.6161e-07
0.000108874
1.27956e-07
0.000108776
4.01916e-07
0.000108631
6.61638e-07
0.000108443
9.08585e-07
0.000108212
1.14427e-06
0.00010794
1.37025e-06
0.00010763
1.58817e-06
0.000107283
1.79972e-06
0.0001069
2.00671e-06
0.000106482
2.21102e-06
0.00010603
2.41468e-06
0.000105545
2.61981e-06
0.000105029
2.82869e-06
0.000104481
3.04374e-06
0.000103903
3.26752e-06
0.000103298
3.50274e-06
0.000102665
3.75224e-06
0.00010201
4.0189e-06
0.000101335
4.30559e-06
0.000100646
4.615e-06
9.99528e-05
4.94941e-06
9.92649e-05
5.31027e-06
9.85975e-05
5.69776e-06
9.79691e-05
6.11009e-06
9.74021e-05
6.54265e-06
9.69216e-05
6.98718e-06
9.65526e-05
7.43091e-06
9.6315e-05
7.85633e-06
8.24209e-06
9.62157e-05
1.90279e-05
-2.73451e-06
1.97474e-05
-5.06806e-06
2.07569e-05
-6.92635e-06
2.20149e-05
-8.49263e-06
2.34916e-05
-9.8518e-06
2.51669e-05
-1.10714e-05
2.70312e-05
-1.22111e-05
2.90838e-05
-1.33181e-05
3.13305e-05
-1.44237e-05
3.37797e-05
-1.55408e-05
3.64378e-05
-1.66631e-05
3.93057e-05
-1.77673e-05
4.23756e-05
-1.88176e-05
4.563e-05
-1.97729e-05
4.90421e-05
-2.05936e-05
5.25784e-05
-2.12474e-05
5.6201e-05
-2.17125e-05
5.98706e-05
-2.19787e-05
6.35492e-05
-2.20467e-05
6.72014e-05
-2.19261e-05
7.0796e-05
-2.16329e-05
7.43062e-05
-2.11873e-05
7.77097e-05
-2.06114e-05
8.09891e-05
-1.99276e-05
8.41309e-05
-1.91576e-05
8.7125e-05
-1.83214e-05
8.9965e-05
-1.74373e-05
9.26469e-05
-1.6521e-05
9.51688e-05
-1.55862e-05
9.75311e-05
-1.46446e-05
9.97352e-05
-1.37058e-05
0.000101784
-1.27776e-05
0.000103681
-1.18664e-05
0.000105431
-1.0977e-05
0.000107039
-1.01134e-05
0.000108509
-9.27841e-06
0.000109848
-8.47404e-06
0.000111061
-7.70169e-06
0.000112153
-6.96215e-06
0.00011313
-6.25579e-06
0.000113999
-5.58259e-06
0.000114763
-4.94225e-06
0.00011543
-4.3342e-06
0.000116003
-3.75769e-06
0.000116487
-3.21182e-06
0.000116888
-2.69554e-06
0.00011721
-2.20772e-06
0.000117458
-1.74712e-06
0.000117635
-1.31242e-06
0.000117746
-9.02248e-07
0.000117794
-5.1514e-07
0.000117782
-1.49583e-07
0.000117715
1.95881e-07
0.000117595
5.22678e-07
0.000117424
8.32448e-07
0.000117206
1.1269e-06
0.000116943
1.40775e-06
0.000116637
1.67676e-06
0.000116289
1.93573e-06
0.000115903
2.18652e-06
0.000115479
2.43103e-06
0.000115018
2.67126e-06
0.000114524
2.90924e-06
0.000113996
3.14708e-06
0.000113438
3.38695e-06
0.00011285
3.63106e-06
0.000112236
3.88164e-06
0.000111598
4.14091e-06
0.000110938
4.41097e-06
0.000110263
4.69378e-06
0.000109577
4.99099e-06
0.000108888
5.30377e-06
0.000108204
5.63256e-06
0.000107537
5.97682e-06
0.0001069
6.33467e-06
0.000106307
6.70252e-06
0.000105774
7.07472e-06
0.000105317
7.44336e-06
0.000104949
7.79825e-06
0.000104677
8.12738e-06
8.41835e-06
0.0001045
2.03382e-05
-3.10326e-06
2.10818e-05
-5.81136e-06
2.21328e-05
-7.97706e-06
2.34494e-05
-9.80871e-06
2.50018e-05
-1.14036e-05
2.6771e-05
-1.284e-05
2.87498e-05
-1.41891e-05
3.09419e-05
-1.55092e-05
3.33584e-05
-1.68392e-05
3.60134e-05
-1.81946e-05
3.89174e-05
-1.9566e-05
4.20726e-05
-2.09212e-05
4.54686e-05
-2.22123e-05
4.90823e-05
-2.33851e-05
5.28787e-05
-2.43886e-05
5.6815e-05
-2.51823e-05
6.08443e-05
-2.57403e-05
6.49191e-05
-2.60521e-05
6.89948e-05
-2.61208e-05
7.30307e-05
-2.59605e-05
7.69919e-05
-2.55926e-05
8.08491e-05
-2.50431e-05
8.4579e-05
-2.43398e-05
8.81633e-05
-2.35103e-05
9.15884e-05
-2.25812e-05
9.4845e-05
-2.15765e-05
9.7927e-05
-2.05177e-05
0.000100831
-1.94238e-05
0.000103557
-1.83106e-05
0.000106106
-1.71917e-05
0.00010848
-1.60782e-05
0.000110682
-1.49791e-05
0.000112719
-1.39016e-05
0.000114595
-1.28513e-05
0.000116315
-1.18324e-05
0.000117886
-1.08483e-05
0.000119315
-9.90098e-06
0.000120606
-8.99199e-06
0.000121767
-8.12213e-06
0.000122805
-7.29169e-06
0.000123724
-6.50055e-06
0.000124531
-5.74823e-06
0.000125232
-5.03402e-06
0.000125832
-4.35696e-06
0.000126337
-3.71593e-06
0.000126752
-3.10967e-06
0.000127082
-2.53682e-06
0.000127332
-1.99591e-06
0.000127506
-1.48539e-06
0.000127608
-1.00367e-06
0.000127643
-5.49063e-07
0.000127614
-1.19871e-07
0.000127525
2.85617e-07
0.000127379
6.69099e-07
0.000127179
1.0325e-06
0.000126929
1.37773e-06
0.00012663
1.70673e-06
0.000126286
2.02139e-06
0.000125898
2.32366e-06
0.000125469
2.61549e-06
0.000125002
2.89887e-06
0.000124497
3.17578e-06
0.000123958
3.44823e-06
0.000123387
3.71821e-06
0.000122786
3.98768e-06
0.000122158
4.25857e-06
0.000121507
4.53267e-06
0.000120836
4.81164e-06
0.00012015
5.09689e-06
0.000119453
5.38952e-06
0.000118754
5.69017e-06
0.000118058
5.99887e-06
0.000117375
6.31491e-06
0.000116715
6.63667e-06
0.000116087
6.96143e-06
0.000115504
7.28524e-06
0.000114975
7.60295e-06
0.00011451
7.90818e-06
0.000114113
8.19369e-06
0.000113788
8.45186e-06
8.67588e-06
0.00011353
2.1741e-05
-3.48199e-06
2.25104e-05
-6.58058e-06
2.36055e-05
-9.07179e-06
2.4984e-05
-1.11866e-05
2.6617e-05
-1.30361e-05
2.84879e-05
-1.47101e-05
3.0594e-05
-1.62943e-05
3.29457e-05
-1.786e-05
3.55628e-05
-1.94552e-05
3.84668e-05
-2.10974e-05
4.16729e-05
-2.27708e-05
4.51829e-05
-2.44298e-05
4.89809e-05
-2.60089e-05
5.30336e-05
-2.74364e-05
5.7294e-05
-2.86475e-05
6.17065e-05
-2.95932e-05
6.62125e-05
-3.02448e-05
7.07553e-05
-3.05932e-05
7.52827e-05
-3.06465e-05
7.97492e-05
-3.04253e-05
8.41166e-05
-2.99584e-05
8.8354e-05
-2.92789e-05
9.24375e-05
-2.84216e-05
9.63489e-05
-2.74201e-05
0.000100075
-2.63061e-05
0.000103609
-2.51082e-05
0.000106944
-2.38515e-05
0.00011008
-2.25579e-05
0.000113017
-2.12456e-05
0.000115757
-1.99302e-05
0.000118304
-1.8624e-05
0.000120664
-1.73372e-05
0.000122842
-1.60779e-05
0.000124844
-1.48521e-05
0.000126678
-1.36646e-05
0.000128349
-1.25187e-05
0.000129867
-1.14167e-05
0.000131236
-1.03602e-05
0.000132465
-9.34975e-06
0.000133561
-8.38565e-06
0.000134529
-7.46758e-06
0.000135377
-6.59487e-06
0.00013611
-5.76657e-06
0.000136736
-4.98152e-06
0.00013726
-4.23832e-06
0.000137687
-3.5355e-06
0.000138022
-2.8714e-06
0.000138272
-2.24434e-06
0.00013844
-1.65252e-06
0.000138531
-1.09409e-06
0.00013855
-5.67169e-07
0.000138501
-6.98815e-08
0.000138387
3.99725e-07
0.000138213
8.43722e-07
0.000137982
1.26428e-06
0.000137697
1.66352e-06
0.00013736
2.0435e-06
0.000136976
2.40627e-06
0.000136546
2.75387e-06
0.000136073
3.08832e-06
0.000135561
3.4116e-06
0.000135011
3.72566e-06
0.000134427
4.03239e-06
0.000133811
4.33364e-06
0.000133167
4.6311e-06
0.000132499
4.92636e-06
0.000131811
5.2208e-06
0.000131107
5.51557e-06
0.000130392
5.81148e-06
0.000129672
6.10897e-06
0.000128954
6.40799e-06
0.000128244
6.7079e-06
0.000127551
7.00746e-06
0.000126882
7.30466e-06
0.000126246
7.59679e-06
0.00012565
7.88038e-06
0.000125101
8.15133e-06
0.000124604
8.40507e-06
0.00012416
8.63686e-06
0.000123769
8.84218e-06
9.01763e-06
0.000123426
2.32425e-05
-3.87309e-06
2.40407e-05
-7.37856e-06
2.51834e-05
-1.02141e-05
2.66284e-05
-1.26311e-05
2.83491e-05
-1.4756e-05
3.0333e-05
-1.66931e-05
3.25849e-05
-1.85453e-05
3.51264e-05
-2.04004e-05
3.79888e-05
-2.23164e-05
4.12033e-05
-2.43106e-05
4.47887e-05
-2.63549e-05
4.87426e-05
-2.83823e-05
5.30379e-05
-3.03027e-05
5.76255e-05
-3.20224e-05
6.24409e-05
-3.34612e-05
6.74122e-05
-3.45629e-05
7.24675e-05
-3.52984e-05
7.75397e-05
-3.56637e-05
8.25699e-05
-3.5675e-05
8.75085e-05
-3.53622e-05
9.23154e-05
-3.47634e-05
9.69591e-05
-3.39208e-05
0.000101416
-3.28768e-05
0.00010567
-3.16719e-05
0.000109709
-3.03434e-05
0.000113527
-2.89244e-05
0.000117121
-2.74438e-05
0.000120491
-2.59265e-05
0.00012364
-2.43929e-05
0.000126572
-2.28603e-05
0.000129293
-2.13426e-05
0.000131808
-1.98507e-05
0.000134125
-1.83934e-05
0.000136252
-1.69773e-05
0.000138196
-1.56073e-05
0.000139966
-1.42869e-05
0.000141569
-1.30185e-05
0.000143014
-1.18034e-05
0.000144308
-1.06422e-05
0.000145458
-9.53485e-06
0.000146473
-8.48092e-06
0.000147359
-7.47947e-06
0.000148123
-6.52927e-06
0.000148772
-5.62886e-06
0.000149311
-4.7766e-06
0.000149748
-3.97071e-06
0.000150087
-3.20927e-06
0.000150334
-2.49033e-06
0.000150494
-1.81182e-06
0.000150572
-1.17165e-06
0.000150574
-5.67667e-07
0.000150503
2.07608e-09
0.000150363
5.3968e-07
0.00015016
1.04793e-06
0.000149896
1.52906e-06
0.000149574
1.98533e-06
0.000149199
2.41895e-06
0.000148774
2.83207e-06
0.000148301
3.22679e-06
0.000147785
3.60515e-06
0.000147227
3.96909e-06
0.000146633
4.32051e-06
0.000146004
4.66115e-06
0.000145345
4.99266e-06
0.000144659
5.3165e-06
0.000143952
5.63395e-06
0.000143226
5.94602e-06
0.000142488
6.25346e-06
0.000141742
6.55668e-06
0.000140995
6.8557e-06
0.000140252
7.1501e-06
0.000139521
7.43901e-06
0.000138807
7.72106e-06
0.000138116
7.99443e-06
0.000137456
8.25681e-06
0.00013683
8.50556e-06
0.000136242
8.73778e-06
0.000135696
8.95048e-06
0.000135192
9.14084e-06
0.000134727
9.30642e-06
9.44584e-06
0.000134298
2.48495e-05
-4.27917e-06
2.56802e-05
-8.20897e-06
2.68752e-05
-1.14087e-05
2.83935e-05
-1.41488e-05
3.02118e-05
-1.65736e-05
3.23253e-05
-1.88057e-05
3.47512e-05
-2.09701e-05
3.75267e-05
-2.31748e-05
4.06993e-05
-2.54877e-05
4.431e-05
-2.79199e-05
4.83776e-05
-3.0421e-05
5.28883e-05
-3.28915e-05
5.77953e-05
-3.52081e-05
6.3026e-05
-3.72513e-05
6.84931e-05
-3.89266e-05
7.41059e-05
-4.01739e-05
7.97786e-05
-4.09691e-05
8.54346e-05
-4.13179e-05
9.10099e-05
-4.12484e-05
9.64523e-05
-4.08027e-05
0.000101722
-4.00307e-05
0.000106787
-3.89848e-05
0.000111628
-3.77159e-05
0.00011623
-3.62717e-05
0.000120584
-3.46955e-05
0.000124687
-3.30249e-05
0.000128537
-3.12925e-05
0.000132139
-2.95258e-05
0.000135495
-2.77477e-05
0.000138614
-2.59768e-05
0.000141501
-2.42281e-05
0.000144165
-2.25134e-05
0.000146616
-2.0842e-05
0.000148861
-1.92208e-05
0.00015091
-1.76547e-05
0.000152772
-1.61473e-05
0.000154456
-1.47008e-05
0.000155971
-1.33165e-05
0.000157325
-1.19946e-05
0.000158527
-1.07349e-05
0.000159584
-9.53655e-06
0.000160504
-8.39835e-06
0.000161295
-7.31876e-06
0.000161964
-6.296e-06
0.000162517
-5.3281e-06
0.00016296
-4.41297e-06
0.000163301
-3.54842e-06
0.000163544
-2.73217e-06
0.000163695
-1.96193e-06
0.000163759
-1.23535e-06
0.000163743
-5.50114e-07
0.00016365
9.61445e-08
0.000163484
7.05905e-07
0.000163251
1.2819e-06
0.000162954
1.82672e-06
0.000162597
2.34277e-06
0.000162184
2.83237e-06
0.000161719
3.29777e-06
0.000161205
3.74109e-06
0.000160646
4.16436e-06
0.000160046
4.56951e-06
0.000159408
4.9583e-06
0.000158737
5.33239e-06
0.000158037
5.69322e-06
0.000157311
6.04205e-06
0.000156565
6.37992e-06
0.000155803
6.7076e-06
0.000155031
7.02559e-06
0.000154253
7.33407e-06
0.000153475
7.6329e-06
0.000152703
7.92158e-06
0.000151942
8.19928e-06
0.000151198
8.46486e-06
0.000150475
8.7169e-06
0.000149777
8.95373e-06
0.000149109
9.17357e-06
0.000148471
9.37461e-06
0.000147866
9.55515e-06
0.000147292
9.7137e-06
0.000146749
9.84921e-06
9.96149e-06
0.000146232
2.65692e-05
-4.70314e-06
2.7437e-05
-9.07645e-06
2.86906e-05
-1.26619e-05
3.02913e-05
-1.57488e-05
3.2222e-05
-1.85035e-05
3.44902e-05
-2.10728e-05
3.7132e-05
-2.36107e-05
4.02073e-05
-2.62488e-05
4.37823e-05
-2.90613e-05
4.79055e-05
-3.20416e-05
5.25868e-05
-3.51007e-05
5.77896e-05
-3.80925e-05
6.34362e-05
-4.08529e-05
6.94228e-05
-4.32361e-05
7.56359e-05
-4.51377e-05
8.19651e-05
-4.65012e-05
8.83119e-05
-4.73139e-05
9.45931e-05
-4.7597e-05
0.000100742
-4.73948e-05
0.000106706
-4.67647e-05
0.000112447
-4.577e-05
0.000117938
-4.4474e-05
0.000123162
-4.29372e-05
0.000128107
-4.12145e-05
0.000132768
-3.93548e-05
0.000137146
-3.74003e-05
0.000141242
-3.53869e-05
0.000145063
-3.33448e-05
0.000148616
-3.12984e-05
0.000151909
-2.92679e-05
0.000154952
-2.7269e-05
0.000157755
-2.53143e-05
0.000160328
-2.3413e-05
0.000162682
-2.15723e-05
0.000164826
-1.97972e-05
0.000166771
-1.8091e-05
0.000168528
-1.64556e-05
0.000170105
-1.4892e-05
0.000171513
-1.34002e-05
0.000172759
-1.19796e-05
0.000173853
-1.06289e-05
0.000174803
-9.34664e-06
0.000175617
-8.13081e-06
0.000176302
-6.9793e-06
0.000176865
-5.88979e-06
0.000177313
-4.85983e-06
0.000177653
-3.88691e-06
0.00017789
-2.96848e-06
0.000178032
-2.10194e-06
0.000178082
-1.28472e-06
0.000178047
-5.14257e-07
0.000177932
2.1216e-07
0.000177742
8.97338e-07
0.00017748
1.54416e-06
0.000177152
2.15538e-06
0.000176762
2.73356e-06
0.000176314
3.28113e-06
0.000175812
3.80037e-06
0.00017526
4.29345e-06
0.000174662
4.7624e-06
0.000174023
5.20907e-06
0.000173346
5.63519e-06
0.000172637
6.04227e-06
0.000171898
6.43166e-06
0.000171136
6.80446e-06
0.000170354
7.16159e-06
0.000169558
7.50368e-06
0.000168752
7.83114e-06
0.000167941
8.1441e-06
0.000167131
8.44245e-06
0.000166327
8.72584e-06
0.000165532
8.99366e-06
0.000164751
9.24515e-06
0.000163988
9.47941e-06
0.000163245
9.69545e-06
0.000162526
9.89227e-06
0.000161831
1.0069e-05
0.000161161
1.02248e-05
0.000160514
1.03591e-05
0.000159891
1.04719e-05
1.05636e-05
0.000159288
2.84092e-05
-5.14826e-06
2.93199e-05
-9.98683e-06
3.06406e-05
-1.3982e-05
3.23366e-05
-1.74441e-05
3.44015e-05
-2.05675e-05
3.68623e-05
-2.35326e-05
3.97833e-05
-2.65304e-05
4.32536e-05
-2.97178e-05
4.73586e-05
-3.31648e-05
5.21451e-05
-3.68263e-05
5.7599e-05
-4.05528e-05
6.36449e-05
-4.41366e-05
7.01632e-05
-4.73691e-05
7.70131e-05
-5.0084e-05
8.40538e-05
-5.21764e-05
9.1158e-05
-5.36032e-05
9.82178e-05
-5.43715e-05
0.000105147
-5.4524e-05
0.000111879
-5.4125e-05
0.000118366
-5.32495e-05
0.000124574
-5.19754e-05
0.00013048
-5.03778e-05
0.000136072
-4.85264e-05
0.000141343
-4.64834e-05
0.000146293
-4.43029e-05
0.000150927
-4.20314e-05
0.00015525
-3.97076e-05
0.000159271
-3.73638e-05
0.000163001
-3.50261e-05
0.000166451
-3.27153e-05
0.000169632
-3.04479e-05
0.000172556
-2.82365e-05
0.000175236
-2.60907e-05
0.000177683
-2.40174e-05
0.000179909
-2.20213e-05
0.000181926
-2.01054e-05
0.000183744
-1.82714e-05
0.000185373
-1.65196e-05
0.000186825
-1.48498e-05
0.000188108
-1.32607e-05
0.000189231
-1.17509e-05
0.000190205
-1.03181e-05
0.000191036
-8.96012e-06
0.000191732
-7.67436e-06
0.000192302
-6.45811e-06
0.000192753
-5.30855e-06
0.00019309
-4.22284e-06
0.000193321
-3.19808e-06
0.000193452
-2.2314e-06
0.000193488
-1.31996e-06
0.000193436
-4.60962e-07
0.000193301
3.48649e-07
0.000193087
1.11197e-06
0.0001928
1.83208e-06
0.000192444
2.51186e-06
0.000192025
3.154e-06
0.000191546
3.76102e-06
0.000191011
4.33525e-06
0.000190426
4.87889e-06
0.000189795
5.39398e-06
0.000189122
5.88235e-06
0.000188412
6.34566e-06
0.000187669
6.7854e-06
0.000186898
7.20284e-06
0.000186103
7.59905e-06
0.00018529
7.97487e-06
0.000184463
8.33097e-06
0.000183626
8.66778e-06
0.000182784
8.98553e-06
0.000181942
9.28427e-06
0.000181103
9.56391e-06
0.000180272
9.82421e-06
0.000179452
1.00648e-05
0.000178646
1.02854e-05
0.000177855
1.04855e-05
0.000177082
1.06648e-05
0.000176327
1.08232e-05
0.00017559
1.09605e-05
0.000174872
1.10768e-05
0.00017417
1.11726e-05
1.12489e-05
0.000173484
3.03778e-05
-5.61832e-06
3.13388e-05
-1.09475e-05
3.27378e-05
-1.53805e-05
3.4548e-05
-1.92535e-05
3.67799e-05
-2.27984e-05
3.94912e-05
-2.62426e-05
4.27851e-05
-2.9823e-05
4.67853e-05
-3.37165e-05
5.15891e-05
-3.79669e-05
5.72232e-05
-4.24587e-05
6.3628e-05
-4.69557e-05
7.06722e-05
-5.11787e-05
7.8185e-05
-5.48798e-05
8.59878e-05
-5.78846e-05
9.3916e-05
-6.01023e-05
0.00010183
-6.15149e-05
0.000109619
-6.21576e-05
0.000117197
-6.20999e-05
0.000124504
-6.14291e-05
0.000131496
-6.02396e-05
0.000138148
-5.86242e-05
0.000144442
-5.66699e-05
0.000150373
-5.44551e-05
0.000155941
-5.20488e-05
0.000161151
-4.95099e-05
0.00016601
-4.68884e-05
0.000170531
-4.42254e-05
0.000174724
-4.15548e-05
0.000178604
-3.89036e-05
0.000182185
-3.62933e-05
0.00018548
-3.37404e-05
0.000188503
-3.12576e-05
0.000191269
-2.88542e-05
0.00019379
-2.65366e-05
0.000196081
-2.43092e-05
0.000198152
-2.21745e-05
0.000200016
-2.01335e-05
0.000201685
-1.81862e-05
0.000203169
-1.63315e-05
0.000204478
-1.4568e-05
0.000205622
-1.28933e-05
0.000206611
-1.1305e-05
0.000207453
-9.80019e-06
0.000208156
-8.37587e-06
0.000208729
-7.0289e-06
0.000209178
-5.75607e-06
0.000209511
-4.55415e-06
0.000209735
-3.41991e-06
0.000209855
-2.35018e-06
0.000209878
-1.34183e-06
0.00020981
-3.91821e-07
0.000209657
5.03233e-07
0.000209423
1.3467e-06
0.000209115
2.14184e-06
0.000208736
2.89167e-06
0.000208292
3.59898e-06
0.000207787
4.26638e-06
0.000207227
4.89628e-06
0.000206615
5.49092e-06
0.000205957
6.05234e-06
0.000205258
6.58241e-06
0.000204521
7.08279e-06
0.000203752
7.55497e-06
0.000202954
8.00024e-06
0.000202134
8.41969e-06
0.000201295
8.81424e-06