/*--------------------------------*- C++ -*----------------------------------*\
  =========                 |
  \\      /  F ield         | OpenFOAM: The Open Source CFD Toolbox
   \\    /   O peration     | Website:  https://openfoam.org
    \\  /    A nd           | Version:  7
     \\/     M anipulation  |
\*---------------------------------------------------------------------------*/
FoamFile
{
    version     2.0;
    format      ascii;
    class       volScalarField;
    location    "9";
    object      T;
}
// * * * * * * * * * * * * * * * * * * * * * * * * * * * * * * * * * * * * * //

dimensions      [0 0 0 1 0 0 0];

internalField   nonuniform List<scalar> 
12013
(
300.139
300.422
300.711
301.005
301.3
301.594
301.887
302.175
302.459
302.737
303.007
303.27
303.525
303.771
304.008
304.237
304.457
304.669
304.872
305.067
305.255
305.435
305.608
305.775
305.935
306.09
306.239
306.383
306.522
306.657
306.788
306.915
307.04
307.163
307.283
307.403
307.522
307.641
307.761
307.883
308.009
308.139
308.274
308.416
308.567
308.728
308.901
309.088
309.293
309.516
309.763
310.034
310.335
310.669
311.04
311.454
311.914
312.426
312.998
313.634
314.344
315.133
316.012
316.989
318.075
319.282
320.622
322.109
323.759
325.59
327.623
329.881
332.393
335.192
338.319
341.827
345.787
350.294
355.497
361.638
369.181
300.139
300.422
300.712
301.005
301.3
301.595
301.888
302.176
302.46
302.738
303.009
303.272
303.526
303.773
304.01
304.239
304.459
304.671
304.874
305.07
305.257
305.438
305.611
305.778
305.938
306.093
306.242
306.386
306.525
306.66
306.791
306.918
307.043
307.165
307.286
307.405
307.524
307.643
307.764
307.886
308.012
308.141
308.276
308.418
308.569
308.73
308.903
309.09
309.294
309.518
309.764
310.035
310.336
310.669
311.04
311.452
311.912
312.423
312.994
313.629
314.337
315.125
316.001
316.976
318.059
319.262
320.597
322.079
323.722
325.545
327.566
329.81
332.304
335.077
338.17
341.63
345.515
349.904
354.897
360.618
367.181
300.14
300.423
300.713
301.006
301.302
301.597
301.89
302.179
302.463
302.741
303.012
303.275
303.53
303.777
304.015
304.244
304.464
304.676
304.88
305.075
305.263
305.444
305.617
305.784
305.944
306.099
306.248
306.392
306.531
306.666
306.797
306.925
307.049
307.172
307.292
307.412
307.53
307.65
307.77
307.892
308.017
308.147
308.282
308.423
308.574
308.734
308.907
309.094
309.297
309.52
309.766
310.036
310.336
310.668
311.038
311.449
311.907
312.417
312.985
313.618
314.322
315.106
315.978
316.947
318.024
319.219
320.544
322.013
323.641
325.445
327.443
329.657
332.11
334.831
337.852
341.21
344.95
349.119
353.765
358.916
364.535
300.14
300.424
300.714
301.008
301.304
301.6
301.893
302.183
302.468
302.746
303.018
303.282
303.537
303.784
304.022
304.252
304.473
304.685
304.889
305.085
305.273
305.453
305.627
305.794
305.955
306.11
306.259
306.403
306.542
306.677
306.808
306.935
307.06
307.182
307.303
307.422
307.541
307.66
307.78
307.902
308.027
308.156
308.29
308.432
308.582
308.742
308.914
309.1
309.303
309.525
309.769
310.039
310.337
310.668
311.035
311.444
311.899
312.406
312.97
313.598
314.298
315.076
315.94
316.9
317.966
319.148
320.457
321.906
323.51
325.284
327.244
329.409
331.799
334.439
337.351
340.563
344.1
347.985
352.226
356.805
361.652
300.14
300.425
300.716
301.011
301.308
301.604
301.899
302.189
302.475
302.754
303.026
303.291
303.547
303.795
304.034
304.264
304.485
304.698
304.902
305.098
305.287
305.468
305.642
305.809
305.97
306.125
306.274
306.418
306.558
306.693
306.824
306.951
307.076
307.198
307.318
307.437
307.556
307.674
307.794
307.916
308.04
308.169
308.303
308.444
308.593
308.753
308.924
309.109
309.311
309.532
309.774
310.042
310.338
310.666
311.031
311.437
311.888
312.39
312.949
313.571
314.262
315.031
315.885
316.832
317.882
319.045
320.331
321.752
323.322
325.053
326.96
329.058
331.364
333.895
336.668
339.698
342.996
346.565
350.395
354.452
358.671
300.141
300.426
300.718
301.015
301.313
301.61
301.906
302.198
302.484
302.765
303.038
303.304
303.561
303.809
304.049
304.28
304.502
304.715
304.92
305.117
305.306
305.488
305.662
305.83
305.991
306.146
306.296
306.44
306.579
306.714
306.845
306.973
307.097
307.22
307.34
307.458
307.577
307.695
307.814
307.936
308.06
308.188
308.321
308.461
308.61
308.768
308.938
309.122
309.322
309.541
309.782
310.047
310.34
310.665
311.026
311.427
311.873
312.369
312.92
313.533
314.215
314.971
315.81
316.74
317.769
318.906
320.162
321.547
323.071
324.747
326.586
328.601
330.803
333.203
335.812
338.636
341.676
344.925
348.363
351.957
355.655
300.141
300.428
300.722
301.02
301.319
301.618
301.915
302.209
302.497
302.779
303.054
303.321
303.579
303.829
304.07
304.302
304.525
304.739
304.945
305.142
305.332
305.514
305.689
305.857
306.019
306.175
306.324
306.469
306.608
306.743
306.874
307.002
307.126
307.248
307.368
307.487
307.605
307.723
307.841
307.962
308.086
308.213
308.345
308.484
308.632
308.789
308.957
309.139
309.337
309.554
309.792
310.054
310.343
310.664
311.02
311.415
311.854
312.342
312.884
313.485
314.153
314.894
315.714
316.622
317.624
318.73
319.947
321.286
322.755
324.364
326.121
328.037
330.118
332.371
334.801
337.407
340.184
343.122
346.198
349.383
352.639
300.142
300.431
300.726
301.026
301.328
301.629
301.928
302.223
302.513
302.797
303.074
303.342
303.603
303.854
304.096
304.33
304.554
304.769
304.976
305.175
305.366
305.549
305.724
305.893
306.055
306.211
306.361
306.506
306.646
306.781
306.912
307.04
307.164
307.286
307.405
307.523
307.641
307.758
307.876
307.996
308.119
308.245
308.377
308.515
308.66
308.815
308.982
309.162
309.357
309.571
309.805
310.064
310.348
310.664
311.013
311.401
311.831
312.309
312.839
313.426
314.078
314.799
315.596
316.476
317.446
318.513
319.685
320.969
322.373
323.904
325.568
327.372
329.32
331.415
333.657
336.041
338.562
341.204
343.95
346.774
349.648
300.143
300.434
300.732
301.034
301.338
301.642
301.943
302.241
302.534
302.82
303.099
303.37
303.632
303.886
304.13
304.365
304.591
304.808
305.016
305.216
305.408
305.592
305.769
305.938
306.101
306.258
306.408
306.553
306.693
306.829
306.96
307.087
307.211
307.333
307.452
307.57
307.687
307.804
307.921
308.04
308.162
308.287
308.417
308.553
308.697
308.85
309.014
309.191
309.384
309.594
309.824
310.077
310.356
310.665
311.006
311.385
311.805
312.27
312.785
313.356
313.988
314.685
315.455
316.302
317.234
318.256
319.375
320.597
321.927
323.37
324.932
326.615
328.422
330.353
332.405
334.572
336.846
339.214
341.66
344.164
346.703
300.145
300.438
300.739
301.044
301.351
301.658
301.963
302.264
302.56
302.849
303.131
303.404
303.669
303.925
304.172
304.409
304.637
304.856
305.066
305.268
305.461
305.646
305.824
305.995
306.158
306.316
306.467
306.613
306.753
306.888
307.02
307.147
307.271
307.392
307.511
307.628
307.744
307.86
307.977
308.095
308.215
308.339
308.467
308.601
308.743
308.894
309.055
309.229
309.417
309.623
309.848
310.095
310.367
310.668
311.001
311.368
311.775
312.226
312.724
313.275
313.883
314.554
315.291
316.102
316.99
317.961
319.02
320.172
321.421
322.771
324.223
325.781
327.443
329.208
331.073
333.03
335.072
337.188
339.363
341.581
343.826
300.146
300.444
300.748
301.057
301.368
301.678
301.987
302.292
302.591
302.884
303.169
303.446
303.715
303.973
304.223
304.463
304.694
304.915
305.127
305.331
305.526
305.713
305.893
306.064
306.229
306.387
306.539
306.686
306.826
306.962
307.093
307.221
307.345
307.465
307.584
307.7
307.816
307.931
308.046
308.163
308.281
308.403
308.53
308.662
308.801
308.948
309.106
309.276
309.46
309.66
309.879
310.12
310.384
310.675
310.997
311.352
311.745
312.179
312.657
313.185
313.767
314.406
315.108
315.876
316.716
317.631
318.626
319.703
320.865
322.116
323.455
324.884
326.401
328.004
329.687
331.446
333.272
335.156
337.086
339.049
341.033
300.148
300.45
300.759
301.072
301.387
301.703
302.016
302.325
302.629
302.927
303.216
303.498
303.77
304.032
304.286
304.529
304.763
304.987
305.202
305.408
305.606
305.795
305.976
306.149
306.316
306.475
306.628
306.775
306.916
307.052
307.184
307.311
307.435
307.555
307.673
307.789
307.903
308.017
308.131
308.246
308.363
308.483
308.607
308.736
308.872
309.016
309.17
309.335
309.514
309.709
309.921
310.153
310.408
310.689
310.998
311.339
311.715
312.13
312.586
313.088
313.64
314.245
314.908
315.631
316.418
317.273
318.198
319.196
320.269
321.418
322.644
323.944
325.319
326.765
328.276
329.849
331.476
333.148
334.857
336.592
338.344
300.151
300.457
300.772
301.09
301.411
301.732
302.051
302.366
302.676
302.978
303.273
303.56
303.836
304.104
304.361
304.609
304.846
305.074
305.293
305.502
305.702
305.894
306.077
306.253
306.421
306.581
306.735
306.883
307.025
307.162
307.293
307.421
307.544
307.664
307.781
307.896
308.009
308.122
308.234
308.347
308.462
308.58
308.701
308.827
308.96
309.1
309.249
309.409
309.582
309.77
309.974
310.197
310.442
310.711
311.006
311.331
311.689
312.082
312.514
312.989
313.508
314.076
314.696
315.37
316.102
316.894
317.747
318.665
319.647
320.694
321.806
322.982
324.219
325.515
326.866
328.265
329.709
331.189
332.698
334.23
335.774
300.154
300.467
300.787
301.112
301.44
301.768
302.093
302.415
302.731
303.04
303.342
303.634
303.917
304.189
304.452
304.705
304.947
305.179
305.402
305.615
305.818
306.013
306.199
306.377
306.547
306.709
306.865
307.014
307.156
307.293
307.425
307.553
307.676
307.795
307.911
308.025
308.137
308.248
308.359
308.47
308.583
308.698
308.816
308.939
309.067
309.203
309.347
309.501
309.667
309.847
310.043
310.256
310.489
310.745
311.025
311.333
311.67
312.041
312.446
312.891
313.376
313.904
314.479
315.103
315.777
316.504
317.285
318.121
319.013
319.96
320.962
322.018
323.125
324.28
325.48
326.72
327.996
329.302
330.633
331.981
333.341
300.158
300.477
300.805
301.138
301.474
301.81
302.144
302.473
302.797
303.114
303.423
303.722
304.012
304.292
304.561
304.819
305.067
305.305
305.532
305.75
305.957
306.156
306.345
306.526
306.698
306.862
307.02
307.17
307.313
307.451
307.583
307.711
307.833
307.952
308.068
308.18
308.291
308.401
308.509
308.618
308.728
308.84
308.955
309.073
309.197
309.328
309.466
309.614
309.773
309.944
310.13
310.333
310.553
310.795
311.059
311.348
311.664
312.01
312.388
312.8
313.249
313.737
314.266
314.838
315.454
316.116
316.825
317.581
318.384
319.235
320.131
321.073
322.057
323.081
324.142
325.237
326.361
327.51
328.68
329.864
331.059
300.162
300.49
300.827
301.17
301.515
301.86
302.203
302.542
302.876
303.202
303.519
303.828
304.126
304.413
304.69
304.955
305.21
305.454
305.687
305.91
306.123
306.325
306.518
306.702
306.878
307.045
307.204
307.355
307.5
307.639
307.771
307.899
308.021
308.139
308.254
308.365
308.474
308.582
308.688
308.795
308.902
309.01
309.121
309.235
309.355
309.48
309.612
309.753
309.903
310.066
310.241
310.432
310.639
310.865
311.112
311.381
311.675
311.995
312.345
312.724
313.137
313.583
314.066
314.586
315.144
315.742
316.38
317.058
317.777
318.535
319.332
320.167
321.037
321.94
322.875
323.837
324.824
325.832
326.857
327.895
328.943
300.167
300.506
300.853
301.206
301.563
301.919
302.274
302.624
302.969
303.305
303.634
303.952
304.26
304.557
304.843
305.117
305.38
305.631
305.871
306.1
306.318
306.526
306.724
306.912
307.09
307.26
307.421
307.575
307.721
307.861
307.994
308.121
308.243
308.361
308.474
308.584
308.692
308.797
308.901
309.004
309.108
309.213
309.319
309.429
309.543
309.662
309.788
309.921
310.063
310.216
310.38
310.558
310.752
310.962
311.191
311.439
311.71
312.005
312.325
312.671
313.047
313.452
313.888
314.357
314.859
315.395
315.965
316.569
317.207
317.879
318.583
319.319
320.084
320.878
321.697
322.539
323.402
324.283
325.179
326.086
327.003
300.173
300.524
300.884
301.25
301.619
301.989
302.357
302.72
303.078
303.428
303.768
304.099
304.418
304.726
305.023
305.307
305.579
305.84
306.088
306.324
306.549
306.763
306.966
307.158
307.34
307.513
307.678
307.833
307.981
308.121
308.255
308.382
308.504
308.621
308.733
308.842
308.947
309.05
309.151
309.252
309.352
309.452
309.555
309.659
309.767
309.88
309.998
310.124
310.257
310.399
310.553
310.718
310.897
311.091
311.301
311.529
311.776
312.045
312.335
312.649
312.988
313.353
313.745
314.164
314.612
315.088
315.594
316.129
316.692
317.283
317.902
318.547
319.217
319.91
320.625
321.359
322.112
322.879
323.66
324.451
325.25
300.18
300.545
300.919
301.301
301.685
302.071
302.454
302.833
303.206
303.571
303.926
304.271
304.604
304.926
305.235
305.531
305.814
306.084
306.342
306.587
306.819
307.04
307.249
307.446
307.633
307.81
307.977
308.135
308.285
308.426
308.56
308.688
308.809
308.925
309.036
309.143
309.246
309.346
309.445
309.542
309.638
309.734
309.831
309.931
310.033
310.139
310.25
310.366
310.49
310.622
310.764
310.916
311.08
311.257
311.449
311.657
311.881
312.123
312.385
312.667
312.971
313.297
313.646
314.018
314.415
314.835
315.281
315.751
316.245
316.762
317.303
317.865
318.449
319.052
319.674
320.312
320.965
321.632
322.31
322.997
323.693
300.188
300.57
300.962
301.36
301.763
302.167
302.568
302.966
303.357
303.739
304.112
304.473
304.822
305.159
305.483
305.792
306.088
306.371
306.639
306.893
307.135
307.363
307.578
307.782
307.974
308.155
308.325
308.486
308.637
308.78
308.915
309.043
309.163
309.278
309.388
309.493
309.594
309.691
309.786
309.879
309.971
310.063
310.155
310.249
310.345
310.444
310.547
310.655
310.769
310.89
311.02
311.159
311.308
311.469
311.642
311.83
312.031
312.249
312.483
312.734
313.004
313.293
313.601
313.93
314.278
314.648
315.038
315.448
315.879
316.33
316.8
317.288
317.794
318.317
318.855
319.408
319.973
320.55
321.137
321.733
322.336
300.197
300.599
301.011
301.43
301.854
302.279
302.702
303.121
303.532
303.935
304.328
304.709
305.077
305.432
305.772
306.097
306.408
306.703
306.984
307.249
307.5
307.737
307.96
308.17
308.368
308.553
308.727
308.891
309.044
309.189
309.324
309.452
309.572
309.686
309.794
309.897
309.995
310.089
310.181
310.27
310.358
310.444
310.531
310.619
310.708
310.8
310.895
310.994
311.098
311.209
311.327
311.452
311.587
311.732
311.888
312.055
312.235
312.428
312.636
312.858
313.096
313.35
313.621
313.909
314.214
314.536
314.876
315.233
315.606
315.997
316.403
316.826
317.263
317.714
318.178
318.655
319.142
319.64
320.147
320.662
321.183
300.209
300.633
301.068
301.512
301.96
302.41
302.858
303.301
303.737
304.164
304.58
304.984
305.373
305.748
306.108
306.451
306.778
307.089
307.383
307.66
307.922
308.169
308.4
308.618
308.821
309.011
309.189
309.356
309.512
309.657
309.793
309.921
310.04
310.153
310.259
310.36
310.455
310.546
310.634
310.719
310.802
310.883
310.964
311.046
311.128
311.212
311.299
311.389
311.484
311.584
311.69
311.803
311.923
312.052
312.191
312.339
312.498
312.669
312.852
313.047
313.256
313.478
313.714
313.965
314.23
314.509
314.804
315.112
315.435
315.772
316.122
316.486
316.862
317.25
317.649
318.059
318.478
318.907
319.343
319.786
320.236
300.222
300.672
301.135
301.607
302.084
302.563
303.039
303.511
303.976
304.431
304.873
305.303
305.717
306.115
306.496
306.86
307.205
307.532
307.841
308.133
308.407
308.664
308.904
309.129
309.339
309.534
309.716
309.886
310.044
310.191
310.327
310.455
310.573
310.684
310.788
310.886
310.978
311.066
311.15
311.23
311.308
311.384
311.459
311.534
311.609
311.686
311.765
311.846
311.931
312.021
312.115
312.215
312.322
312.436
312.558
312.689
312.829
312.978
313.138
313.308
313.49
313.683
313.888
314.105
314.334
314.575
314.829
315.095
315.372
315.662
315.963
316.274
316.597
316.93
317.272
317.623
317.983
318.351
318.725
319.106
319.493
300.237
300.718
301.213
301.718
302.228
302.74
303.251
303.756
304.253
304.74
305.213
305.672
306.114
306.538
306.943
307.329
307.695
308.041
308.366
308.672
308.959
309.227
309.477
309.71
309.926
310.127
310.314
310.486
310.646
310.794
310.931
311.058
311.175
311.284
311.386
311.481
311.57
311.653
311.732
311.808
311.881
311.951
312.02
312.088
312.157
312.226
312.296
312.369
312.444
312.523
312.607
312.695
312.789
312.889
312.995
313.109
313.231
313.361
313.499
313.647
313.804
313.971
314.148
314.335
314.532
314.739
314.957
315.185
315.423
315.671
315.928
316.195
316.471
316.756
317.048
317.349
317.657
317.971
318.292
318.618
318.95
300.255
300.772
301.304
301.847
302.396
302.946
303.496
304.039
304.574
305.097
305.605
306.097
306.571
307.024
307.456
307.866
308.255
308.62
308.964
309.285
309.586
309.865
310.125
310.366
310.589
310.795
310.986
311.161
311.322
311.471
311.608
311.734
311.85
311.956
312.055
312.147
312.232
312.311
312.385
312.456
312.523
312.588
312.65
312.712
312.773
312.834
312.897
312.961
313.027
313.096
313.169
313.246
313.327
313.414
313.506
313.605
313.71
313.822
313.941
314.069
314.204
314.347
314.499
314.659
314.828
315.006
315.192
315.387
315.59
315.802
316.022
316.249
316.485
316.728
316.978
317.234
317.497
317.766
318.04
318.319
318.603
300.275
300.835
301.41
301.996
302.59
303.186
303.78
304.367
304.945
305.509
306.057
306.586
307.094
307.58
308.041
308.478
308.89
309.277
309.639
309.977
310.292
310.583
310.853
311.102
311.331
311.542
311.736
311.914
312.076
312.225
312.361
312.485
312.599
312.703
312.798
312.886
312.967
313.041
313.111
313.176
313.237
313.296
313.352
313.407
313.461
313.515
313.569
313.625
313.682
313.742
313.804
313.87
313.94
314.015
314.094
314.178
314.268
314.364
314.467
314.576
314.691
314.814
314.944
315.08
315.225
315.376
315.535
315.701
315.875
316.055
316.243
316.437
316.638
316.845
317.058
317.276
317.501
317.73
317.964
318.202
318.445
300.299
300.907
301.532
302.17
302.815
303.463
304.108
304.746
305.372
305.983
306.575
307.146
307.692
308.212
308.706
309.171
309.609
310.018
310.399
310.754
311.082
311.385
311.664
311.921
312.156
312.371
312.567
312.746
312.909
313.057
313.192
313.314
313.425
313.525
313.617
313.7
313.776
313.845
313.909
313.969
314.024
314.076
314.126
314.174
314.221
314.268
314.314
314.362
314.411
314.461
314.515
314.571
314.63
314.693
314.761
314.832
314.909
314.991
315.078
315.171
315.269
315.373
315.484
315.601
315.724
315.853
315.988
316.13
316.277
316.431
316.591
316.756
316.927
317.103
317.285
317.472
317.663
317.858
318.058
318.262
318.469
300.327
300.991
301.675
302.372
303.077
303.783
304.487
305.182
305.863
306.526
307.168
307.783
308.371
308.93
309.457
309.952
310.416
310.848
311.248
311.619
311.961
312.275
312.562
312.825
313.065
313.283
313.481
313.66
313.822
313.969
314.101
314.219
314.326
314.423
314.51
314.588
314.658
314.722
314.781
314.834
314.883
314.929
314.972
315.014
315.054
315.093
315.133
315.173
315.213
315.256
315.3
315.347
315.397
315.45
315.507
315.568
315.633
315.702
315.776
315.854
315.938
316.027
316.121
316.22
316.325
316.435
316.55
316.671
316.796
316.927
317.064
317.205
317.35
317.501
317.656
317.815
317.978
318.145
318.316
318.49
318.667
300.359
301.089
301.84
302.605
303.378
304.154
304.924
305.683
306.426
307.147
307.842
308.507
309.14
309.738
310.3
310.827
311.316
311.771
312.19
312.576
312.93
313.253
313.547
313.815
314.058
314.277
314.475
314.653
314.813
314.956
315.084
315.199
315.301
315.393
315.474
315.547
315.611
315.669
315.722
315.769
315.812
315.852
315.889
315.924
315.957
315.99
316.023
316.055
316.089
316.124
316.161
316.2
316.242
316.286
316.333
316.384
316.439
316.497
316.56
316.627
316.698
316.773
316.853
316.938
317.027
317.121
317.22
317.323
317.43
317.542
317.659
317.779
317.904
318.032
318.165
318.301
318.441
318.584
318.73
318.879
319.03
300.397
301.203
302.031
302.875
303.727
304.58
305.426
306.258
307.07
307.854
308.608
309.325
310.005
310.644
311.243
311.799
312.315
312.79
313.226
313.625
313.988
314.319
314.618
314.888
315.131
315.35
315.546
315.721
315.877
316.016
316.139
316.248
316.345
316.43
316.505
316.572
316.63
316.682
316.729
316.77
316.807
316.84
316.871
316.901
316.928
316.955
316.982
317.009
317.036
317.065
317.095
317.127
317.162
317.199
317.239
317.282
317.328
317.377
317.43
317.487
317.548
317.613
317.681
317.754
317.83
317.911
317.996
318.084
318.176
318.273
318.373
318.476
318.584
318.694
318.808
318.925
319.045
319.168
319.293
319.421
319.552
300.44
301.334
302.252
303.187
304.129
305.071
306.002
306.915
307.802
308.656
309.471
310.245
310.973
311.654
312.287
312.872
313.411
313.904
314.354
314.763
315.134
315.468
315.769
316.038
316.279
316.495
316.686
316.856
317.006
317.139
317.256
317.359
317.449
317.527
317.596
317.656
317.709
317.755
317.795
317.831
317.862
317.891
317.916
317.94
317.963
317.985
318.007
318.029
318.051
318.075
318.1
318.127
318.156
318.187
318.221
318.258
318.297
318.34
318.386
318.435
318.487
318.543
318.603
318.666
318.732
318.802
318.876
318.953
319.033
319.116
319.203
319.293
319.386
319.482
319.58
319.681
319.785
319.892
320
320.111
320.223
300.49
301.486
302.508
303.547
304.592
305.634
306.66
307.663
308.631
309.559
310.44
311.27
312.047
312.768
313.433
314.044
314.603
315.11
315.57
315.985
316.357
316.691
316.99
317.255
317.491
317.7
317.885
318.048
318.191
318.316
318.425
318.521
318.604
318.676
318.738
318.792
318.839
318.879
318.914
318.945
318.972
318.996
319.017
319.037
319.056
319.075
319.093
319.112
319.131
319.151
319.173
319.196
319.221
319.249
319.279
319.311
319.346
319.384
319.424
319.468
319.514
319.564
319.617
319.672
319.731
319.793
319.858
319.926
319.996
320.07
320.146
320.225
320.307
320.391
320.477
320.565
320.656
320.749
320.843
320.94
321.038
300.548
301.662
302.803
303.961
305.123
306.277
307.41
308.509
309.566
310.571
311.519
312.405
313.227
313.985
314.678
315.309
315.881
316.397
316.861
317.276
317.646
317.975
318.267
318.525
318.752
318.953
319.128
319.282
319.416
319.533
319.634
319.722
319.798
319.863
319.919
319.968
320.009
320.045
320.076
320.103
320.127
320.149
320.168
320.186
320.203
320.22
320.236
320.253
320.271
320.29
320.31
320.332
320.356
320.381
320.409
320.439
320.472
320.506
320.544
320.584
320.627
320.672
320.72
320.771
320.825
320.881
320.939
321
321.064
321.13
321.198
321.269
321.341
321.416
321.492
321.571
321.651
321.733
321.816
321.901
321.987
300.615
301.864
303.142
304.436
305.731
307.01
308.259
309.463
310.612
311.696
312.709
313.647
314.51
315.297
316.01
316.654
317.232
317.749
318.209
318.618
318.98
319.299
319.58
319.827
320.043
320.232
320.396
320.54
320.664
320.772
320.866
320.946
321.016
321.076
321.127
321.172
321.21
321.243
321.273
321.298
321.321
321.342
321.361
321.379
321.396
321.413
321.431
321.449
321.467
321.487
321.508
321.531
321.555
321.581
321.609
321.638
321.671
321.705
321.741
321.78
321.821
321.864
321.91
321.958
322.008
322.06
322.115
322.171
322.23
322.29
322.352
322.416
322.482
322.55
322.619
322.689
322.761
322.834
322.908
322.983
323.06
300.693
302.097
303.532
304.98
306.423
307.84
309.214
310.528
311.77
312.93
314.004
314.987
315.881
316.687
317.411
318.057
318.631
319.14
319.589
319.985
320.333
320.637
320.904
321.136
321.338
321.515
321.668
321.801
321.916
322.016
322.103
322.178
322.243
322.299
322.348
322.391
322.429
322.462
322.491
322.518
322.543
322.565
322.587
322.608
322.628
322.649
322.669
322.691
322.713
322.736
322.76
322.785
322.812
322.841
322.871
322.903
322.936
322.972
323.009
323.048
323.09
323.133
323.177
323.224
323.272
323.323
323.375
323.428
323.483
323.54
323.598
323.657
323.718
323.78
323.843
323.907
323.972
324.038
324.104
324.172
324.24
300.781
302.364
303.977
305.6
307.206
308.774
310.28
311.706
313.038
314.267
315.389
316.404
317.317
318.13
318.85
319.486
320.045
320.536
320.965
321.341
321.669
321.955
322.204
322.421
322.61
322.774
322.916
323.041
323.149
323.243
323.325
323.397
323.461
323.517
323.566
323.611
323.651
323.687
323.72
323.751
323.78
323.808
323.835
323.862
323.888
323.914
323.94
323.967
323.995
324.023
324.053
324.083
324.115
324.147
324.182
324.217
324.254
324.292
324.332
324.373
324.416
324.46
324.505
324.552
324.6
324.649
324.7
324.752
324.804
324.858
324.913
324.969
325.025
325.083
325.141
325.2
325.259
325.319
325.38
325.441
325.502
300.882
302.669
304.484
306.301
308.088
309.815
311.456
312.99
314.405
315.687
316.838
317.862
318.77
319.57
320.272
320.886
321.422
321.889
322.295
322.648
322.955
323.221
323.453
323.655
323.831
323.984
324.118
324.236
324.34
324.431
324.513
324.585
324.65
324.709
324.762
324.811
324.857
324.899
324.939
324.977
325.014
325.05
325.085
325.119
325.153
325.187
325.222
325.256
325.291
325.327
325.363
325.4
325.437
325.475
325.515
325.555
325.596
325.638
325.681
325.725
325.77
325.815
325.862
325.909
325.958
326.007
326.056
326.107
326.158
326.21
326.262
326.315
326.368
326.421
326.475
326.529
326.584
326.639
326.693
326.748
326.803
300.997
303.015
305.059
307.091
309.073
310.967
312.737
314.353
315.812
317.116
318.272
319.289
320.179
320.955
321.63
322.215
322.721
323.16
323.539
323.867
324.152
324.4
324.615
324.803
324.969
325.114
325.242
325.357
325.459
325.551
325.634
325.71
325.78
325.845
325.905
325.962
326.015
326.066
326.116
326.163
326.209
326.255
326.299
326.343
326.386
326.43
326.473
326.516
326.559
326.602
326.646
326.689
326.733
326.777
326.822
326.867
326.912
326.958
327.004
327.051
327.098
327.145
327.193
327.241
327.29
327.338
327.387
327.437
327.486
327.536
327.585
327.635
327.685
327.734
327.784
327.834
327.884
327.933
327.983
328.032
328.081
301.126
303.405
305.704
307.973
310.155
312.182
314.034
315.701
317.184
318.491
319.634
320.627
321.487
322.228
322.867
323.416
323.888
324.295
324.646
324.949
325.213
325.442
325.644
325.821
325.978
326.118
326.243
326.357
326.46
326.555
326.643
326.725
326.801
326.874
326.942
327.008
327.071
327.132
327.191
327.248
327.305
327.36
327.414
327.467
327.52
327.572
327.624
327.675
327.726
327.776
327.827
327.876
327.926
327.976
328.025
328.074
328.123
328.172
328.221
328.269
328.318
328.367
328.415
328.463
328.511
328.559
328.607
328.655
328.702
328.749
328.796
328.843
328.889
328.935
328.98
329.026
329.07
329.115
329.159
329.203
329.246
301.267
303.832
306.412
308.903
311.228
313.352
315.26
316.95
318.431
319.719
320.83
321.784
322.602
323.3
323.897
324.407
324.843
325.218
325.542
325.822
326.066
326.28
326.469
326.637
326.788
326.925
327.049
327.163
327.269
327.367
327.46
327.548
327.631
327.711
327.787
327.861
327.932
328.002
328.069
328.135
328.2
328.263
328.326
328.387
328.447
328.506
328.565
328.622
328.679
328.735
328.79
328.845
328.899
328.952
329.005
329.057
329.108
329.159
329.21
329.26
329.309
329.358
329.406
329.454
329.502
329.548
329.595
329.64
329.686
329.73
329.774
329.818
329.861
329.903
329.945
329.986
330.026
330.066
330.106
330.145
330.183
301.4
304.248
307.055
309.695
312.114
314.288
316.212
317.893
319.349
320.599
321.669
322.58
323.354
324.011
324.57
325.047
325.454
325.803
326.105
326.367
326.596
326.799
326.979
327.141
327.287
327.421
327.544
327.658
327.765
327.866
327.962
328.053
328.14
328.224
328.305
328.384
328.46
328.534
328.607
328.678
328.747
328.815
328.882
328.947
329.012
329.075
329.137
329.198
329.258
329.317
329.375
329.432
329.489
329.544
329.599
329.652
329.705
329.757
329.809
329.859
329.909
329.958
330.006
330.054
330.1
330.146
330.191
330.236
330.279
330.322
330.364
330.406
330.447
330.487
330.526
330.564
330.602
330.639
330.676
330.712
330.747
379.301
387.231
393.915
399.757
404.954
409.615
413.798
417.539
420.85
423.733
426.175
428.154
429.634
430.567
430.884
430.496
429.272
427.015
423.394
417.751
408.44
402.149
397.336
393.402
390.057
387.141
384.552
382.222
380.102
378.157
376.357
374.683
373.116
371.642
370.249
368.928
367.671
366.469
365.318
364.211
363.144
362.113
361.115
360.146
359.203
358.285
357.388
356.511
355.652
354.809
353.982
353.168
352.366
351.576
350.797
350.027
349.266
348.514
347.769
347.032
346.301
345.578
344.86
344.149
343.444
342.745
342.052
341.365
340.684
340.009
339.34
338.677
338.02
337.369
336.725
336.087
335.455
334.831
334.214
333.603
333
332.405
331.817
331.237
330.666
330.103
329.548
329.002
328.466
327.938
327.42
326.912
326.414
325.926
325.448
324.981
324.524
324.078
323.643
323.219
322.805
322.403
322.011
321.631
321.262
320.903
320.555
320.218
319.892
319.576
319.27
318.974
318.688
318.412
318.145
317.887
317.638
317.397
317.165
316.941
316.724
316.515
316.313
316.117
315.928
315.745
315.568
315.396
315.23
315.068
314.911
314.759
314.61
314.465
314.324
314.186
314.051
313.919
313.79
313.663
313.538
313.416
313.295
313.176
313.059
312.943
312.829
312.716
312.604
312.493
312.383
312.274
312.166
312.058
311.952
311.846
311.741
311.636
311.533
311.43
311.33
374.57
381.454
387.667
393.262
398.316
402.887
407.015
410.72
414.011
416.884
419.327
421.315
422.814
423.776
424.139
423.819
422.703
420.634
417.395
412.717
406.556
401.232
396.796
393.042
389.799
386.946
384.4
382.1
380.002
378.074
376.288
374.624
373.065
371.598
370.212
368.895
367.642
366.444
365.295
364.19
363.126
362.097
361.1
360.133
359.191
358.274
357.378
356.502
355.644
354.802
353.975
353.162
352.361
351.571
350.792
350.023
349.262
348.51
347.765
347.028
346.298
345.575
344.857
344.146
343.442
342.743
342.05
341.363
340.682
340.007
339.337
338.674
338.017
337.367
336.722
336.085
335.453
334.829
334.212
333.601
332.998
332.403
331.815
331.236
330.664
330.101
329.546
329.001
328.464
327.937
327.419
326.911
326.413
325.924
325.447
324.979
324.523
324.077
323.641
323.217
322.804
322.401
322.01
321.63
321.26
320.902
320.554
320.217
319.891
319.575
319.269
318.973
318.687
318.411
318.144
317.886
317.637
317.397
317.165
316.941
316.724
316.515
316.313
316.117
315.928
315.745
315.568
315.396
315.23
315.068
314.911
314.759
314.61
314.465
314.324
314.186
314.051
313.919
313.79
313.663
313.538
313.416
313.295
313.177
313.059
312.944
312.829
312.716
312.604
312.493
312.383
312.274
312.166
312.059
311.952
311.846
311.741
311.636
311.533
311.431
311.33
370.496
376.381
381.958
387.147
391.934
396.324
400.327
403.948
407.185
410.028
412.461
414.46
415.989
417.007
417.456
417.267
416.353
414.61
411.934
408.279
403.86
399.573
395.705
392.278
389.237
386.516
384.061
381.827
379.779
377.889
376.133
374.493
372.953
371.502
370.129
368.823
367.578
366.388
365.246
364.147
363.087
362.063
361.07
360.105
359.167
358.252
357.358
356.484
355.628
354.787
353.962
353.149
352.35
351.561
350.783
350.014
349.254
348.502
347.758
347.022
346.292
345.569
344.852
344.141
343.437
342.738
342.045
341.358
340.677
340.002
339.333
338.67
338.013
337.363