/*--------------------------------*- C++ -*----------------------------------*\
  =========                 |
  \\      /  F ield         | OpenFOAM: The Open Source CFD Toolbox
   \\    /   O peration     | Website:  https://openfoam.org
    \\  /    A nd           | Version:  7
     \\/     M anipulation  |
\*---------------------------------------------------------------------------*/
FoamFile
{
    version     2.0;
    format      ascii;
    class       volVectorField;
    location    "9";
    object      U;
}
// * * * * * * * * * * * * * * * * * * * * * * * * * * * * * * * * * * * * * //

dimensions      [0 1 -1 0 0 0 0];

internalField   nonuniform List<vector> 
12013
(
(0.100957 -0.000256005 0)
(0.104669 -0.000442583 0)
(0.110273 -0.000603593 0)
(0.117233 -0.000745784 0)
(0.125395 -0.000875769 0)
(0.134619 -0.000998641 0)
(0.144812 -0.00111858 0)
(0.155919 -0.0012389 0)
(0.167919 -0.00136182 0)
(0.180799 -0.00148827 0)
(0.194551 -0.00161777 0)
(0.209156 -0.00174859 0)
(0.224576 -0.00187798 0)
(0.240745 -0.00200257 0)
(0.257577 -0.00211882 0)
(0.274956 -0.00222341 0)
(0.292754 -0.00231359 0)
(0.310829 -0.0023873 0)
(0.329033 -0.00244329 0)
(0.347224 -0.00248109 0)
(0.365264 -0.00250087 0)
(0.383029 -0.00250337 0)
(0.400406 -0.00248974 0)
(0.417301 -0.00246136 0)
(0.433634 -0.00241979 0)
(0.449341 -0.00236664 0)
(0.46437 -0.00230349 0)
(0.478687 -0.00223188 0)
(0.492267 -0.00215321 0)
(0.505094 -0.0020688 0)
(0.517163 -0.00197981 0)
(0.528477 -0.00188727 0)
(0.539043 -0.00179211 0)
(0.548876 -0.00169512 0)
(0.557992 -0.00159698 0)
(0.566413 -0.00149829 0)
(0.574161 -0.00139954 0)
(0.581262 -0.00130117 0)
(0.587744 -0.00120352 0)
(0.593633 -0.00110689 0)
(0.598958 -0.00101154 0)
(0.603748 -0.000917641 0)
(0.608032 -0.000825365 0)
(0.611839 -0.000734832 0)
(0.615197 -0.000646125 0)
(0.618136 -0.000559295 0)
(0.620683 -0.000474365 0)
(0.622867 -0.000391327 0)
(0.624713 -0.000310134 0)
(0.626248 -0.000230705 0)
(0.627499 -0.000152918 0)
(0.62849 -7.66024e-05 0)
(0.629245 -1.56251e-06 0)
(0.629788 7.24227e-05 0)
(0.630141 0.000145519 0)
(0.630327 0.000218006 0)
(0.630368 0.000290267 0)
(0.630284 0.000362771 0)
(0.630093 0.000436085 0)
(0.629815 0.000510894 0)
(0.629466 0.000588032 0)
(0.62906 0.000668514 0)
(0.628611 0.000753583 0)
(0.628129 0.000844776 0)
(0.627621 0.000944001 0)
(0.627091 0.00105367 0)
(0.626539 0.00117685 0)
(0.625959 0.00131755 0)
(0.625336 0.00148104 0)
(0.624646 0.00167451 0)
(0.62385 0.00190796 0)
(0.622889 0.0021958 0)
(0.621672 0.00255957 0)
(0.620064 0.0030329 0)
(0.617853 0.00367085 0)
(0.6147 0.00456866 0)
(0.61005 0.00590102 0)
(0.602913 0.00801508 0)
(0.591515 0.0117311 0)
(0.572716 0.019981 0)
(0.553968 0.0532309 0)
(0.100869 -0.00077961 0)
(0.104559 -0.00135432 0)
(0.11013 -0.0018474 0)
(0.117063 -0.00228209 0)
(0.1252 -0.00267922 0)
(0.134402 -0.00305432 0)
(0.144573 -0.00342021 0)
(0.155662 -0.00378711 0)
(0.167646 -0.00416177 0)
(0.180515 -0.00454702 0)
(0.194261 -0.00494146 0)
(0.208867 -0.00533977 0)
(0.224294 -0.00573356 0)
(0.240479 -0.00611258 0)
(0.257334 -0.00646608 0)
(0.274745 -0.00678404 0)
(0.292581 -0.00705807 0)
(0.310699 -0.00728201 0)
(0.328952 -0.00745211 0)
(0.347193 -0.00756694 0)
(0.365285 -0.00762711 0)
(0.383102 -0.00763485 0)
(0.400531 -0.00759362 0)
(0.417476 -0.00750767 0)
(0.433856 -0.00738167 0)
(0.449607 -0.0072205 0)
(0.464679 -0.00702895 0)
(0.479034 -0.00681162 0)
(0.492648 -0.00657279 0)
(0.505507 -0.00631639 0)
(0.517605 -0.00604596 0)
(0.528944 -0.00576463 0)
(0.539533 -0.00547516 0)
(0.549385 -0.00517999 0)
(0.558517 -0.00488117 0)
(0.566952 -0.00458051 0)
(0.574712 -0.00427952 0)
(0.581823 -0.0039795 0)
(0.588312 -0.00368153 0)
(0.594206 -0.00338651 0)
(0.599534 -0.00309521 0)
(0.604326 -0.00280821 0)
(0.60861 -0.00252601 0)
(0.612415 -0.00224897 0)
(0.615769 -0.00197736 0)
(0.618703 -0.00171135 0)
(0.621242 -0.00145101 0)
(0.623416 -0.00119631 0)
(0.625251 -0.000947122 0)
(0.626774 -0.000703195 0)
(0.62801 -0.000464157 0)
(0.628984 -0.000229492 0)
(0.62972 1.39608e-06 0)
(0.630242 0.000229102 0)
(0.630572 0.000454127 0)
(0.630733 0.000677316 0)
(0.630745 0.00089983 0)
(0.63063 0.0011231 0)
(0.630406 0.00134887 0)
(0.630091 0.00157921 0)
(0.629701 0.00181668 0)
(0.629252 0.00206433 0)
(0.628757 0.00232595 0)
(0.628225 0.00260615 0)
(0.627665 0.00291068 0)
(0.627082 0.00324675 0)
(0.626475 0.0036235 0)
(0.62584 0.00405276 0)
(0.625165 0.00455008 0)
(0.62443 0.00513637 0)
(0.623603 0.00584043 0)
(0.622635 0.00670316 0)
(0.621454 0.00778449 0)
(0.619959 0.00917551 0)
(0.618 0.0110203 0)
(0.615362 0.0135566 0)
(0.611743 0.0171928 0)
(0.606715 0.0226625 0)
(0.59973 0.0313603 0)
(0.590687 0.0460153 0)
(0.587592 0.0718023 0)
(0.100768 -0.00131948 0)
(0.104398 -0.00231893 0)
(0.109899 -0.00316891 0)
(0.116772 -0.00391779 0)
(0.124857 -0.00460183 0)
(0.134011 -0.00524779 0)
(0.14414 -0.00587792 0)
(0.155192 -0.00650997 0)
(0.167146 -0.00715575 0)
(0.179993 -0.00782022 0)
(0.19373 -0.00850105 0)
(0.20834 -0.00918906 0)
(0.223786 -0.00986974 0)
(0.240008 -0.0105253 0)
(0.256917 -0.011137 0)
(0.274397 -0.0116875 0)
(0.292315 -0.0121621 0)
(0.310527 -0.0125501 0)
(0.328881 -0.012845 0)
(0.347229 -0.0130442 0)
(0.36543 -0.0131489 0)
(0.383355 -0.0131629 0)
(0.40089 -0.0130921 0)
(0.417937 -0.012944 0)
(0.434415 -0.0127267 0)
(0.450256 -0.0124486 0)
(0.465412 -0.012118 0)
(0.479844 -0.0117429 0)
(0.493529 -0.0113307 0)
(0.506451 -0.0108882 0)
(0.518606 -0.0104215 0)
(0.529995 -0.00993593 0)
(0.540628 -0.00943639 0)
(0.550519 -0.00892699 0)
(0.559685 -0.00841134 0)
(0.568148 -0.0078925 0)
(0.575931 -0.00737311 0)
(0.583061 -0.00685538 0)
(0.589565 -0.00634118 0)
(0.59547 -0.00583206 0)
(0.600805 -0.00532931 0)
(0.6056 -0.00483395 0)
(0.609884 -0.00434682 0)
(0.613686 -0.00386854 0)
(0.617034 -0.00339955 0)
(0.619958 -0.00294014 0)
(0.622485 -0.00249041 0)
(0.624643 -0.00205031 0)
(0.626459 -0.00161959 0)
(0.627959 -0.00119782 0)
(0.629169 -0.00078434 0)
(0.630114 -0.000378253 0)
(0.630818 2.14476e-05 0)
(0.631304 0.00041572 0)
(0.631595 0.00080556 0)
(0.631712 0.00119247 0)
(0.631678 0.00157844 0)
(0.631511 0.00196594 0)
(0.631231 0.00235792 0)
(0.630856 0.00275793 0)
(0.630402 0.00317028 0)
(0.629884 0.00360014 0)
(0.629315 0.00405385 0)
(0.628706 0.00453911 0)
(0.628065 0.00506546 0)
(0.627399 0.00564475 0)
(0.62671 0.00629193 0)
(0.625996 0.00702607 0)
(0.625251 0.00787196 0)
(0.62446 0.00886235 0)
(0.623604 0.0100414 0)
(0.622652 0.0114701 0)
(0.621563 0.0132346 0)
(0.620285 0.0154597 0)
(0.618754 0.018331 0)
(0.616912 0.0221301 0)
(0.614728 0.0272923 0)
(0.612286 0.034496 0)
(0.60996 0.0448061 0)
(0.608872 0.059813 0)
(0.612928 0.0809519 0)
(0.100659 -0.00186805 0)
(0.104208 -0.00333079 0)
(0.109607 -0.00456441 0)
(0.11639 -0.0056518 0)
(0.124394 -0.00664471 0)
(0.133476 -0.00758215 0)
(0.143541 -0.00849683 0)
(0.154538 -0.00941482 0)
(0.166449 -0.0103536 0)
(0.179268 -0.0113207 0)
(0.192996 -0.0123129 0)
(0.207621 -0.0133167 0)
(0.223109 -0.0143109 0)
(0.2394 -0.0152693 0)
(0.256404 -0.0161643 0)
(0.274005 -0.0169701 0)
(0.292066 -0.017665 0)
(0.310437 -0.0182333 0)
(0.328961 -0.0186652 0)
(0.347484 -0.018957 0)
(0.365863 -0.0191105 0)
(0.383963 -0.0191312 0)
(0.401668 -0.0190281 0)
(0.418876 -0.018812 0)
(0.435505 -0.0184949 0)
(0.451487 -0.0180892 0)
(0.466772 -0.017607 0)
(0.481323 -0.0170601 0)
(0.495114 -0.0164592 0)
(0.508131 -0.0158144 0)
(0.52037 -0.0151345 0)
(0.531834 -0.0144274 0)
(0.542532 -0.0137 0)
(0.552479 -0.0129586 0)
(0.561693 -0.0122081 0)
(0.570195 -0.0114531 0)
(0.578012 -0.0106975 0)
(0.585168 -0.00994431 0)
(0.591691 -0.00919635 0)
(0.597611 -0.00845582 0)
(0.602955 -0.00772456 0)
(0.607754 -0.00700405 0)
(0.612037 -0.00629545 0)
(0.615834 -0.00559965 0)
(0.619172 -0.00491727 0)
(0.622081 -0.00424868 0)
(0.62459 -0.00359403 0)
(0.626725 -0.00295319 0)
(0.628515 -0.0023258 0)
(0.629984 -0.00171121 0)
(0.631159 -0.00110845 0)
(0.632065 -0.000516199 0)
(0.632725 6.6944e-05 0)
(0.633163 0.000642332 0)
(0.633402 0.00121156 0)
(0.633464 0.00177686 0)
(0.633368 0.00234112 0)
(0.633136 0.00290787 0)
(0.632786 0.00348131 0)
(0.632336 0.00406647 0)
(0.631802 0.00466939 0)
(0.6312 0.00529734 0)
(0.630543 0.00595907 0)
(0.629843 0.00666519 0)
(0.629111 0.00742869 0)
(0.628353 0.00826555 0)
(0.627577 0.00919562 0)
(0.626784 0.0102439 0)
(0.625974 0.0114421 0)
(0.625145 0.0128312 0)
(0.62429 0.0144647 0)
(0.623402 0.0164138 0)
(0.622474 0.0187737 0)
(0.621504 0.0216744 0)
(0.62051 0.0252929 0)
(0.619544 0.029871 0)
(0.618743 0.0357326 0)
(0.618387 0.0432932 0)
(0.619025 0.0530348 0)
(0.621599 0.0653621 0)
(0.627739 0.0800303 0)
(0.100547 -0.00242361 0)
(0.104005 -0.00438533 0)
(0.109278 -0.00603051 0)
(0.115945 -0.00748238 0)
(0.123844 -0.00880796 0)
(0.132832 -0.0100594 0)
(0.142813 -0.0112809 0)
(0.15374 -0.0125081 0)
(0.165598 -0.0137648 0)
(0.178389 -0.0150617 0)
(0.192118 -0.0163946 0)
(0.20678 -0.0177455 0)
(0.222345 -0.0190855 0)
(0.238755 -0.0203787 0)
(0.255918 -0.0215874 0)
(0.273713 -0.0226759 0)
(0.291997 -0.0236149 0)
(0.310611 -0.0243824 0)
(0.329391 -0.0249654 0)
(0.348176 -0.0253589 0)
(0.366815 -0.0255653 0)
(0.385167 -0.0255926 0)
(0.403113 -0.0254528 0)
(0.420547 -0.025161 0)
(0.437386 -0.0247335 0)
(0.453561 -0.024187 0)
(0.469021 -0.0235382 0)
(0.483728 -0.0228027 0)
(0.497659 -0.0219954 0)
(0.5108 -0.0211294 0)
(0.523147 -0.0202169 0)
(0.534706 -0.0192683 0)
(0.545485 -0.0182931 0)
(0.5555 -0.0172992 0)
(0.564771 -0.0162936 0)
(0.573322 -0.0152823 0)
(0.581176 -0.0142704 0)
(0.588361 -0.0132619 0)
(0.594906 -0.0122606 0)
(0.60084 -0.0112694 0)
(0.606192 -0.0102906 0)
(0.610992 -0.00932619 0)
(0.61527 -0.0083777 0)
(0.619056 -0.00744626 0)
(0.622378 -0.00653264 0)
(0.625266 -0.00563731 0)
(0.627749 -0.00476041 0)
(0.629853 -0.00390176 0)
(0.631607 -0.00306083 0)
(0.633036 -0.00223673 0)
(0.634166 -0.00142816 0)
(0.635022 -0.000633361 0)
(0.635627 0.000149454 0)
(0.636007 0.000922078 0)
(0.636183 0.00168677 0)
(0.636177 0.00244658 0)
(0.636009 0.00320534 0)
(0.6357 0.00396762 0)
(0.635269 0.00473886 0)
(0.634733 0.00552553 0)
(0.63411 0.00633531 0)
(0.633415 0.00717734 0)
(0.632663 0.00806255 0)
(0.631868 0.00900405 0)
(0.63104 0.0100176 0)
(0.630192 0.0111225 0)
(0.629332 0.0123419 0)
(0.62847 0.0137047 0)
(0.627613 0.0152465 0)
(0.626769 0.0170116 0)
(0.625949 0.0190559 0)
(0.625165 0.0214497 0)
(0.62444 0.0242817 0)
(0.623812 0.0276635 0)
(0.623347 0.0317327 0)
(0.623154 0.0366541 0)
(0.623416 0.042612 0)
(0.624414 0.0497851 0)
(0.626568 0.0582868 0)
(0.630438 0.0680409 0)
(0.636683 0.078555 0)
(0.100433 -0.00298565 0)
(0.103802 -0.00547919 0)
(0.108933 -0.00756466 0)
(0.115464 -0.0094083 0)
(0.123239 -0.0110923 0)
(0.132114 -0.0126824 0)
(0.141997 -0.0142358 0)
(0.152844 -0.0157986 0)
(0.164647 -0.0174026 0)
(0.177417 -0.019062 0)
(0.191171 -0.0207718 0)
(0.205909 -0.0225088 0)
(0.221608 -0.024235 0)
(0.238211 -0.0259031 0)
(0.255621 -0.0274632 0)
(0.27371 -0.0288684 0)
(0.292322 -0.0300798 0)
(0.311288 -0.0310689 0)
(0.330431 -0.0318188 0)
(0.349579 -0.0323232 0)
(0.368572 -0.0325858 0)
(0.387262 -0.0326173 0)
(0.405525 -0.032434 0)
(0.423253 -0.0320554 0)
(0.440359 -0.0315031 0)
(0.456776 -0.030799 0)
(0.472451 -0.0299645 0)
(0.487349 -0.02902 0)
(0.501447 -0.0279844 0)
(0.514733 -0.0268748 0)
(0.527206 -0.0257066 0)
(0.538871 -0.0244932 0)
(0.549739 -0.0232466 0)
(0.559829 -0.0219769 0)
(0.569161 -0.020693 0)
(0.577759 -0.0194024 0)
(0.58565 -0.0181113 0)
(0.592862 -0.0168252 0)
(0.599424 -0.0155485 0)
(0.605366 -0.0142849 0)
(0.610719 -0.0130373 0)
(0.615513 -0.0118081 0)
(0.619777 -0.0105991 0)
(0.623544 -0.00941187 0)
(0.626841 -0.00824719 0)
(0.629698 -0.00710562 0)
(0.632144 -0.00598727 0)
(0.634207 -0.00489188 0)
(0.635914 -0.00381875 0)
(0.637292 -0.00276672 0)
(0.638366 -0.00173416 0)
(0.63916 -0.00071885 0)
(0.639701 0.000281373 0)
(0.640011 0.00126877 0)
(0.640113 0.00224635 0)
(0.640028 0.00321802 0)
(0.639778 0.00418855 0)
(0.639383 0.00516353 0)
(0.638861 0.00614957 0)
(0.638232 0.00715441 0)
(0.637513 0.00818717 0)
(0.63672 0.00925858 0)
(0.635869 0.0103813 0)
(0.634976 0.0115702 0)
(0.634055 0.0128431 0)
(0.63312 0.0142211 0)
(0.632186 0.0157291 0)
(0.631267 0.0173972 0)
(0.630378 0.0192614 0)
(0.629539 0.0213646 0)
(0.628772 0.0237583 0)
(0.628107 0.0265035 0)
(0.627587 0.0296715 0)
(0.627269 0.0333438 0)
(0.62724 0.0376094 0)
(0.627617 0.0425573 0)
(0.628563 0.0482628 0)
(0.630292 0.0547608 0)
(0.633064 0.0620051 0)
(0.63716 0.0698099 0)
(0.642808 0.0777848 0)
(0.100317 -0.00355467 0)
(0.103605 -0.00661044 0)
(0.10859 -0.00916548 0)
(0.114972 -0.0114292 0)
(0.122609 -0.0134992 0)
(0.131359 -0.0154552 0)
(0.141133 -0.0173687 0)
(0.151897 -0.0192983 0)
(0.163653 -0.0212848 0)
(0.176426 -0.0233471 0)
(0.190245 -0.0254795 0)
(0.205123 -0.0276522 0)
(0.221042 -0.029816 0)
(0.237943 -0.0319098 0)
(0.255721 -0.0338684 0)
(0.274233 -0.0356313 0)
(0.293307 -0.0371485 0)
(0.312755 -0.0383839 0)
(0.332384 -0.0393165 0)
(0.352008 -0.0399396 0)
(0.371455 -0.0402584 0)
(0.390571 -0.0402878 0)
(0.409225 -0.040049 0)
(0.427308 -0.0395675 0)
(0.444732 -0.0388708 0)
(0.461429 -0.0379866 0)
(0.477351 -0.0369422 0)
(0.492462 -0.035763 0)
(0.506744 -0.0344726 0)
(0.520186 -0.0330924 0)
(0.53279 -0.0316411 0)
(0.544563 -0.0301357 0)
(0.55552 -0.0285905 0)
(0.565681 -0.0270181 0)
(0.575067 -0.0254293 0)
(0.583706 -0.0238332 0)
(0.591625 -0.0222375 0)
(0.598853 -0.0206486 0)
(0.605422 -0.0190718 0)
(0.611361 -0.0175117 0)
(0.616703 -0.0159716 0)
(0.621478 -0.0144545 0)
(0.625718 -0.0129625 0)
(0.629452 -0.0114972 0)
(0.632712 -0.0100596 0)
(0.635526 -0.00865035 0)
(0.637924 -0.0072695 0)
(0.639933 -0.00591666 0)
(0.641581 -0.00459093 0)
(0.642895 -0.00329089 0)
(0.643901 -0.00201457 0)
(0.644623 -0.000759329 0)
(0.645087 0.000477397 0)
(0.645317 0.00169837 0)
(0.645334 0.00290741 0)
(0.645162 0.0041093 0)
(0.64482 0.00530969 0)
(0.644331 0.00651512 0)
(0.643712 0.00773318 0)
(0.642983 0.00897268 0)
(0.642163 0.0102439 0)
(0.641268 0.0115586 0)
(0.640318 0.0129307 0)
(0.639328 0.014376 0)
(0.638317 0.0159132 0)
(0.637301 0.0175637 0)
(0.636299 0.0193524 0)
(0.635332 0.0213081 0)
(0.634422 0.0234637 0)
(0.633594 0.0258571 0)
(0.632881 0.0285305 0)
(0.632323 0.0315308 0)
(0.631969 0.0349078 0)
(0.631884 0.0387115 0)
(0.63215 0.0429876 0)
(0.632868 0.0477688 0)
(0.634158 0.0530632 0)
(0.636157 0.0588373 0)
(0.639006 0.0649961 0)
(0.642818 0.0713636 0)
(0.647639 0.077676 0)
(0.100199 -0.00413232 0)
(0.103419 -0.00777873 0)
(0.108261 -0.0108331 0)
(0.114489 -0.0135462 0)
(0.121979 -0.0160315 0)
(0.130598 -0.0183834 0)
(0.140262 -0.0206893 0)
(0.15095 -0.0230226 0)
(0.16268 -0.0254354 0)
(0.175497 -0.0279521 0)
(0.189449 -0.0305658 0)
(0.204563 -0.0332382 0)
(0.220824 -0.0359057 0)
(0.238165 -0.0384886 0)
(0.256467 -0.0409031 0)
(0.275562 -0.0430718 0)
(0.295255 -0.0449316 0)
(0.315331 -0.0464382 0)
(0.335578 -0.0475671 0)
(0.355791 -0.0483118 0)
(0.375788 -0.048681 0)
(0.395407 -0.0486949 0)
(0.414514 -0.0483816 0)
(0.432999 -0.0477735 0)
(0.450774 -0.0469054 0)
(0.467776 -0.0458121 0)
(0.483957 -0.0445269 0)
(0.499289 -0.0430814 0)
(0.513754 -0.0415041 0)
(0.527348 -0.039821 0)
(0.540074 -0.0380548 0)
(0.551944 -0.0362255 0)
(0.562977 -0.0343507 0)
(0.573193 -0.0324451 0)
(0.582618 -0.0305216 0)
(0.591281 -0.0285909 0)
(0.599211 -0.026662 0)
(0.606439 -0.0247425 0)
(0.612997 -0.0228387 0)
(0.618917 -0.0209556 0)
(0.624232 -0.0190973 0)
(0.628973 -0.017267 0)
(0.633172 -0.0154673 0)
(0.63686 -0.0136998 0)
(0.640068 -0.0119657 0)
(0.642825 -0.0102656 0)
(0.645161 -0.00859946 0)
(0.647104 -0.00696678 0)
(0.648681 -0.00536646 0)
(0.64992 -0.00379683 0)
(0.650847 -0.00225556 0)
(0.651486 -0.000739695 0)
(0.651865 0.000753804 0)
(0.652005 0.00222825 0)
(0.651931 0.00368828 0)
(0.651663 0.00513952 0)
(0.651223 0.0065884 0)
(0.650633 0.00804225 0)
(0.649913 0.00950942 0)
(0.649081 0.0109995 0)
(0.648157 0.0125234 0)
(0.647161 0.0140937 0)
(0.646111 0.0157245 0)
(0.645028 0.0174318 0)
(0.643929 0.019234 0)
(0.642837 0.0211515 0)
(0.641773 0.0232072 0)
(0.640762 0.0254265 0)
(0.63983 0.0278374 0)
(0.639008 0.0304697 0)
(0.638332 0.0333546 0)
(0.637844 0.0365236 0)
(0.637594 0.0400059 0)
(0.637641 0.0438254 0)
(0.638051 0.0479963 0)
(0.6389 0.0525169 0)
(0.640265 0.0573619 0)
(0.642223 0.0624751 0)
(0.644836 0.0677616 0)
(0.648133 0.0730862 0)
(0.65209 0.0782826 0)
(0.100075 -0.00472113 0)
(0.103245 -0.00898528 0)
(0.107954 -0.0125691 0)
(0.114027 -0.0157617 0)
(0.121371 -0.0186939 0)
(0.129859 -0.021475 0)
(0.139421 -0.0242111 0)
(0.150052 -0.0269935 0)
(0.161796 -0.029888 0)
(0.174727 -0.0329261 0)
(0.188914 -0.036098 0)
(0.204398 -0.0393534 0)
(0.221165 -0.0426082 0)
(0.239129 -0.0457586 0)
(0.258144 -0.0486964 0)
(0.278008 -0.0513238 0)
(0.298489 -0.0535632 0)
(0.319342 -0.0553621 0)
(0.340331 -0.0566939 0)
(0.361235 -0.0575545 0)
(0.381858 -0.0579584 0)
(0.402036 -0.0579336 0)
(0.421633 -0.0575165 0)
(0.44054 -0.0567487 0)
(0.458676 -0.0556735 0)
(0.47598 -0.0543335 0)
(0.492412 -0.0527695 0)
(0.507947 -0.0510193 0)
(0.522576 -0.0491171 0)
(0.536298 -0.0470935 0)
(0.549122 -0.0449756 0)
(0.561063 -0.0427868 0)
(0.572144 -0.0405474 0)
(0.582389 -0.0382748 0)
(0.591827 -0.0359836 0)
(0.600488 -0.0336864 0)
(0.608404 -0.0313934 0)
(0.615608 -0.0291133 0)
(0.622134 -0.0268532 0)
(0.628014 -0.0246187 0)
(0.633282 -0.0224145 0)
(0.637971 -0.0202442 0)
(0.642112 -0.0181103 0)
(0.645738 -0.0160149 0)
(0.648879 -0.0139591 0)
(0.651566 -0.0119434 0)
(0.653827 -0.00996783 0)
(0.655693 -0.00803157 0)
(0.657189 -0.00613337 0)
(0.658344 -0.0042713 0)
(0.659184 -0.00244277 0)
(0.659732 -0.00064456 0)
(0.660019 0.00112687 0)
(0.660065 0.0028755 0)
(0.659893 0.00460675 0)
(0.659527 0.00632696 0)
(0.658987 0.0080432 0)
(0.658295 0.00976333 0)
(0.657472 0.0114962 0)
(0.656537 0.0132519 0)
(0.655513 0.0150415 0)
(0.654418 0.0168775 0)
(0.653273 0.0187738 0)
(0.652099 0.0207457 0)
(0.650919 0.02281 0)
(0.649755 0.0249851 0)
(0.648631 0.0272906 0)
(0.647574 0.0297473 0)
(0.646613 0.0323765 0)
(0.645779 0.0351998 0)
(0.64511 0.0382371 0)
(0.644644 0.0415063 0)
(0.644425 0.04502 0)
(0.6445 0.0487838 0)
(0.644919 0.0527927 0)
(0.64573 0.0570278 0)
(0.646979 0.0614526 0)
(0.6487 0.0660106 0)
(0.650911 0.0706246 0)
(0.653605 0.0751996 0)
(0.656735 0.0796344 0)
(0.0999456 -0.00532432 0)
(0.103084 -0.0102327 0)
(0.107673 -0.0143769 0)
(0.113598 -0.0180806 0)
(0.1208 -0.0214932 0)
(0.129167 -0.0247415 0)
(0.138644 -0.0279533 0)
(0.149255 -0.0312422 0)
(0.161081 -0.0346912 0)
(0.174228 -0.0383392 0)
(0.188797 -0.0421708 0)
(0.204836 -0.0461163 0)
(0.222318 -0.0500626 0)
(0.241126 -0.0538728 0)
(0.261067 -0.0574083 0)
(0.281894 -0.0605474 0)
(0.303328 -0.0631975 0)
(0.325092 -0.0652999 0)
(0.346923 -0.0668287 0)
(0.368585 -0.067786 0)
(0.389877 -0.0681951 0)
(0.410633 -0.0680947 0)
(0.430721 -0.0675325 0)
(0.450038 -0.0665606 0)
(0.46851 -0.0652325 0)
(0.486084 -0.0635996 0)
(0.50273 -0.0617109 0)
(0.518429 -0.0596109 0)
(0.533179 -0.0573399 0)
(0.546985 -0.0549334 0)
(0.559863 -0.0524226 0)
(0.571834 -0.0498346 0)
(0.582923 -0.0471925 0)
(0.593158 -0.0445161 0)
(0.602572 -0.041822 0)
(0.611197 -0.0391242 0)
(0.619068 -0.0364342 0)
(0.626219 -0.0337617 0)
(0.632685 -0.0311145 0)
(0.6385 -0.0284989 0)
(0.643699 -0.0259198 0)
(0.648315 -0.0233812 0)
(0.65238 -0.0208858 0)
(0.655928 -0.0184357 0)
(0.658988 -0.0160319 0)
(0.661592 -0.013675 0)
(0.66377 -0.0113648 0)
(0.665548 -0.00910032 0)
(0.666957 -0.0068801 0)
(0.668022 -0.00470196 0)
(0.66877 -0.00256309 0)
(0.669226 -0.000460207 0)
(0.669419 0.00161077 0)
(0.66937 0.00365469 0)
(0.669102 0.0056777 0)
(0.668638 0.00768663 0)
(0.668 0.00968892 0)
(0.66721 0.0116928 0)
(0.66629 0.0137072 0)
(0.665259 0.0157423 0)
(0.664139 0.0178088 0)
(0.662953 0.0199189 0)
(0.66172 0.0220852 0)
(0.660465 0.0243217 0)
(0.659209 0.026643 0)
(0.657976 0.0290645 0)
(0.656794 0.0316017 0)
(0.655687 0.0342703 0)
(0.654686 0.0370851 0)
(0.65382 0.0400596 0)
(0.653122 0.0432044 0)
(0.652627 0.0465265 0)
(0.652368 0.0500276 0)
(0.652382 0.0537019 0)
(0.652701 0.0575352 0)
(0.653353 0.0615027 0)
(0.654361 0.0655682 0)
(0.655734 0.0696844 0)
(0.657468 0.0737938 0)
(0.659543 0.0778331 0)
(0.66191 0.0817417 0)
(0.0998067 -0.00594556 0)
(0.102934 -0.0115251 0)
(0.107422 -0.0162617 0)
(0.113208 -0.0205097 0)
(0.12028 -0.02444 0)
(0.128543 -0.0281996 0)
(0.137969 -0.0319439 0)
(0.148622 -0.0358144 0)
(0.16063 -0.0399155 0)
(0.174146 -0.044292 0)
(0.189295 -0.0489159 0)
(0.206124 -0.0536864 0)
(0.224573 -0.0584482 0)
(0.244471 -0.0630208 0)
(0.265559 -0.0672281 0)
(0.287529 -0.0709233 0)
(0.310055 -0.074001 0)
(0.332823 -0.0764004 0)
(0.35555 -0.0781016 0)
(0.377992 -0.0791176 0)
(0.399948 -0.0794851 0)
(0.421256 -0.0792567 0)
(0.441793 -0.0784939 0)
(0.461467 -0.0772616 0)
(0.480215 -0.0756243 0)
(0.497997 -0.0736437 0)
(0.51479 -0.071377 0)
(0.530587 -0.068876 0)
(0.545393 -0.0661871 0)
(0.559222 -0.0633508 0)
(0.572095 -0.0604026 0)
(0.584038 -0.0573729 0)
(0.595081 -0.0542876 0)
(0.605257 -0.0511687 0)
(0.614601 -0.0480346 0)
(0.623148 -0.0449008 0)
(0.630935 -0.0417799 0)
(0.637998 -0.0386823 0)
(0.644373 -0.0356165 0)
(0.650096 -0.0325893 0)
(0.655201 -0.0296059 0)
(0.659722 -0.0266703 0)
(0.663694 -0.0237855 0)
(0.667147 -0.0209535 0)
(0.670114 -0.0181752 0)
(0.672625 -0.0154512 0)
(0.674709 -0.012781 0)
(0.676396 -0.0101634 0)
(0.677712 -0.00759689 0)
(0.678686 -0.00507889 0)
(0.679343 -0.00260637 0)
(0.679707 -0.000176511 0)
(0.67981 0.00221552 0)
(0.679671 0.00457571 0)
(0.679313 0.00691072 0)
(0.67876 0.00922762 0)
(0.678033 0.011534 0)
(0.677155 0.0138381 0)
(0.676147 0.0161487 0)
(0.675032 0.0184755 0)
(0.67383 0.0208288 0)
(0.672564 0.0232193 0)
(0.671255 0.0256585 0)
(0.669928 0.0281582 0)
(0.668606 0.0307304 0)
(0.667312 0.0333871 0)
(0.666072 0.0361397 0)
(0.664912 0.0389988 0)
(0.663858 0.0419734 0)
(0.662938 0.0450705 0)
(0.66218 0.0482937 0)
(0.661611 0.0516428 0)
(0.661257 0.0551128 0)
(0.661141 0.0586927 0)
(0.661284 0.0623652 0)
(0.6617 0.0661062 0)
(0.662397 0.0698849 0)
(0.663371 0.0736651 0)
(0.664609 0.0774064 0)
(0.666088 0.0810675 0)
(0.667765 0.084613 0)
(0.0996562 -0.0065889 0)
(0.102793 -0.0128678 0)
(0.107201 -0.0182305 0)
(0.112862 -0.0230587 0)
(0.119822 -0.0275487 0)
(0.128012 -0.0318737 0)
(0.137441 -0.0362243 0)
(0.148229 -0.0407781 0)
(0.160568 -0.0456634 0)
(0.174661 -0.0509265 0)
(0.19065 -0.0565125 0)
(0.208555 -0.0622711 0)
(0.228252 -0.0679872 0)
(0.249487 -0.0734245 0)
(0.27192 -0.078366 0)
(0.295173 -0.0826416 0)
(0.318874 -0.0861392 0)
(0.342681 -0.0888036 0)
(0.366299 -0.0906281 0)
(0.389484 -0.0916426 0)
(0.412043 -0.091902 0)
(0.433827 -0.0914765 0)
(0.454727 -0.0904436 0)
(0.474667 -0.0888827 0)
(0.493598 -0.0868705 0)
(0.511493 -0.0844792 0)
(0.528341 -0.0817749 0)
(0.544148 -0.0788166 0)
(0.558926 -0.0756567 0)
(0.572697 -0.0723408 0)
(0.58549 -0.0689081 0)
(0.597336 -0.0653923 0)
(0.608269 -0.0618219 0)
(0.618327 -0.0582209 0)
(0.627547 -0.0546093 0)
(0.635967 -0.0510038 0)
(0.643627 -0.0474178 0)
(0.650562 -0.0438626 0)
(0.656811 -0.0403469 0)
(0.66241 -0.0368779 0)
(0.667395 -0.0334611 0)
(0.6718 -0.0301004 0)
(0.675658 -0.0267988 0)
(0.679002 -0.0235582 0)
(0.681863 -0.0203795 0)
(0.684271 -0.0172629 0)
(0.686257 -0.0142079 0)
(0.687848 -0.0112131 0)
(0.689072 -0.00827662 0)
(0.689956 -0.00539591 0)
(0.690525 -0.00256774 0)
(0.690809 0.000211007 0)
(0.690829 0.00294543 0)
(0.690609 0.00564237 0)
(0.690172 0.00830881 0)
(0.689541 0.0109519 0)
(0.688739 0.0135791 0)
(0.687788 0.0161984 0)
(0.686709 0.0188183 0)
(0.685525 0.0214476 0)
(0.684257 0.0240955 0)
(0.682928 0.0267715 0)
(0.68156 0.0294851 0)
(0.680176 0.032246 0)
(0.678799 0.0350633 0)
(0.677452 0.0379457 0)
(0.676158 0.0409008 0)
(0.674943 0.043935 0)
(0.673829 0.0470527 0)
(0.672839 0.0502559 0)
(0.671997 0.0535438 0)
(0.671322 0.056912 0)
(0.670833 0.0603524 0)
(0.670545 0.0638527 0)
(0.670469 0.0673963 0)
(0.670611 0.0709627 0)
(0.670968 0.0745279 0)
(0.671533 0.0780656 0)
(0.672291 0.0815484 0)
(0.673218 0.0849501 0)
(0.674282 0.0882508 0)
(0.0994911 -0.0072588 0)
(0.10266 -0.0142678 0)
(0.10701 -0.0202924 0)
(0.112568 -0.0257411 0)
(0.119441 -0.0308406 0)
(0.127603 -0.0358002 0)
(0.137118 -0.0408569 0)
(0.148182 -0.0462337 0)
(0.161063 -0.0520831 0)
(0.176009 -0.0584393 0)
(0.193154 -0.0651964 0)
(0.212451 -0.0721277 0)
(0.233676 -0.0789381 0)
(0.256465 -0.0853267 0)
(0.280385 -0.0910372 0)
(0.304994 -0.0958845 0)
(0.32988 -0.0997607 0)
(0.354687 -0.102626 0)
(0.379122 -0.104497 0)
(0.402951 -0.105426 0)
(0.425998 -0.105491 0)
(0.448134 -0.104782 0)
(0.469271 -0.103397 0)
(0.48935 -0.101429 0)
(0.50834 -0.0989676 0)
(0.526228 -0.0960964 0)
(0.543019 -0.09289 0)
(0.558728 -0.0894146 0)
(0.573377 -0.0857281 0)
(0.586998 -0.0818807 0)
(0.599624 -0.0779154 0)
(0.611292 -0.0738687 0)
(0.622043 -0.0697713 0)
(0.631916 -0.0656489 0)
(0.640952 -0.0615228 0)
(0.649192 -0.0574106 0)
(0.656675 -0.0533265 0)
(0.66344 -0.049282 0)
(0.669526 -0.0452864 0)
(0.674969 -0.0413468 0)
(0.679805 -0.0374687 0)
(0.684069 -0.0336561 0)
(0.687794 -0.0299118 0)
(0.691013 -0.0262374 0)
(0.693756 -0.0226338 0)
(0.696054 -0.0191008 0)
(0.697936 -0.0156377 0)
(0.69943 -0.012243 0)
(0.700562 -0.00891463 0)
(0.701361 -0.00564996 0)
(0.701849 -0.00244581 0)
(0.702058 0.000701891 0)
(0.702006 0.00379865 0)
(0.701718 0.0068513 0)
(0.701217 0.00986692 0)
(0.700526 0.0128525 0)
(0.699667 0.0158154 0)
(0.698662 0.0187631 0)
(0.697533 0.0217032 0)
(0.696301 0.0246438 0)
(0.694988 0.0275927 0)
(0.693616 0.0305578 0)
(0.692208 0.0335469 0)
(0.690784 0.0365671 0)
(0.689366 0.0396251 0)
(0.687977 0.0427266 0)
(0.686638 0.0458762 0)
(0.68537 0.0490768 0)
(0.684193 0.0523296 0)
(0.683126 0.0556337 0)
(0.682187 0.0589856 0)
(0.68139 0.0623792 0)
(0.680747 0.0658058 0)
(0.680268 0.0692538 0)
(0.679957 0.0727092 0)
(0.679815 0.0761558 0)
(0.679837 0.0795762 0)
(0.680013 0.0829519 0)
(0.680328 0.0862652 0)
(0.680762 0.0894997 0)
(0.681291 0.0926452 0)
(0.0993083 -0.00796022 0)
(0.102533 -0.0157335 0)
(0.106853 -0.0224597 0)
(0.11233 -0.0285755 0)
(0.119156 -0.034347 0)
(0.12736 -0.0400339 0)
(0.137085 -0.0459357 0)
(0.148624 -0.0523293 0)
(0.16233 -0.0593835 0)
(0.178473 -0.0670928 0)
(0.19713 -0.0752625 0)
(0.218139 -0.0835562 0)
(0.241132 -0.091581 0)
(0.265623 -0.0989713 0)
(0.291089 -0.105442 0)
(0.317035 -0.110808 0)
(0.343031 -0.114981 0)
(0.368723 -0.117949 0)
(0.393832 -0.11976 0)
(0.418148 -0.120495 0)
(0.441521 -0.120261 0)
(0.463846 -0.11917 0)
(0.485058 -0.117338 0)
(0.505121 -0.114875 0)
(0.524022 -0.111885 0)
(0.541766 -0.10846 0)
(0.558368 -0.104684 0)
(0.573857 -0.10063 0)
(0.588265 -0.0963601 0)
(0.601631 -0.0919294 0)
(0.613995 -0.0873837 0)
(0.625399 -0.0827621 0)
(0.635888 -0.078097 0)
(0.645505 -0.0734153 0)
(0.654292 -0.0687395 0)
(0.662293 -0.0640876 0)
(0.669548 -0.0594743 0)
(0.676097 -0.0549114 0)
(0.681979 -0.050408 0)
(0.687231 -0.0459714 0)
(0.69189 -0.0416066 0)
(0.695988 -0.0373177 0)
(0.699561 -0.0331071 0)
(0.702638 -0.0289763 0)
(0.705252 -0.0249256 0)
(0.707432 -0.0209548 0)
(0.709205 -0.0170629 0)
(0.710601 -0.0132481 0)
(0.711644 -0.00950824 0)
(0.712362 -0.00584059 0)
(0.712778 -0.00224195 0)
(0.712922 0.00129238 0)
(0.712811 0.00476837 0)
(0.71247 0.00819279 0)
(0.711922 0.0115725 0)
(0.71119 0.0149143 0)
(0.710294 0.0182251 0)
(0.709256 0.0215116 0)
(0.708098 0.0247807 0)
(0.706841 0.0280392 0)
(0.705505 0.0312938 0)
(0.704113 0.0345508 0)
(0.702684 0.0378158 0)
(0.701239 0.0410943 0)
(0.699798 0.0443906 0)
(0.698382 0.047708 0)
(0.697008 0.0510489 0)
(0.695695 0.0544138 0)
(0.694459 0.0578021 0)
(0.693316 0.061211 0)
(0.692278 0.0646363 0)
(0.691356 0.0680715 0)
(0.690559 0.0715088 0)
(0.68989 0.0749384 0)
(0.689352 0.0783493 0)
(0.688941 0.0817299 0)
(0.688653 0.0850676 0)
(0.688477 0.0883505 0)
(0.6884 0.0915672 0)
(0.688408 0.094708 0)
(0.688481 0.0977686 0)
(0.0991041 -0.0086988 0)
(0.102411 -0.0172758 0)
(0.106731 -0.0247487 0)
(0.112162 -0.0315883 0)
(0.118995 -0.0381144 0)
(0.127344 -0.0446582 0)
(0.137458 -0.0516014 0)
(0.14975 -0.0592782 0)
(0.164642 -0.0678489 0)
(0.182378 -0.07722 0)
(0.202911 -0.0870566 0)
(0.225904 -0.0968799 0)
(0.250824 -0.106193 0)
(0.277063 -0.114578 0)
(0.304028 -0.121742 0)
(0.331197 -0.127523 0)
(0.358142 -0.131868 0)
(0.384531 -0.134806 0)
(0.410113 -0.136424 0)
(0.434712 -0.136838 0)
(0.458207 -0.136183 0)
(0.480525 -0.134598 0)
(0.501626 -0.132217 0)
(0.521497 -0.129167 0)
(0.540144 -0.125563 0)
(0.557588 -0.121509 0)
(0.57386 -0.117095 0)
(0.588997 -0.112399 0)
(0.603043 -0.10749 0)
(0.616043 -0.102426 0)
(0.628043 -0.0972537 0)
(0.639091 -0.0920153 0)
(0.649235 -0.0867443 0)
(0.658519 -0.0814685 0)
(0.66699 -0.0762107 0)
(0.674691 -0.0709894 0)
(0.681664 -0.0658192 0)
(0.68795 -0.0607118 0)
(0.693587 -0.0556762 0)
(0.698612 -0.0507194 0)
(0.703062 -0.0458461 0)
(0.70697 -0.04106 0)
(0.710369 -0.0363631 0)
(0.71329 -0.0317565 0)
(0.715762 -0.0272403 0)
(0.717815 -0.0228138 0)
(0.719477 -0.0184756 0)
(0.720773 -0.014224 0)
(0.721731 -0.0100564 0)
(0.722374 -0.00597016 0)
(0.722726 -0.0019619 0)
(0.722815 0.00197347 0)
(0.722659 0.00584226 0)
(0.722281 0.00965113 0)
(0.721704 0.0134066 0)
(0.720949 0.0171151 0)
(0.720037 0.0207827 0)
(0.718989 0.0244157 0)
(0.717824 0.0280198 0)
(0.716565 0.0316009 0)
(0.715229 0.0351642 0)
(0.713838 0.0387146 0)
(0.71241 0.0422563 0)
(0.710964 0.0457928 0)
(0.709519 0.0493269 0)
(0.70809 0.0528603 0)
(0.706696 0.0563936 0)
(0.70535 0.0599263 0)
(0.704066 0.0634564 0)
(0.702856 0.066981 0)
(0.701729 0.0704957 0)
(0.700694 0.0739948 0)
(0.699754 0.0774718 0)
(0.698913 0.0809193 0)
(0.69817 0.0843293 0)
(0.697521 0.0876936 0)
(0.696962 0.091004 0)
(0.696484 0.0942529 0)
(0.696076 0.0974335 0)
(0.695726 0.100541 0)
(0.695422 0.103573 0)
(0.0988744 -0.0094813 0)
(0.102294 -0.0189085 0)
(0.10665 -0.0271819 0)
(0.11208 -0.0348185 0)
(0.119 -0.0422136 0)
(0.127646 -0.0497997 0)
(0.138403 -0.0580612 0)
(0.151811 -0.0673776 0)
(0.168318 -0.0778476 0)
(0.18806 -0.0892167 0)
(0.210785 -0.100953 0)
(0.23594 -0.112416 0)
(0.262828 -0.123018 0)
(0.29074 -0.132317 0)
(0.319047 -0.140045 0)
(0.347231 -0.146084 0)
(0.374889 -0.150435 0)
(0.401726 -0.153179 0)
(0.427532 -0.154446 0)